Title
82281
    1SAPS     N    1   6.433   3.546  11.200 -0.0253 -0.0284 -0.1479
    1SAPS   HN1    2   6.495   3.542  11.284  0.2149 -1.9058 -0.3784
    1SAPS   HN2    3   6.488   3.599  11.130  0.9956  0.7596  1.1898
    1SAPS   HN3    4   6.349   3.602  11.226  0.2986  0.0879  0.7143
    1SAPS   C12    5   6.412   3.410  11.155 -0.2469  0.4335 -0.6333
    1SAPS  H12A    6   6.505   3.364  11.127  1.3205  2.4053  1.0627
    1SAPS   C13    7   6.367   3.311  11.265 -0.1033 -0.2048  0.1520
    1SAPS  O13A    8   6.365   3.338  11.384  0.0015 -0.1278 -0.5685
    1SAPS  O13B    9   6.343   3.196  11.224  0.5786  0.4787  0.3416
    1SAPS   C11   10   6.309   3.416  11.034 -0.1846 -0.1322 -0.0280
    1SAPS  H11A   11   6.274   3.313  11.012 -1.4988  0.1107  0.8068
    1SAPS  H11B   12   6.362   3.464  10.949 -0.3581  1.9642  0.9881
    1SAPS     P   13   6.153   3.626  10.993 -0.1530  0.0111 -0.2953
    1SAPS   O13   14   6.012   3.657  11.030  0.1151 -0.0028  0.6088
    1SAPS   O14   15   6.266   3.719  11.021  0.6118 -0.1380  0.2133
    1SAPS   O12   16   6.190   3.494  11.070  0.0480 -0.3833 -0.1304
    1SAPS   O11   17   6.150   3.594  10.842 -0.2213 -0.7163  0.0210
    1SAPS    C1   18   6.070   3.495  10.780  0.0579  0.0812  0.5451
    1SAPS    HA   19   6.108   3.396  10.815 -0.3040 -0.1603  0.2632
    1SAPS    HB   20   5.961   3.505  10.798  0.1054  1.5913  0.0995
    1SAPS    C2   21   6.097   3.493  10.630 -0.0080  0.6250 -0.0859
    1SAPS    HS   22   6.034   3.406  10.602 -0.9801  1.6734 -1.3051
    1SAPS   O21   23   6.231   3.481  10.576  0.2109  0.5308 -0.6238
    1SAPS   C21   24   6.298   3.379  10.617 -0.1146  0.7201 -0.2908
    1SAPS   O22   25   6.264   3.285  10.684  0.7819  0.2397 -0.7532
    1SAPS   C22   26   6.444   3.387  10.569  0.3123 -0.2900 -0.3318
    1SAPS   H2R   27   6.503   3.418  10.658 -0.6980 -0.2785  0.3465
    1SAPS   H2S   28   6.486   3.286  10.549  1.7738 -0.2550  2.1841
    1SAPS    C3   29   6.026   3.619  10.573 -0.1313  0.0337  0.2409
    1SAPS    HX   30   6.070   3.712  10.614 -1.3728  1.8403 -2.2597
    1SAPS    HY   31   5.919   3.614  10.603  0.6105 -0.3835  3.0999
    1SAPS   O31   32   6.042   3.622  10.429  0.0238 -0.2043 -0.4065
    1SAPS   C31   33   6.130   3.715  10.388 -0.4421  0.9288  0.7368
    1SAPS   O32   34   6.200   3.787  10.458  0.6467 -0.3093 -0.0086
    1SAPS   C32   35   6.142   3.709  10.235  0.1476 -0.5602 -0.3075
    1SAPS   H2X   36   6.121   3.811  10.198  0.0317 -0.7639 -0.8057
    1SAPS   H2Y   37   6.068   3.636  10.195 -2.0297  1.4770 -0.2151
    1SAPS   C23   38   6.461   3.468  10.433  0.1904  0.7687  0.2324
    1SAPS   H3R   39   6.447   3.576  10.452  0.3059  0.8779 -0.3070
    1SAPS   H3S   40   6.375   3.437  10.369  0.5552  1.8474 -0.8114
    1SAPS   C24   41   6.595   3.445  10.368  0.0561  0.0624  0.7929
    1SAPS   H4R   42   6.594   3.506  10.275 -0.6677 -1.7636 -0.4456
    1SAPS   H4S   43   6.602   3.338  10.339  0.0006  0.4443 -0.7627
    1SAPS   C25   44   6.706   3.475  10.464  0.1594 -0.7048  0.3602
    1SAPS   H5R   45   6.681   3.487  10.570 -1.4054  2.0249 -0.1991
    1SAPS   C26   46   6.831   3.508  10.431 -0.0589  0.6274 -0.0073
    1SAPS   H6R   47   6.891   3.527  10.521  0.0269 -1.0982  0.3317
    1SAPS   C27   48   6.904   3.513  10.296  0.3556  0.3382  0.3492
    1SAPS   H7R   49   6.844   3.471  10.212 -1.9902  2.2037  0.9562
    1SAPS   H7S   50   6.987   3.441  10.304 -1.5148 -1.9449  0.3342
    1SAPS   C28   51   6.956   3.649  10.267 -0.6202 -0.7450 -1.0335
    1SAPS   H8R   52   7.021   3.686  10.347 -3.4245 -1.8065  1.9569
    1SAPS   C29   53   6.929   3.726  10.157  0.3294 -0.3079 -0.0484
    1SAPS   H9R   54   6.982   3.821  10.142 -1.7363  1.4211  2.5922
    1SAPS  C210   55   6.838   3.691  10.044  0.1780 -0.9672 -0.2717
    1SAPS  H10R   56   6.788   3.783  10.005 -1.1473 -0.2341  2.8795
    1SAPS  H10S   57   6.754   3.638  10.094 -1.0911  1.7134  0.6134
    1SAPS  C211   58   6.915   3.612   9.941 -0.1909 -0.5607  0.0057
    1SAPS  H11R   59   6.924   3.503   9.953  2.6195 -0.3131  1.1053
    1SAPS  C212   60   6.965   3.666   9.827  0.3653  0.3743  0.2407
    1SAPS  H12R   61   7.028   3.597   9.770 -0.1891 -0.0745  0.1712
    1SAPS  C213   62   6.958   3.807   9.780  0.4838 -0.3343  0.1300
    1SAPS  H13R   63   7.053   3.863   9.795  0.8682 -0.8093 -0.4589
    1SAPS  H13S   64   6.883   3.863   9.840  0.0301  0.1980 -0.9099
    1SAPS  C214   65   6.914   3.807   9.639 -0.1354  0.2559  0.4866
    1SAPS  H14R   66   6.844   3.729   9.607  0.6945 -1.1119  1.9212
    1SAPS  C215   67   6.955   3.877   9.528  0.8167  0.2210 -0.8138
    1SAPS  H15R   68   6.893   3.863   9.438 -2.5181 -0.0031  1.3115
    1SAPS  C216   69   7.058   3.983   9.517  0.4071  0.2605  0.5013
    1SAPS  H16R   70   7.071   4.026   9.618 -2.5618 -1.9626  1.9953
    1SAPS  H16S   71   7.039   4.067   9.447  1.2977 -0.1758 -0.2884
    1SAPS  C217   72   7.191   3.920   9.481  0.1104 -0.2716  0.3708
    1SAPS  H17R   73   7.210   3.836   9.552 -1.4488 -0.9584  0.0013
    1SAPS  H17S   74   7.277   3.989   9.498  1.0002 -1.4827  1.0226
    1SAPS  C218   75   7.213   3.874   9.334  0.2059 -0.0134 -0.1939
    1SAPS  H18R   76   7.181   3.955   9.265 -0.9816  1.7246  2.2404
    1SAPS  H18S   77   7.157   3.779   9.323  0.3169 -0.1315  0.2351
    1SAPS  C219   78   7.362   3.842   9.315  1.3110 -0.1326 -0.3037
    1SAPS  H19R   79   7.391   3.766   9.390  1.5105  1.2545  1.0762
    1SAPS  H19S   80   7.427   3.930   9.327  0.9418 -0.0743  1.5712
    1SAPS  C220   81   7.383   3.782   9.174  0.0894 -0.1302 -0.1184
    1SAPS  H20R   82   7.490   3.791   9.145 -0.6466  2.3515 -2.5038
    1SAPS  H20S   83   7.327   3.841   9.099  0.6066 -1.1534 -1.3331
    1SAPS  H20T   84   7.342   3.679   9.184  2.0991 -0.8882  0.7840
    1SAPS   C33   85   6.283   3.663  10.195  0.1526  0.1485  1.0215
    1SAPS   H3X   86   6.293   3.553  10.210 -1.2234  0.0607  1.4731
    1SAPS   H3Y   87   6.368   3.708  10.250  2.4463 -1.1682 -1.2452
    1SAPS   C34   88   6.317   3.703  10.049  0.1355  0.1621 -0.4318
    1SAPS   H4X   89   6.324   3.814  10.043  0.2309  0.0882 -2.7935
    1SAPS   H4Y   90   6.241   3.675   9.972 -2.0712  1.6777  1.0727
    1SAPS   C35   91   6.457   3.655  10.012 -0.6668 -0.1878  0.2702
    1SAPS   H5X   92   6.455   3.544  10.008  0.0718 -0.1833 -0.7050
    1SAPS   H5Y   93   6.522   3.696  10.092 -0.7692 -0.3479  0.4361
    1SAPS   C36   94   6.500   3.691   9.868 -0.0321  0.0932  0.2360
    1SAPS   H6X   95   6.599   3.640   9.860 -1.6961 -3.4956  0.6835
    1SAPS   H6Y   96   6.509   3.800   9.850 -1.3362  0.4915  1.8002
    1SAPS   C37   97   6.415   3.628   9.766 -0.0095  0.7852 -0.5965
    1SAPS   H7X   98   6.312   3.671   9.769 -0.4951 -0.2840 -1.1361
    1SAPS   H7Y   99   6.413   3.524   9.805 -2.4832  1.7653  2.3272
    1SAPS   C38  100   6.461   3.622   9.613 -0.1134 -1.1037  0.0574
    1SAPS   H8X  101   6.377   3.597   9.545 -0.3633 -0.2268  0.0367
    1SAPS   H8Y  102   6.534   3.538   9.617  0.3204 -0.6866  2.0810
    1SAPS   C39  103   6.524   3.751   9.555  0.2580 -0.0221  0.6584
    1SAPS   H9X  104   6.616   3.785   9.608  0.0510  1.0581  0.3387
    1SAPS   H9Y  105   6.454   3.837   9.553  0.4254  0.1842  2.2134
    1SAPS  C310  106   6.573   3.723   9.407 -0.0338  0.1430  0.3159
    1SAPS  H10X  107   6.553   3.616   9.388  0.3381 -0.0747  1.1014
    1SAPS  H10Y  108   6.683   3.736   9.395 -0.1420  0.7620 -0.0342
    1SAPS  C311  109   6.501   3.813   9.302 -0.6929 -0.3560  0.9691
    1SAPS  H11X  110   6.510   3.923   9.312 -3.0838  0.1199 -0.9835
    1SAPS  H11Y  111   6.392   3.790   9.303 -1.0239  1.1244  1.3030
    1SAPS  C312  112   6.554   3.784   9.163  0.1317 -0.1946 -0.2753
    1SAPS  H12X  113   6.511   3.684   9.139 -0.2967 -0.7636  2.5723
    1SAPS  H12Y  114   6.664   3.782   9.149  0.1198 -0.0437 -0.4043
    1SAPS  C313  115   6.500   3.871   9.051 -0.1282 -0.2722 -0.5707
    1SAPS  H13X  116   6.560   3.964   9.053 -1.3394  0.5816 -1.9123
    1SAPS  H13Y  117   6.393   3.894   9.073  0.6372  1.0102  2.4116
    1SAPS  C314  118   6.511   3.804   8.913 -0.2265  0.3160 -0.0369
    1SAPS  H14X  119   6.611   3.755   8.911 -0.2183  0.3150  0.3100
    1SAPS  H14Y  120   6.507   3.874   8.827 -2.1031  1.2044  0.7247
    1SAPS  C315  121   6.414   3.691   8.878 -0.4584  0.6604 -0.5007
    1SAPS  H15X  122   6.309   3.726   8.888 -1.0311 -0.7857 -1.1150
    1SAPS  H15Y  123   6.430   3.621   8.962  2.0542  1.0571 -0.5952
    1SAPS  C316  124   6.423   3.609   8.746 -0.4566  0.4132  0.1871
    1SAPS  H16X  125   6.356   3.521   8.742  0.9782 -0.6842 -0.8434
    1SAPS  H16Y  126   6.529   3.577   8.734  0.1293  2.3883 -0.1971
    1SAPS  C317  127   6.387   3.688   8.620 -0.1170  0.0054 -0.1346
    1SAPS  H17X  128   6.415   3.624   8.534 -2.1211  0.7466 -1.4111
    1SAPS  H17Y  129   6.435   3.788   8.611 -0.6010  0.3195  0.6944
    1SAPS  C318  130   6.240   3.710   8.606 -0.2671 -0.2435 -0.1550
    1SAPS  H18X  131   6.202   3.800   8.659  1.1113  1.4375 -1.8833
    1SAPS  H18Y  132   6.174   3.625   8.634 -0.4244 -0.5672 -1.4556
    1SAPS  H18Z  133   6.221   3.733   8.499 -1.6445 -1.9879 -0.3208
    2SAPS     N  134   4.100   5.511  10.758  0.1052 -0.2325 -0.1558
    2SAPS   HN1  135   4.015   5.453  10.747  0.4197 -0.9320  0.9810
    2SAPS   HN2  136   4.074   5.609  10.780 -0.0301  0.2185 -2.0815
    2SAPS   HN3  137   4.162   5.514  10.674  1.3663 -2.1007  0.6279
    2SAPS   C12  138   4.201   5.456  10.851 -0.4987 -0.2778 -0.0444
    2SAPS  H12A  139   4.161   5.462  10.952  1.8174  1.2522  0.8512
    2SAPS   C13  140   4.235   5.313  10.833 -0.4729  0.7246 -0.8650
    2SAPS  O13A  141   4.224   5.251  10.722 -0.0068  0.1525  0.2634
    2SAPS  O13B  142   4.319   5.259  10.916  0.3100  0.6620  0.0766
    2SAPS   C11  143   4.335   5.539  10.836  0.2700  0.6437 -0.6316
    2SAPS  H11A  144   4.384   5.502  10.743  1.4382 -0.2143  0.2990
    2SAPS  H11B  145   4.401   5.511  10.921 -0.0443 -0.6872 -0.8065
    2SAPS     P  146   4.430   5.780  10.834 -0.3260  0.0582  0.2451
    2SAPS   O13  147   4.409   5.867  10.942 -0.5712 -0.3616  0.2711
    2SAPS   O14  148   4.565   5.717  10.838 -0.0427  0.0498  0.3643
    2SAPS   O12  149   4.311   5.676  10.827 -0.3870 -0.3124  0.3409
    2SAPS   O11  150   4.417   5.848  10.697  0.2977 -0.1661 -0.3242
    2SAPS    C1  151   4.314   5.948  10.670 -0.3515  0.2269  0.8210
    2SAPS    HA  152   4.281   6.000  10.763  0.3747  1.8262  0.2208
    2SAPS    HB  153   4.370   6.023  10.611  1.3078 -0.7450  1.0991
    2SAPS    C2  154   4.199   5.891  10.574 -0.0268  0.1823  0.0898
    2SAPS    HS  155   4.137   5.821  10.634  1.1693  0.9651  2.3895
    2SAPS   O21  156   4.250   5.834  10.449 -0.1691 -0.3361 -0.1075
    2SAPS   C21  157   4.286   5.705  10.464  0.7851 -0.1463  1.2412
    2SAPS   O22  158   4.261   5.638  10.558 -0.6479  0.3547 -0.0961
    2SAPS   C22  159   4.348   5.651  10.324 -1.1870  0.5424 -0.0192
    2SAPS   H2R  160   4.374   5.744  10.268  1.5070 -2.4668 -4.3860
    2SAPS   H2S  161   4.441   5.596  10.351 -3.7663 -3.8868  0.7496
    2SAPS    C3  162   4.086   5.996  10.529 -0.5458  0.1708 -0.5426
    2SAPS    HX  163   4.058   6.046  10.624  3.0103 -1.7756  1.7609
    2SAPS    HY  164   4.002   5.932  10.495  1.9541 -2.2906 -2.5726
    2SAPS   O31  165   4.142   6.081  10.429  0.3019  0.3309 -0.2425
    2SAPS   C31  166   4.083   6.200  10.421 -0.2501 -1.0114 -0.5542
    2SAPS   O32  167   3.993   6.240  10.489  0.5904  0.0300 -0.6285
    2SAPS   C32  168   4.140   6.285  10.308  0.8339  0.2764 -0.4122
    2SAPS   H2X  169   4.244   6.311  10.336 -0.2455  3.1591  1.3000
    2SAPS   H2Y  170   4.088   6.384  10.309  0.8430  0.3053  2.1217
    2SAPS   C23  171   4.259   5.569  10.241 -0.1852 -0.0213 -0.4942
    2SAPS   H3R  172   4.183   5.639  10.199 -1.9549 -0.5065  1.6843
    2SAPS   H3S  173   4.204   5.502  10.310  1.5333  0.0773  1.0606
    2SAPS   C24  174   4.316   5.484  10.131 -0.2062  0.0186  0.5369
    2SAPS   H4R  175   4.230   5.441  10.076 -0.9949  1.9266  0.2009
    2SAPS   H4S  176   4.371   5.398  10.175  0.8818  0.1349 -0.5339
    2SAPS   C25  177   4.400   5.567  10.036  0.1196  0.2114 -0.3114
    2SAPS   H5R  178   4.497   5.593  10.082  0.7462 -0.4381 -1.2174
    2SAPS   C26  179   4.363   5.610   9.906 -0.3322  0.4517  0.3483
    2SAPS   H6R  180   4.432   5.674   9.849 -2.5527  2.2505 -0.4320
    2SAPS   C27  181   4.236   5.575   9.827  0.1638 -0.3997 -0.4919
    2SAPS   H7R  182   4.152   5.556   9.896  0.4313  3.4002  1.1298
    2SAPS   H7S  183   4.258   5.471   9.793  0.4535 -1.5162  2.8059
    2SAPS   C28  184   4.212   5.664   9.703  0.2441  0.8592  0.1821
    2SAPS   H8R  185   4.186   5.768   9.726  0.3853  1.0954 -0.6817
    2SAPS   C29  186   4.209   5.629   9.571  0.7993 -0.0013  0.0800
    2SAPS   H9R  187   4.168   5.705   9.504 -0.5674 -0.1326  0.7297
    2SAPS  C210  188   4.232   5.496   9.524 -0.2257  0.7362  0.8159
    2SAPS  H10R  189   4.132   5.447   9.516 -0.3602  1.3318 -3.7096
    2SAPS  H10S  190   4.291   5.429   9.590  0.4734  0.2799 -0.2482
    2SAPS  C211  191   4.285   5.491   9.378 -0.0387  0.3371 -0.4162
    2SAPS  H11R  192   4.394   5.479   9.373 -0.0368 -0.1736  0.5987
    2SAPS  C212  193   4.219   5.503   9.266  0.8970 -0.6473  0.2986
    2SAPS  H12R  194   4.274   5.500   9.171  0.2637  0.9266 -0.1366
    2SAPS  C213  195   4.074   5.527   9.249  0.3535 -0.2889 -0.4456
    2SAPS  H13R  196   4.040   5.632   9.234 -2.4136 -0.8908  0.9468
    2SAPS  H13S  197   4.021   5.511   9.345 -0.1714 -1.3275 -0.8800
    2SAPS  C214  198   4.008   5.439   9.145  0.2560 -0.2049 -0.0808
    2SAPS  H14R  199   3.935   5.374   9.195 -0.1719 -0.2657 -0.7684
    2SAPS  C215  200   4.022   5.436   9.011 -0.3600 -0.3176  0.1284
    2SAPS  H15R  201   3.962   5.359   8.961 -0.8842  0.2430 -0.1274
    2SAPS  C216  202   4.111   5.517   8.915 -0.1350 -0.3141 -0.3163
    2SAPS  H16R  203   4.198   5.452   8.891  0.6499 -0.5715  2.7437
    2SAPS  H16S  204   4.152   5.604   8.971 -1.3521  0.9436 -1.3168
    2SAPS  C217  205   4.044   5.572   8.780 -0.4632 -0.0995  0.9861
    2SAPS  H17R  206   4.107   5.654   8.739  0.0055 -0.2805  1.3319
    2SAPS  H17S  207   3.945   5.616   8.806 -0.0114  0.2089  2.3089
    2SAPS  C218  208   4.014   5.466   8.677  0.3717  0.5371  0.0007
    2SAPS  H18R  209   3.931   5.400   8.708  0.7404  1.3588  3.0354
    2SAPS  H18S  210   4.102   5.399   8.663 -0.5313 -0.4938 -0.9875
    2SAPS  C219  211   3.977   5.524   8.540 -0.4914 -0.6081  0.3650
    2SAPS  H19R  212   3.891   5.595   8.546 -0.6178 -0.6545 -0.6451
    2SAPS  H19S  213   3.924   5.444   8.484 -1.1461 -0.2473  0.4655
    2SAPS  C220  214   4.096   5.581   8.463  0.1586  0.2043 -0.5262
    2SAPS  H20R  215   4.178   5.506   8.455  0.0584  0.1417 -1.0095
    2SAPS  H20S  216   4.129   5.671   8.520 -2.6585  0.3990  0.9668
    2SAPS  H20T  217   4.058   5.615   8.364 -0.0978 -1.1447 -0.9098
    2SAPS   C33  218   4.134   6.211  10.176 -0.3922 -0.1102  0.8079
    2SAPS   H3X  219   4.029   6.187  10.150 -0.3014  2.2080 -2.1844
    2SAPS   H3Y  220   4.194   6.117  10.179  1.9378  1.1881 -1.0813
    2SAPS   C34  221   4.177   6.305  10.059 -0.2898  0.3785 -0.7013
    2SAPS   H4X  222   4.285   6.330  10.070 -0.7742  2.1871  0.3193
    2SAPS   H4Y  223   4.118   6.399  10.061  0.1856  0.6678 -0.1256
    2SAPS   C35  224   4.162   6.245   9.923 -0.5735  0.2727 -0.1971
    2SAPS   H5X  225   4.056   6.241   9.888 -1.0488  1.0777  1.0961
    2SAPS   H5Y  226   4.190   6.139   9.935 -3.4826 -0.4319  1.2691
    2SAPS   C36  227   4.233   6.336   9.816  0.0919 -0.5293 -0.4130
    2SAPS   H6X  228   4.340   6.334   9.844  0.5188  0.8555 -1.8204
    2SAPS   H6Y  229   4.203   6.443   9.822  0.6052 -0.3853 -0.4202
    2SAPS   C37  230   4.185   6.290   9.682 -0.5300 -0.2697  0.5763
    2SAPS   H7X  231   4.080   6.328   9.683 -0.4775 -0.1406  1.3717
    2SAPS   H7Y  232   4.181   6.180   9.669  1.0610 -0.3151  0.2894
    2SAPS   C38  233   4.269   6.340   9.569  0.2164 -0.2163 -0.5827
    2SAPS   H8X  234   4.372   6.302   9.582  0.3190  0.4995  0.9968
    2SAPS   H8Y  235   4.279   6.451   9.568  0.1307 -0.1233 -4.3465
    2SAPS   C39  236   4.225   6.286   9.427 -0.1644  0.3392 -0.5484
    2SAPS   H9X  237   4.119   6.318   9.413 -0.6261  1.0012  3.2316
    2SAPS   H9Y  238   4.228   6.176   9.443 -0.9996  0.4737  0.6985
    2SAPS  C310  239   4.318   6.329   9.308  0.4592 -0.5618  0.2732
    2SAPS  H10X  240   4.424   6.295   9.309  1.1696  1.4738 -0.3070
    2SAPS  H10Y  241   4.315   6.440   9.302 -1.9342 -0.6267 -1.0484
    2SAPS  C311  242   4.268   6.279   9.172  0.0463  0.6345  0.2091
    2SAPS  H11X  243   4.158   6.288   9.166 -0.0059  1.6865  2.0313
    2SAPS  H11Y  244   4.283   6.169   9.181 -1.4558  0.2597 -1.5256
    2SAPS  C312  245   4.341   6.334   9.047  0.0389 -0.4239  0.2572
    2SAPS  H12X  246   4.444   6.295   9.031  0.8950  1.8297 -0.0606
    2SAPS  H12Y  247   4.355   6.443   9.058  0.2152 -0.4825  0.6192
    2SAPS  C313  248   4.258   6.320   8.920 -0.6186 -0.3819  0.7915
    2SAPS  H13X  249   4.158   6.362   8.944  0.1689  0.3670  2.9671
    2SAPS  H13Y  250   4.255   6.211   8.897 -0.2608  0.1269 -2.1372
    2SAPS  C314  251   4.315   6.394   8.800 -0.1911 -0.2270  0.9466
    2SAPS  H14X  252   4.409   6.338   8.778 -0.2908 -0.1437  0.2783
    2SAPS  H14Y  253   4.335   6.503   8.811 -0.8888 -0.0712  0.6914
    2SAPS  C315  254   4.223   6.368   8.680  0.3178  0.0728 -0.1879
    2SAPS  H15X  255   4.131   6.430   8.682 -0.2575 -0.7474 -0.4933
    2SAPS  H15Y  256   4.197   6.261   8.695  0.6966  0.1332  1.0857
    2SAPS  C316  257   4.301   6.386   8.549  0.3103  0.1415 -0.4375
    2SAPS  H16X  258   4.379   6.310   8.529  0.4643  0.3401 -0.5960
    2SAPS  H16Y  259   4.353   6.483   8.560 -0.6834  0.5928  0.4722
    2SAPS  C317  260   4.215   6.395   8.423  0.5241 -0.5153  1.4361
    2SAPS  H17X  261   4.273   6.408   8.329 -0.2021 -1.2704  0.8731
    2SAPS  H17Y  262   4.151   6.485   8.436 -1.1894 -1.2312 -1.2934
    2SAPS  C318  263   4.112   6.279   8.403 -0.2297  0.7316  0.2447
    2SAPS  H18X  264   4.041   6.299   8.320  2.0006 -1.8674 -2.5222
    2SAPS  H18Y  265   4.048   6.274   8.493 -3.0011  2.4387 -1.4921
    2SAPS  H18Z  266   4.169   6.188   8.375 -1.7840 -0.3498  0.4943
    3SAPS     N  267   5.065   6.357  10.831  0.1302 -0.2704  0.2756
    3SAPS   HN1  268   4.964   6.341  10.814  0.1271 -1.2178  1.0982
    3SAPS   HN2  269   5.095   6.449  10.794  4.3645 -1.4058  0.4007
    3SAPS   HN3  270   5.113   6.275  10.788  0.0933 -0.3698  0.4251
    3SAPS   C12  271   5.086   6.365  10.984 -0.4793  0.1918 -0.4504
    3SAPS  H12A  272   5.190   6.343  11.000 -0.4184 -0.4083 -1.5480
    3SAPS   C13  273   5.039   6.496  11.045 -0.6390 -0.1136 -0.6689
    3SAPS  O13A  274   5.046   6.603  10.970  0.4814 -0.1035 -0.4293
    3SAPS  O13B  275   5.064   6.518  11.168 -0.6678  0.4731  0.3728
    3SAPS   C11  276   5.014   6.246  11.053 -0.2347  0.2365 -0.2319
    3SAPS  H11A  277   5.059   6.256  11.154 -1.4696  0.8152  0.2747
    3SAPS  H11B  278   5.058   6.160  10.998  1.5347  0.8328  0.1825
    3SAPS     P  279   4.773   6.184  10.952 -0.3083  0.0225 -0.3694
    3SAPS   O13  280   4.805   6.039  10.941 -0.4935  0.0921  0.1774
    3SAPS   O14  281   4.637   6.220  11.003  0.0356  0.7555  0.1111
    3SAPS   O12  282   4.872   6.253  11.060 -0.1409  0.2596  0.2361
    3SAPS   O11  283   4.810   6.261  10.821 -0.8325 -0.4339 -0.8546
    3SAPS    C1  284   4.715   6.358  10.766 -0.0709 -0.6234 -0.4840
    3SAPS    HA  285   4.667   6.406  10.854  1.4571  0.1009 -0.0093
    3SAPS    HB  286   4.775   6.437  10.715  0.6455 -1.5841 -1.1643
    3SAPS    C2  287   4.615   6.302  10.660  0.0495 -0.5075  0.6114
    3SAPS    HS  288   4.634   6.193  10.669 -0.1323 -0.4360  2.0013
    3SAPS   O21  289   4.673   6.356  10.537  0.2016  0.3043 -0.2358
    3SAPS   C21  290   4.600   6.361  10.422 -0.1653 -0.9191  0.1377
    3SAPS   O22  291   4.493   6.313  10.401  0.8470  0.0642 -0.4998
    3SAPS   C22  292   4.675   6.438  10.319  0.5373 -0.6757 -0.0227
    3SAPS   H2R  293   4.695   6.537  10.363 -1.5460 -0.0282 -0.4329
    3SAPS   H2S  294   4.771   6.382  10.309  0.5282 -0.5309 -1.0814
    3SAPS    C3  295   4.465   6.334  10.689  0.0554 -0.1806  0.0159
    3SAPS    HX  296   4.460   6.321  10.799  1.7351  1.3887  0.3296
    3SAPS    HY  297   4.396   6.267  10.633  0.3316 -0.0370 -0.5066
    3SAPS   O31  298   4.435   6.470  10.651 -0.5197 -0.0202  0.4445
    3SAPS   C31  299   4.303   6.502  10.662  0.5742  0.2103 -0.0753
    3SAPS   O32  300   4.214   6.438  10.715 -0.1997  0.0151  0.0435
    3SAPS   C32  301   4.288   6.621  10.566  0.5274  0.1455  0.0197
    3SAPS   H2X  302   4.338   6.709  10.612  0.2467  0.7635 -0.8388
    3SAPS   H2Y  303   4.178   6.639  10.559  0.8570  2.1856 -0.4247
    3SAPS   C23  304   4.609   6.450  10.180 -0.5859 -0.1086 -0.1363
    3SAPS   H3R  305   4.519   6.515  10.186 -0.5378  0.0690 -1.1765
    3SAPS   H3S  306   4.574   6.352  10.140  0.1595  0.8552 -3.4413
    3SAPS   C24  307   4.700   6.513  10.077 -0.7273 -0.1869  0.5647
    3SAPS   H4R  308   4.793   6.461  10.046  1.5195  3.8870 -0.3223
    3SAPS   H4S  309   4.732   6.612  10.116 -0.3494  0.3425 -1.0132
    3SAPS   C25  310   4.606   6.543   9.964 -0.3906 -0.0084  0.6147
    3SAPS   H5R  311   4.512   6.593   9.991 -1.1774 -1.7390  1.2818
    3SAPS   C26  312   4.638   6.535   9.833 -0.0534  0.3720  0.1031
    3SAPS   H6R  313   4.564   6.570   9.760 -0.3635  2.2744  1.2438
    3SAPS   C27  314   4.771   6.486   9.777 -0.0340 -0.2862  0.6394
    3SAPS   H7R  315   4.760   6.375   9.781 -0.2665 -0.4402 -2.0284
    3SAPS   H7S  316   4.855   6.518   9.842  0.8589 -2.1393  0.4706
    3SAPS   C28  317   4.788   6.544   9.640  0.3832  0.0550  0.5018
    3SAPS   H8R  318   4.806   6.652   9.631 -3.1698  0.7525  0.2914
    3SAPS   C29  319   4.786   6.471   9.526  0.2411 -0.5828 -0.3773
    3SAPS   H9R  320   4.797   6.525   9.431  2.2274  0.7657  0.5548
    3SAPS  C210  321   4.791   6.324   9.522  0.3165 -0.1401 -0.1276
    3SAPS  H10R  322   4.796   6.282   9.625  1.0391 -1.5031 -0.6835
    3SAPS  H10S  323   4.881   6.283   9.473 -0.6469 -0.2204 -1.9043
    3SAPS  C211  324   4.682   6.249   9.452 -0.5088  0.7605  0.5413
    3SAPS  H11R  325   4.577   6.261   9.481 -1.3080 -0.7871 -1.4736
    3SAPS  C212  326   4.705   6.172   9.335 -0.2553  0.4452  0.2484
    3SAPS  H12R  327   4.622   6.110   9.300  1.2621 -1.0457 -0.8132
    3SAPS  C213  328   4.836   6.146   9.268 -0.2319 -0.4723  0.4359
    3SAPS  H13R  329   4.916   6.116   9.339  1.3449  1.4410 -0.4262
    3SAPS  H13S  330   4.879   6.236   9.220 -0.1828 -1.2850 -1.1196
    3SAPS  C214  331   4.821   6.039   9.160  0.3071 -0.1642  0.4747
    3SAPS  H14R  332   4.859   5.939   9.187 -1.0708 -1.0621 -0.7969
    3SAPS  C215  333   4.774   6.047   9.034  0.5156 -0.2444 -0.1359
    3SAPS  H15R  334   4.756   5.958   8.972 -3.1399 -1.0476  1.7539
    3SAPS  C216  335   4.710   6.173   8.979 -0.8079  0.5138 -0.4265
    3SAPS  H16R  336   4.690   6.250   9.057  1.9226  0.5354  0.3453
    3SAPS  H16S  337   4.609   6.149   8.941 -0.7344  0.9077 -0.8799
    3SAPS  C217  338   4.790   6.234   8.857  0.0372  0.3179 -0.6557
    3SAPS  H17R  339   4.732   6.319   8.816  0.6755  0.5172 -1.1690
    3SAPS  H17S  340   4.825   6.168   8.775  1.8855  0.8074 -0.3178
    3SAPS  C218  341   4.933   6.283   8.911  0.1244 -0.7247 -0.1432
    3SAPS  H18R  342   4.975   6.185   8.943  0.4454 -0.0311  1.6885
    3SAPS  H18S  343   4.912   6.347   9.000 -2.4480 -1.7968  0.1300
    3SAPS  C219  344   5.012   6.347   8.802 -0.0350 -0.1848  0.7396
    3SAPS  H19R  345   4.956   6.435   8.765 -0.8742 -0.9768  0.0844
    3SAPS  H19S  346   5.009   6.276   8.717 -0.5670  1.3166 -0.5425
    3SAPS  C220  347   5.164   6.388   8.831  0.2989  0.6277 -0.7152
    3SAPS  H20R  348   5.165   6.484   8.888 -2.4394  0.4401 -0.2485
    3SAPS  H20S  349   5.216   6.395   8.733  0.0566 -2.1306 -1.0975
    3SAPS  H20T  350   5.223   6.314   8.890  1.4433  1.8360 -0.2767
    3SAPS   C33  351   4.338   6.609  10.427 -0.4261  0.2102  0.1755
    3SAPS   H3X  352   4.295   6.526  10.367  1.0095  0.2804 -1.0224
    3SAPS   H3Y  353   4.449   6.608  10.434 -0.4711  1.8903  1.9491
    3SAPS   C34  354   4.307   6.739  10.341  0.5544 -0.1488 -0.4273
    3SAPS   H4X  355   4.337   6.832  10.393  1.2233 -0.9208  0.6143
    3SAPS   H4Y  356   4.196   6.733  10.340  0.5766 -1.6071  0.8572
    3SAPS   C35  357   4.355   6.725  10.196  0.3585  0.3975 -0.2693
    3SAPS   H5X  358   4.321   6.627  10.158  0.5717  0.3918 -0.4447
    3SAPS   H5Y  359   4.466   6.725  10.200  0.3383 -1.2509  1.6225
    3SAPS   C36  360   4.315   6.839  10.103  0.4448  0.6920  0.0142
    3SAPS   H6X  361   4.338   6.938  10.148 -0.3331  0.5033  0.8484
    3SAPS   H6Y  362   4.205   6.842  10.094  0.4153  0.1632  0.2235
    3SAPS   C37  363   4.373   6.838   9.961  0.0615 -0.1035  0.2810
    3SAPS   H7X  364   4.349   6.744   9.906 -1.5371  0.1269  0.5519
    3SAPS   H7Y  365   4.482   6.858   9.964  0.1590 -0.5981  0.1106
    3SAPS   C38  366   4.327   6.952   9.864 -0.0703  0.5070  0.2462
    3SAPS   H8X  367   4.318   7.052   9.913 -0.9819  0.3063  0.4976
    3SAPS   H8Y  368   4.227   6.913   9.836 -0.0169 -2.0921  3.1459
    3SAPS   C39  369   4.403   6.956   9.733  0.1459  0.3905 -0.0499
    3SAPS   H9X  370   4.507   6.984   9.759  0.4414 -0.2807 -0.4768
    3SAPS   H9Y  371   4.360   7.036   9.670  1.7170  0.7179 -0.7375
    3SAPS  C310  372   4.407   6.828   9.649 -0.5225  0.1622 -0.3724
    3SAPS  H10X  373   4.302   6.799   9.629  0.5555 -2.8505 -2.2693
    3SAPS  H10Y  374   4.451   6.743   9.704 -0.5661  0.2624 -0.1830
    3SAPS  C311  375   4.481   6.845   9.520 -0.0682 -0.1513  0.4290
    3SAPS  H11X  376   4.588   6.867   9.535 -0.0202  0.4088 -0.6326
    3SAPS  H11Y  377   4.436   6.927   9.461  1.1600  2.3104  2.7311
    3SAPS  C312  378   4.474   6.720   9.433  0.3581 -0.4290 -0.5945
    3SAPS  H12X  379   4.369   6.714   9.398  0.5194 -0.2375 -1.1342
    3SAPS  H12Y  380   4.499   6.629   9.490 -0.2634  0.0826  0.5116
    3SAPS  C313  381   4.578   6.726   9.325  0.1130 -0.5785  0.0250
    3SAPS  H13X  382   4.683   6.724   9.364  0.0338  0.0831  0.2970
    3SAPS  H13Y  383   4.573   6.813   9.256 -1.3869 -0.1113  0.6874
    3SAPS  C314  384   4.574   6.600   9.237 -0.6682  0.1114  0.0660
    3SAPS  H14X  385   4.467   6.593   9.208 -0.3460  0.6544 -1.3148
    3SAPS  H14Y  386   4.597   6.513   9.302  0.7762  0.3271 -0.1254
    3SAPS  C315  387   4.678   6.602   9.118 -0.4035 -0.5559 -0.0992
    3SAPS  H15X  388   4.640   6.682   9.052  1.1383 -0.2249 -0.6222
    3SAPS  H15Y  389   4.679   6.512   9.053 -2.3908 -1.6205  1.2063
    3SAPS  C316  390   4.826   6.640   9.152 -0.3402 -0.2845  0.0434
    3SAPS  H16X  391   4.862   6.550   9.207 -0.6941  0.4734  1.5726
    3SAPS  H16Y  392   4.839   6.726   9.222  1.8058 -2.5945  2.7390
    3SAPS  C317  393   4.908   6.662   9.026  0.2424  0.0113 -0.1119
    3SAPS  H17X  394   4.859   6.735   8.958 -0.5264  0.3565  0.8035
    3SAPS  H17Y  395   4.911   6.569   8.965  2.6960 -0.6645  0.9069
    3SAPS  C318  396   5.047   6.716   9.059 -0.0853 -0.1080  0.0201
    3SAPS  H18X  397   5.058   6.735   9.168  0.2563 -2.0843  0.3645
    3SAPS  H18Y  398   5.072   6.804   8.996  0.1302 -0.4702 -0.4015
    3SAPS  H18Z  399   5.127   6.643   9.033  0.6848  0.3917  0.9117
    4SAPS     N  400   1.492   0.710  10.809 -0.5404 -0.3439 -0.0295
    4SAPS   HN1  401   1.501   0.807  10.773  0.4236 -0.7605 -0.9872
    4SAPS   HN2  402   1.517   0.642  10.734  2.1601 -0.1009  0.5392
    4SAPS   HN3  403   1.390   0.695  10.824 -0.7276 -2.1012 -2.4467
    4SAPS   C12  404   1.583   0.687  10.925  0.9769  0.0050 -0.2256
    4SAPS  H12A  405   1.543   0.759  10.996  0.5681 -1.0777  0.6632
    4SAPS   C13  406   1.582   0.551  11.000 -0.0621 -0.2551  0.5784
    4SAPS  O13A  407   1.509   0.457  10.968  0.3681  0.0073  0.2009
    4SAPS  O13B  408   1.632   0.558  11.119  0.5294  0.5537 -0.0857
    4SAPS   C11  409   1.721   0.734  10.888 -0.5613 -0.1335  0.3557
    4SAPS  H11A  410   1.783   0.733  10.981  0.9154  1.8098 -0.5305
    4SAPS  H11B  411   1.725   0.840  10.855  1.7823  0.8357  3.3040
    4SAPS     P  412   1.926   0.638  10.734  0.1398  0.0900 -0.1672
    4SAPS   O13  413   2.017   0.686  10.847 -0.4297 -0.1419  0.1256
    4SAPS   O14  414   1.944   0.499  10.690  0.1491 -0.0121  0.0475
    4SAPS   O12  415   1.777   0.651  10.782  0.3311 -0.5391  0.0770
    4SAPS   O11  416   1.936   0.736  10.610  0.0005  0.0942 -0.2276
    4SAPS    C1  417   1.872   0.699  10.490 -0.4279 -0.4762  0.0180
    4SAPS    HA  418   1.942   0.644  10.425 -1.7162  0.0764 -1.9145
    4SAPS    HB  419   1.779   0.640  10.505 -1.5098  1.4507  1.4539
    4SAPS    C2  420   1.825   0.821  10.401 -0.5558 -0.2274 -0.1604
    4SAPS    HS  421   1.831   0.789  10.295  1.4179 -0.4716 -0.0076
    4SAPS   O21  422   1.907   0.935  10.424  0.5910  0.0817 -0.0595
    4SAPS   C21  423   2.033   0.920  10.391  0.1066  0.1416  0.4364
    4SAPS   O22  424   2.071   0.829  10.315 -0.7192 -0.2293 -0.1746
    4SAPS   C22  425   2.123   1.024  10.444  0.3631 -0.9454 -0.0494
    4SAPS   H2R  426   2.082   1.122  10.412 -0.9488 -1.8616 -1.2743
    4SAPS   H2S  427   2.127   1.023  10.555 -0.6960 -0.6434 -0.0020
    4SAPS    C3  428   1.678   0.852  10.439  0.4556 -0.5409  0.0056
    4SAPS    HX  429   1.638   0.944  10.391  1.0756 -0.5772 -0.5893
    4SAPS    HY  430   1.674   0.883  10.546 -2.2392  0.1636 -0.2358
    4SAPS   O31  431   1.599   0.733  10.411 -0.5110 -0.3076 -0.1848
    4SAPS   C31  432   1.531   0.722  10.299  0.4477 -0.4095 -0.2291
    4SAPS   O32  433   1.541   0.804  10.203 -0.1011  0.9362  0.2805
    4SAPS   C32  434   1.437   0.600  10.300 -0.1143 -0.4891 -0.7015
    4SAPS   H2X  435   1.338   0.635  10.336  1.1750  1.3774  1.2817
    4SAPS   H2Y  436   1.485   0.527  10.369  1.3842  2.5831  1.7669
    4SAPS   C23  437   2.265   1.016  10.395  0.9122  0.1347  0.3375
    4SAPS   H3R  438   2.261   1.020  10.284 -1.6680  1.4393  0.4227
    4SAPS   H3S  439   2.315   0.924  10.432  2.0032  0.6474  0.1941
    4SAPS   C24  440   2.350   1.143  10.437 -0.9173 -0.0847  0.0274
    4SAPS   H4R  441   2.341   1.144  10.547  0.1978  0.9083  0.1154
    4SAPS   H4S  442   2.303   1.234  10.393 -0.9994  0.7946  1.8648
    4SAPS   C25  443   2.490   1.108  10.389  0.2860  0.3490  0.4236
    4SAPS   H5R  444   2.540   1.027  10.444  0.1791 -0.2185 -0.3010
    4SAPS   C26  445   2.565   1.159  10.287 -0.2875 -0.7013  0.6126
    4SAPS   H6R  446   2.669   1.124  10.276  0.1255  0.2354  1.2966
    4SAPS   C27  447   2.525   1.270  10.198  0.1041 -0.4908  0.5375
    4SAPS   H7R  448   2.500   1.356  10.264 -1.5631 -1.5021  1.2661
    4SAPS   H7S  449   2.435   1.241  10.140 -0.7127  1.0264  0.9704
    4SAPS   C28  450   2.615   1.319  10.084  0.6610  0.1847  0.1060
    4SAPS   H8R  451   2.649   1.422  10.100  1.1512  0.3308 -1.6477
    4SAPS   C29  452   2.640   1.248   9.975 -0.1236 -0.4595  0.7168
    4SAPS   H9R  453   2.716   1.287   9.906  1.2499 -1.1167  1.8121
    4SAPS  C210  454   2.578   1.111   9.940  0.5405 -0.7863  0.0755
    4SAPS  H10R  455   2.529   1.111   9.841  2.1232 -2.6556 -0.7723
    4SAPS  H10S  456   2.513   1.063  10.016 -2.8472 -0.5332 -2.4629
    4SAPS  C211  457   2.691   1.014   9.931 -0.0672 -0.0210  0.6236
    4SAPS  H11R  458   2.738   0.987  10.028  0.6751  0.1108  0.3095
    4SAPS  C212  459   2.738   0.958   9.818 -0.1587  0.3780 -0.1618
    4SAPS  H12R  460   2.823   0.887   9.825 -0.8495 -0.5948 -1.3098
    4SAPS  C213  461   2.681   0.978   9.683  0.0231 -0.4000  0.0920
    4SAPS  H13R  462   2.732   1.066   9.639 -3.1288  0.3769 -2.4164
    4SAPS  H13S  463   2.572   1.001   9.681 -0.6900 -3.2931  1.3625
    4SAPS  C214  464   2.700   0.861   9.593  0.6287  0.4219 -0.7937
    4SAPS  H14R  465   2.695   0.764   9.646  0.0003  1.5809  1.4330
    4SAPS  C215  466   2.703   0.863   9.458 -0.2862  0.2979 -0.4098
    4SAPS  H15R  467   2.705   0.773   9.395  0.9217  2.0574 -3.0896
    4SAPS  C216  468   2.695   0.980   9.363  0.0471  0.5246  0.0470
    4SAPS  H16R  469   2.712   1.078   9.413 -0.5098  0.4615  0.3682
    4SAPS  H16S  470   2.595   0.973   9.316 -0.3994 -1.7052  1.2039
    4SAPS  C217  471   2.793   0.956   9.256  0.3614  1.1976 -0.7822
    4SAPS  H17R  472   2.892   0.923   9.295 -0.2211 -1.8694 -1.6493
    4SAPS  H17S  473   2.824   1.052   9.208  2.2390  0.3190 -1.4493
    4SAPS  C218  474   2.753   0.855   9.149  0.5696  0.4348 -0.0501
    4SAPS  H18R  475   2.659   0.883   9.096  0.1372  1.2970  1.1160
    4SAPS  H18S  476   2.735   0.757   9.198  3.8139 -0.9213 -1.2933
    4SAPS  C219  477   2.859   0.837   9.039  0.4538 -0.5600 -1.0990
    4SAPS  H19R  478   2.957   0.818   9.087  2.1549 -1.4462 -4.5768
    4SAPS  H19S  479   2.877   0.931   8.981 -0.0234  0.3400  0.1689
    4SAPS  C220  480   2.825   0.721   8.953 -0.1920 -0.0120  0.0867
    4SAPS  H20R  481   2.784   0.633   9.006  0.1115  1.0430  2.1560
    4SAPS  H20S  482   2.912   0.684   8.895 -0.6770 -1.7044  0.3778
    4SAPS  H20T  483   2.752   0.753   8.875 -1.1383 -3.2828 -0.5108
    4SAPS   C33  484   1.420   0.543  10.157  0.1591  0.1529  0.9287
    4SAPS   H3X  485   1.384   0.625  10.091  0.6686 -0.1599  0.2463
    4SAPS   H3Y  486   1.346   0.460  10.151 -0.0283  0.3949 -0.5307
    4SAPS   C34  487   1.555   0.495  10.091 -0.2791  0.1987  0.4124
    4SAPS   H4X  488   1.595   0.416  10.157  0.0710  0.1480  0.1397
    4SAPS   H4Y  489   1.634   0.573  10.100 -1.1476  1.0356  1.1360
    4SAPS   C35  490   1.534   0.433   9.951  0.7149 -0.1255  0.4598
    4SAPS   H5X  491   1.459   0.351   9.951 -1.3155  1.6155 -1.3978
    4SAPS   H5Y  492   1.623   0.382   9.908  1.6419  1.1225  0.8242
    4SAPS   C36  493   1.487   0.530   9.839 -0.7083  0.3192  0.8199
    4SAPS   H6X  494   1.531   0.630   9.818 -1.4715  0.4571 -0.1456
    4SAPS   H6Y  495   1.383   0.555   9.868 -1.2933 -0.8766 -0.1686
    4SAPS   C37  496   1.471   0.459   9.706  0.1768  0.2003 -0.8524
    4SAPS   H7X  497   1.395   0.380   9.724  0.1688  0.4670  0.3695
    4SAPS   H7Y  498   1.565   0.414   9.667  0.9138  1.6279 -0.7683
    4SAPS   C38  499   1.418   0.558   9.604 -0.0892 -0.3024 -0.3185
    4SAPS   H8X  500   1.492   0.640   9.589 -1.7461  1.3855  0.2706
    4SAPS   H8Y  501   1.322   0.607   9.629 -0.9009 -1.2208 -1.5629
    4SAPS   C39  502   1.388   0.498   9.459 -0.2774  0.0575 -0.1718
    4SAPS   H9X  503   1.306   0.425   9.476 -0.3343  0.1105 -0.2196
    4SAPS   H9Y  504   1.481   0.449   9.422 -0.0184  0.9141 -0.6917
    4SAPS  C310  505   1.378   0.599   9.349  1.1282  0.4355  0.6022
    4SAPS  H10X  506   1.453   0.677   9.374  0.5132  0.7154  1.6144
    4SAPS  H10Y  507   1.277   0.645   9.356  0.0860 -1.4274 -1.1396
    4SAPS  C311  508   1.397   0.550   9.204  0.3319  0.7969  0.2074
    4SAPS  H11X  509   1.496   0.499   9.198 -0.0049  0.2664 -1.3169
    4SAPS  H11Y  510   1.408   0.640   9.139 -3.1786  0.1340 -1.5106
    4SAPS  C312  511   1.295   0.454   9.144 -0.1410  0.2028 -0.2287
    4SAPS  H12X  512   1.189   0.489   9.143 -0.8563 -1.8098  0.8146
    4SAPS  H12Y  513   1.308   0.363   9.206  4.1625  0.1533 -0.9217
    4SAPS  C313  514   1.327   0.404   8.994  0.2578  0.3170 -0.3612
    4SAPS  H13X  515   1.436   0.393   8.976  0.3373 -1.0900  0.7916
    4SAPS  H13Y  516   1.287   0.476   8.920  0.4575  0.3531 -0.4351
    4SAPS  C314  517   1.248   0.277   8.972  0.0984 -0.8952 -0.2424
    4SAPS  H14X  518   1.145   0.309   8.998 -0.1260  0.5288 -2.6138
    4SAPS  H14Y  519   1.296   0.194   9.028 -0.5444 -0.3278  1.2091
    4SAPS  C315  520   1.246   0.233   8.820 -0.4487 -0.9072 -0.3402
    4SAPS  H15X  521   1.196   0.313   8.762 -0.4362 -0.3236  0.4407
    4SAPS  H15Y  522   1.176   0.146   8.818 -1.2385 -0.2589 -1.4602
    4SAPS  C316  523   1.385   0.208   8.755  0.6083 -0.0989  0.8066
    4SAPS  H16X  524   1.421   0.107   8.785 -1.2788 -0.8804  0.6003
    4SAPS  H16Y  525   1.458   0.276   8.804  1.8956 -0.3676 -0.6842
    4SAPS  C317  526   1.397   0.230   8.603  0.0436 -0.3799  0.9763
    4SAPS  H17X  527   1.505   0.236   8.578  0.2894 -4.6733  0.1466
    4SAPS  H17Y  528   1.348   0.325   8.575  1.2856 -0.1240 -0.4500
    4SAPS  C318  529   1.356   0.105   8.519  0.0726  0.1393  0.5050
    4SAPS  H18X  530   1.351   0.116   8.409 -1.1739 -0.9997  0.4232
    4SAPS  H18Y  531   1.253   0.081   8.553 -0.2692 -1.2428 -1.4014
    4SAPS  H18Z  532   1.412   0.013   8.544 -2.6955 -2.2441 -1.4003
    5SAPS     N  533   3.957   5.003  10.999  0.3156 -0.3527 -0.8013
    5SAPS   HN1  534   4.014   4.978  10.916  0.6800 -3.1498  0.1942
    5SAPS   HN2  535   3.974   5.095  11.044  1.3651 -1.3272  0.8887
    5SAPS   HN3  536   3.975   4.937  11.076 -2.2832  0.0308  0.2476
    5SAPS   C12  537   3.811   4.992  10.962  0.3873  0.5786  0.3685
    5SAPS  H12A  538   3.803   4.903  10.900  3.0675  0.4128  0.1161
    5SAPS   C13  539   3.712   4.974  11.076 -0.7779  0.0615 -0.1541
    5SAPS  O13A  540   3.762   4.952  11.188  0.2566 -0.4760  0.1931
    5SAPS  O13B  541   3.586   4.961  11.052  0.0141 -0.0331 -0.4605
    5SAPS   C11  542   3.764   5.114  10.876 -0.2894  0.5708  0.9333
    5SAPS  H11A  543   3.777   5.207  10.936 -2.0792  1.2655  0.3145
    5SAPS  H11B  544   3.659   5.095  10.844  0.4227 -1.8710 -0.1287
    5SAPS     P  545   3.845   5.226  10.638  0.5255  0.3758  0.3546
    5SAPS   O13  546   3.864   5.365  10.674 -0.0770 -0.1215 -0.1553
    5SAPS   O14  547   3.936   5.165  10.540  0.4562 -0.1975  0.5132
    5SAPS   O12  548   3.846   5.128  10.756 -0.4372 -0.1018  0.6950
    5SAPS   O11  549   3.688   5.209  10.584  0.5327  0.0324  0.3148
    5SAPS    C1  550   3.643   5.087  10.529  0.0055  0.0781  0.0729
    5SAPS    HA  551   3.670   4.998  10.589 -0.8082 -0.0583  0.2568
    5SAPS    HB  552   3.532   5.083  10.535  0.1389 -1.2883  2.7213
    5SAPS    C2  553   3.670   5.063  10.371 -0.5810 -0.9351 -0.6852
    5SAPS    HS  554   3.779   5.055  10.349  0.0995  0.8940  1.5533
    5SAPS   O21  555   3.599   5.171  10.299 -0.2032  0.1105 -0.4980
    5SAPS   C21  556   3.678   5.236  10.213  0.0271  0.0199 -0.7965
    5SAPS   O22  557   3.799   5.230  10.208  0.0242  0.3900  0.2608
    5SAPS   C22  558   3.601   5.337  10.130 -0.3627 -0.1733  0.4344
    5SAPS   H2R  559   3.507   5.291  10.093 -0.8264  1.2935 -0.2612
    5SAPS   H2S  560   3.571   5.416  10.202  0.8967 -1.3967  2.4075
    5SAPS    C3  561   3.611   4.925  10.331 -0.3609  0.0407 -0.5871
    5SAPS    HX  562   3.512   4.920  10.381 -1.4463 -0.4517 -2.6626
    5SAPS    HY  563   3.672   4.839  10.364 -0.5215  0.1053 -0.1154
    5SAPS   O31  564   3.603   4.911  10.186  0.3394 -0.5648 -0.8524
    5SAPS   C31  565   3.521   4.820  10.142  0.5137  1.0850 -0.8648
    5SAPS   O32  566   3.457   4.743  10.217  0.3446 -0.2409  0.1122
    5SAPS   C32  567   3.516   4.818   9.988 -0.0850 -0.2864  0.3026
    5SAPS   H2X  568   3.444   4.892   9.948  1.9160  0.6349 -1.8208
    5SAPS   H2Y  569   3.501   4.718   9.943 -0.3714  0.4933 -1.3954
    5SAPS   C23  570   3.688   5.400  10.010 -0.4497 -0.0111 -0.6640
    5SAPS   H3R  571   3.759   5.459  10.072 -2.3624  1.2652  0.4274
    5SAPS   H3S  572   3.631   5.490   9.978  0.8271  0.9839 -0.2045
    5SAPS   C24  573   3.756   5.305   9.910  0.2965  0.1148 -0.3960
    5SAPS   H4R  574   3.680   5.267   9.838 -1.3928  1.2091  0.7379
    5SAPS   H4S  575   3.786   5.214   9.966 -2.4417 -0.8333 -0.3174
    5SAPS   C25  576   3.876   5.376   9.848 -0.1663  1.3457  0.5693
    5SAPS   H5R  577   3.949   5.420   9.917  0.3771  2.1530 -0.4803
    5SAPS   C26  578   3.899   5.399   9.715 -0.2842  0.6671  0.0676
    5SAPS   H6R  579   3.995   5.440   9.680 -0.5270  0.8854 -0.3536
    5SAPS   C27  580   3.812   5.365   9.595 -0.3439 -0.8368  0.2091
    5SAPS   H7R  581   3.781   5.259   9.599 -0.3454 -0.8186  2.5578
    5SAPS   H7S  582   3.878   5.371   9.507  0.1216 -0.5901  0.5699
    5SAPS   C28  583   3.676   5.443   9.582 -0.4922 -0.1092 -0.2537
    5SAPS   H8R  584   3.647   5.489   9.678  1.0262 -0.3110  0.3259
    5SAPS   C29  585   3.605   5.461   9.474 -0.0243 -0.4431  0.0647
    5SAPS   H9R  586   3.514   5.521   9.489 -0.0744 -0.7033  0.8041
    5SAPS  C210  587   3.629   5.405   9.340 -1.4457 -0.5597  0.3293
    5SAPS  H10R  588   3.628   5.294   9.342 -1.3778 -0.5592  0.4216
    5SAPS  H10S  589   3.735   5.436   9.325 -2.0775  2.1941  0.9774
    5SAPS  C211  590   3.536   5.466   9.234  0.0798 -0.1389 -0.2339
    5SAPS  H11R  591   3.446   5.521   9.266 -0.1976 -1.8320  2.1761
    5SAPS  C212  592   3.553   5.443   9.099 -0.0221  0.1702  0.0185
    5SAPS  H12R  593   3.481   5.503   9.042 -0.7050  1.6835  2.2969
    5SAPS  C213  594   3.653   5.352   9.039  0.1566  0.1613  0.5691
    5SAPS  H13R  595   3.603   5.253   9.046  0.1039 -0.0063 -1.4506
    5SAPS  H13S  596   3.755   5.351   9.082  0.7032 -2.4908 -0.6060
    5SAPS  C214  597   3.651   5.398   8.896 -0.2599  0.0435  0.5106
    5SAPS  H14R  598   3.672   5.505   8.881  1.3759 -0.4491 -1.0730
    5SAPS  C215  599   3.647   5.319   8.789 -0.1699  0.2187 -0.0122
    5SAPS  H15R  600   3.635   5.364   8.690  0.6011 -2.0502 -1.2143
    5SAPS  C216  601   3.644   5.169   8.770  0.4202 -0.0416 -0.2756
    5SAPS  H16R  602   3.540   5.134   8.790  0.0735  1.3487  0.4897
    5SAPS  H16S  603   3.731   5.133   8.830 -0.9679 -2.2226  0.5684
    5SAPS  C217  604   3.663   5.132   8.625 -0.7591 -0.0312 -0.0143
    5SAPS  H17R  605   3.668   5.022   8.614  1.3666 -0.0564  0.9316
    5SAPS  H17S  606   3.762   5.174   8.600 -0.2582  0.3160  2.3585
    5SAPS  C218  607   3.575   5.177   8.506 -0.6523 -0.1343  0.4408
    5SAPS  H18R  608   3.588   5.285   8.486  2.9946 -0.9796 -2.9856
    5SAPS  H18S  609   3.614   5.133   8.412 -1.4028  0.5592 -0.2054
    5SAPS  C219  610   3.425   5.140   8.519  0.4671 -0.2853 -0.5788
    5SAPS  H19R  611   3.388   5.198   8.606 -0.5017  2.2114 -2.5120
    5SAPS  H19S  612   3.415   5.035   8.551 -0.2484 -0.8292 -2.4335
    5SAPS  C220  613   3.337   5.178   8.393 -0.9978  0.1354 -0.3803
    5SAPS  H20R  614   3.235   5.204   8.430 -1.5935  0.3108 -2.0806
    5SAPS  H20S  615   3.320   5.096   8.321 -2.9732  0.4690 -0.3491
    5SAPS  H20T  616   3.394   5.256   8.338 -0.1417 -0.2033  0.0075
    5SAPS   C33  617   3.643   4.838   9.913  0.4103  0.9845  0.2844
    5SAPS   H3X  618   3.708   4.753   9.942  1.1385  0.7306 -1.8961
    5SAPS   H3Y  619   3.685   4.937   9.939  1.2301  0.9183 -0.7242
    5SAPS   C34  620   3.636   4.829   9.761 -0.1008  0.5322  0.2503
    5SAPS   H4X  621   3.586   4.737   9.724  1.4176  0.2656 -1.3104
    5SAPS   H4Y  622   3.732   4.840   9.705  0.4933  0.3518  1.2098
    5SAPS   C35  623   3.572   4.961   9.707 -0.1490  0.0343 -0.2718
    5SAPS   H5X  624   3.644   5.039   9.741  0.9314 -0.8847 -0.3725
    5SAPS   H5Y  625   3.474   4.972   9.758  0.7245 -0.7880  1.6823
    5SAPS   C36  626   3.558   4.956   9.555 -0.0081 -0.4697  0.4153
    5SAPS   H6X  627   3.533   4.851   9.526  0.8381 -1.5749  3.2960
    5SAPS   H6Y  628   3.662   4.968   9.520 -0.2732 -0.1784 -0.2875
    5SAPS   C37  629   3.458   5.046   9.480 -0.0647  0.3000  0.5633
    5SAPS   H7X  630   3.484   5.152   9.501 -1.4502  0.7631  0.0544
    5SAPS   H7Y  631   3.355   5.018   9.510 -0.4595  1.2484  0.1019
    5SAPS   C38  632   3.466   5.024   9.324 -0.0956 -0.4596 -0.0407
    5SAPS   H8X  633   3.428   4.923   9.300 -0.0791 -0.5033  0.1189
    5SAPS   H8Y  634   3.574   5.024   9.298 -0.2479  0.4859 -0.7662
    5SAPS   C39  635   3.373   5.117   9.244 -0.3925  0.2385 -0.2164
    5SAPS   H9X  636   3.426   5.211   9.218 -0.6163  0.1560 -1.0174
    5SAPS   H9Y  637   3.283   5.141   9.305  0.3319  2.9612 -0.1162
    5SAPS  C310  638   3.336   5.048   9.117 -0.3401 -0.2412  0.4877
    5SAPS  H10X  639   3.286   4.954   9.149  0.4683 -0.4143  1.2921
    5SAPS  H10Y  640   3.432   5.026   9.065 -1.9847 -0.7117 -2.5995
    5SAPS  C311  641   3.244   5.140   9.031  0.4222  0.0677  0.5875
    5SAPS  H11X  642   3.295   5.238   9.014  3.2136 -1.4769 -0.6428
    5SAPS  H11Y  643   3.150   5.144   9.089 -2.2756 -2.8433 -3.0766
    5SAPS  C312  644   3.224   5.083   8.892  0.1125 -0.3271  0.9029
    5SAPS  H12X  645   3.229   4.972   8.902 -2.0713 -0.4730  0.8023
    5SAPS  H12Y  646   3.299   5.111   8.816  0.3739 -0.7205  1.0089
    5SAPS  C313  647   3.078   5.122   8.844 -0.7891 -0.5041 -0.9865
    5SAPS  H13X  648   3.063   5.233   8.845 -1.1501 -0.5465 -0.0308
    5SAPS  H13Y  649   3.004   5.087   8.919 -2.2114  0.5755 -1.8219
    5SAPS  C314  650   3.037   5.062   8.709 -0.0586 -0.1403 -0.1126
    5SAPS  H14X  651   3.105   5.109   8.634  0.8888 -1.5277 -0.1776
    5SAPS  H14Y  652   2.933   5.083   8.677 -0.3168 -1.1145  0.0548
    5SAPS  C315  653   3.059   4.911   8.709 -0.5400 -0.4219  0.1276
    5SAPS  H15X  654   3.024   4.876   8.809  0.2770 -0.8495  0.2697
    5SAPS  H15Y  655   3.163   4.884   8.681 -1.4227 -0.6583 -3.4368
    5SAPS  C316  656   2.981   4.848   8.590 -0.3115  0.0189 -0.1143
    5SAPS  H16X  657   3.014   4.900   8.497 -2.3917  1.9161  0.1290
    5SAPS  H16Y  658   2.873   4.865   8.606 -0.4675 -1.8195  0.9826
    5SAPS  C317  659   3.018   4.700   8.582 -0.3169  0.0175  0.1235
    5SAPS  H17X  660   3.126   4.690   8.555 -0.3154  1.1563 -0.3344
    5SAPS  H17Y  661   2.963   4.646   8.502 -1.7009 -0.9818  1.6808
    5SAPS  C318  662   2.986   4.625   8.719  0.4780 -0.5418  0.1347
    5SAPS  H18X  663   2.882   4.647   8.750  1.1407  3.6346  0.0219
    5SAPS  H18Y  664   3.049   4.664   8.802 -1.3804  0.2468  1.2247
    5SAPS  H18Z  665   2.998   4.515   8.712  1.1124 -0.4869  0.2283
    6SAPS     N  666   3.157   4.507  11.126  0.1811 -0.5075 -0.1263
    6SAPS   HN1  667   3.148   4.600  11.079  4.6003  0.3816  0.3392
    6SAPS   HN2  668   3.138   4.532  11.225 -1.0261 -1.2980 -0.1427
    6SAPS   HN3  669   3.256   4.476  11.121  0.2456 -0.1188 -1.8037
    6SAPS   C12  670   3.059   4.402  11.076  0.3498  0.2830 -0.8535
    6SAPS  H12A  671   3.085   4.302  11.108 -0.2180  0.0614 -1.0653
    6SAPS   C13  672   2.911   4.419  11.117 -0.2315 -0.2354  0.1499
    6SAPS  O13A  673   2.874   4.533  11.150 -1.0720  0.0839  0.5850
    6SAPS  O13B  674   2.826   4.338  11.065 -0.2411 -0.4345  0.3708
    6SAPS   C11  675   3.060   4.406  10.924  0.4317  0.4434  0.2517
    6SAPS  H11A  676   3.056   4.512  10.892  0.4536  0.8359  1.4838
    6SAPS  H11B  677   2.977   4.353  10.874  1.7399 -1.1650 -0.3262
    6SAPS     P  678   3.204   4.196  10.855 -0.0761  0.1382 -0.2297
    6SAPS   O13  679   3.332   4.149  10.913 -0.1321  0.1733  0.3148
    6SAPS   O14  680   3.081   4.125  10.878 -0.3935 -0.2187 -0.1726
    6SAPS   O12  681   3.179   4.346  10.874  0.7691 -0.1113  0.5988
    6SAPS   O11  682   3.229   4.200  10.693 -0.0580  0.5771  0.5131
    6SAPS    C1  683   3.344   4.261  10.636  0.1963 -0.0629 -0.4070
    6SAPS    HA  684   3.383   4.347  10.695 -0.7462 -0.3961  0.7412
    6SAPS    HB  685   3.427   4.186  10.638  0.1299 -0.1594 -1.2009
    6SAPS    C2  686   3.319   4.297  10.498  0.5405  0.5180  0.0401
    6SAPS    HS  687   3.228   4.359  10.487 -0.1149 -0.5083 -0.3999
    6SAPS   O21  688   3.303   4.174  10.426 -0.2512  0.1849 -0.1936
    6SAPS   C21  689   3.198   4.170  10.348 -0.3016  0.7193 -0.3691
    6SAPS   O22  690   3.120   4.258  10.325  0.1778  0.0863  0.3685
    6SAPS   C22  691   3.182   4.025  10.308  0.5823  0.3453 -0.5937
    6SAPS   H2R  692   3.280   3.985  10.275  0.0968 -1.7508  0.3486
    6SAPS   H2S  693   3.169   3.976  10.407 -0.7237 -0.9518 -1.3614
    6SAPS    C3  694   3.431   4.387  10.440 -0.4222 -0.5384 -0.5493
    6SAPS    HX  695   3.525   4.329  10.452 -0.7733 -0.7628  1.4510
    6SAPS    HY  696   3.445   4.483  10.494 -0.0770 -0.3349 -0.9963
    6SAPS   O31  697   3.405   4.400  10.303  0.7805 -0.7089 -0.1603
    6SAPS   C31  698   3.320   4.495  10.270  0.1057 -0.1509  0.5200
    6SAPS   O32  699   3.262   4.575  10.340 -0.0855 -0.0140 -0.5792
    6SAPS   C32  700   3.297   4.484  10.117 -0.3523  0.0100 -0.8531
    6SAPS   H2X  701   3.346   4.577  10.079 -0.7139  0.2698 -0.6878
    6SAPS   H2Y  702   3.190   4.489  10.089 -0.7297  0.7920  0.6266
    6SAPS   C23  703   3.063   4.003  10.210 -0.8033 -0.1970  0.1925
    6SAPS   H3R  704   2.963   4.047  10.227 -0.6554  0.2322 -0.0453
    6SAPS   H3S  705   3.035   3.897  10.231 -2.3278  0.9707  5.9108
    6SAPS   C24  706   3.116   4.018  10.067  0.0049 -0.0586  0.8737
    6SAPS   H4R  707   3.222   3.987  10.071 -0.6677 -2.8538 -0.1493
    6SAPS   H4S  708   3.114   4.128  10.055 -1.4455 -0.0033  1.3985
    6SAPS   C25  709   3.043   3.946   9.952  0.0571 -0.1611  0.4661
    6SAPS   H5R  710   2.950   3.893   9.978  0.1456 -0.3315  0.4336
    6SAPS   C26  711   3.086   3.944   9.824  0.3045 -0.2087 -0.9142
    6SAPS   H6R  712   3.025   3.893   9.748  1.2639 -1.7180 -0.7120
    6SAPS   C27  713   3.210   4.016   9.780  0.1324  0.1676  0.0138
    6SAPS   H7R  714   3.284   3.940   9.747  1.0374  0.8341  0.4761
    6SAPS   H7S  715   3.271   4.057   9.862 -1.3670  1.2011  0.6581
    6SAPS   C28  716   3.177   4.118   9.680 -0.6309  0.3007  0.1282
    6SAPS   H8R  717   3.087   4.178   9.702 -0.8896 -0.3267  0.8411
    6SAPS   C29  718   3.248   4.131   9.568 -0.6121  0.1501  0.2239
    6SAPS   H9R  719   3.226   4.221   9.509  0.3682  0.8536  0.8772
    6SAPS  C210  720   3.359   4.036   9.522  0.9110  0.6423 -0.0009
    6SAPS  H10R  721   3.362   4.050   9.411 -0.6607  0.3392 -0.1090
    6SAPS  H10S  722   3.318   3.934   9.538  0.0520  0.9356 -0.2838
    6SAPS  C211  723   3.495   4.047   9.592 -0.2866  0.1695  0.3457
    6SAPS  H11R  724   3.498   3.977   9.677  1.5659 -0.9943 -0.6217
    6SAPS  C212  725   3.602   4.105   9.538 -0.3746  0.2286 -0.0542
    6SAPS  H12R  726   3.694   4.092   9.598 -1.1661  0.3197  1.2236
    6SAPS  C213  727   3.621   4.170   9.404 -0.1207 -0.5823 -0.2686
    6SAPS  H13R  728   3.726   4.207   9.407 -0.2351  0.0224  4.2367
    6SAPS  H13S  729   3.554   4.259   9.401  0.6194 -0.0393 -1.2759
    6SAPS  C214  730   3.606   4.085   9.279  0.5262  0.5839 -0.7020
    6SAPS  H14R  731   3.571   3.982   9.290 -0.6588  0.7465 -2.5109
    6SAPS  C215  732   3.638   4.102   9.146 -0.6817 -0.2012 -0.6206
    6SAPS  H15R  733   3.611   4.036   9.063  1.1272  0.4759 -1.8100
    6SAPS  C216  734   3.709   4.228   9.098  0.4002  1.1345  0.0001
    6SAPS  H16R  735   3.817   4.205   9.083 -0.3973 -2.4260 -1.4794
    6SAPS  H16S  736   3.702   4.323   9.155  0.5735  0.7013  0.7599
    6SAPS  C217  737   3.683   4.263   8.954  1.0823 -0.4959  0.7365
    6SAPS  H17R  738   3.758   4.339   8.922  0.3793 -0.2487 -0.3986
    6SAPS  H17S  739   3.588   4.320   8.946 -0.6857 -3.4736 -1.8774
    6SAPS  C218  740   3.685   4.159   8.848  0.3996  0.4610 -0.7407
    6SAPS  H18R  741   3.584   4.111   8.848  0.4674 -0.1209 -5.1413
    6SAPS  H18S  742   3.763   4.082   8.865 -0.1482  0.3342  1.4546
    6SAPS  C219  743   3.705   4.206   8.697 -0.2166 -0.5677  0.4129
    6SAPS  H19R  744   3.615   4.262   8.663 -0.0680 -1.8874 -2.4542
    6SAPS  H19S  745   3.691   4.124   8.624 -0.0342  1.0710 -1.5701
    6SAPS  C220  746   3.839   4.273   8.666 -0.2558 -0.3489 -0.3092
    6SAPS  H20R  747   3.868   4.247   8.562  3.5602 -1.8659  0.9386
    6SAPS  H20S  748   3.927   4.240   8.725  1.7474  1.8734 -1.8991
    6SAPS  H20T  749   3.832   4.382   8.686  1.8589 -0.2041 -0.1845
    6SAPS   C33  750   3.360   4.362  10.048 -0.7819 -0.2903 -0.2863
    6SAPS   H3X  751   3.325   4.265  10.091  4.0633 -1.9858  0.4863
    6SAPS   H3Y  752   3.471   4.368  10.052 -0.8840  2.1238  0.8422
    6SAPS   C34  753   3.316   4.359   9.900  0.5780 -0.6253 -0.4012
    6SAPS   H4X  754   3.208   4.341   9.880  0.2359  1.8804 -1.1603
    6SAPS   H4Y  755   3.376   4.275   9.859  1.1857 -2.1752  3.2628
    6SAPS   C35  756   3.359   4.481   9.813  0.3105 -0.3974  1.0256
    6SAPS   H5X  757   3.468   4.503   9.811  0.2722 -0.2064 -0.4049
    6SAPS   H5Y  758   3.303   4.568   9.855  0.3644  0.3006 -0.2978
    6SAPS   C36  759   3.328   4.455   9.667  0.0003 -0.1277  0.0840
    6SAPS   H6X  760   3.219   4.437   9.653  0.1783 -2.1431  0.8875
    6SAPS   H6Y  761   3.384   4.363   9.637  2.3780  0.2047  3.0358
    6SAPS   C37  762   3.376   4.581   9.581 -0.2883  0.3523 -0.2997
    6SAPS   H7X  763   3.485   4.588   9.600 -0.6055  1.7537  1.2229
    6SAPS   H7Y  764   3.335   4.671   9.632 -2.4794 -1.1730  0.7764
    6SAPS   C38  765   3.345   4.576   9.428  0.2393 -0.0165  0.5793
    6SAPS   H8X  766   3.380   4.481   9.382  0.7076  0.1793  0.5283
    6SAPS   H8Y  767   3.389   4.668   9.386  2.2633 -0.9650  0.5112
    6SAPS   C39  768   3.193   4.587   9.402 -0.0275 -0.3330 -0.5906
    6SAPS   H9X  769   3.149   4.653   9.480  2.0980 -0.5309  0.8938
    6SAPS   H9Y  770   3.142   4.488   9.412  3.2040 -1.9728  1.8049
    6SAPS  C310  771   3.157   4.645   9.273  0.3378  0.0964 -0.0638
    6SAPS  H10X  772   3.197   4.749   9.278 -0.1586  0.2143  2.7462
    6SAPS  H10Y  773   3.046   4.639   9.265  0.3871  0.3147 -1.1313
    6SAPS  C311  774   3.229   4.589   9.147 -0.5113  0.0805 -1.1131
    6SAPS  H11X  775   3.338   4.590   9.172 -1.1690 -0.7560  2.4459
    6SAPS  H11Y  776   3.214   4.642   9.051  1.4056 -0.6247 -1.8609
    6SAPS  C312  777   3.209   4.435   9.124  0.1615  0.2110 -0.2134
    6SAPS  H12X  778   3.101   4.414   9.115 -0.2899  2.9318 -2.5978
    6SAPS  H12Y  779   3.241   4.380   9.215  0.0354  0.7834  0.1758
    6SAPS  C313  780   3.286   4.372   9.008  0.7788 -0.7058 -0.0543
    6SAPS  H13X  781   3.392   4.406   9.006  0.6528 -0.2648  0.5442
    6SAPS  H13Y  782   3.246   4.421   8.917  0.5190 -2.1672 -0.7541
    6SAPS  C314  783   3.267   4.224   8.990 -0.8346  0.5906  0.3579
    6SAPS  H14X  784   3.317   4.170   9.073 -2.4181 -1.2103  0.2115
    6SAPS  H14Y  785   3.316   4.195   8.894 -0.5156  1.5890  0.2134
    6SAPS  C315  786   3.117   4.172   8.980 -0.5234 -0.2267  1.0313
    6SAPS  H15X  787   3.044   4.196   9.060 -0.6128 -1.7692  1.4402
    6SAPS  H15Y  788   3.121   4.062   8.968  1.4457 -0.0311 -0.6805
    6SAPS  C316  789   3.047   4.217   8.848  0.8406 -0.0041 -0.4156
    6SAPS  H16X  790   3.116   4.184   8.767  1.1878 -0.8967  0.2382
    6SAPS  H16Y  791   3.058   4.328   8.850  0.5523  0.0162  0.1282
    6SAPS  C317  792   2.905   4.171   8.842 -0.5505  0.2299  0.0418
    6SAPS  H17X  793   2.855   4.193   8.939  0.1846  0.1007  0.4520
    6SAPS  H17Y  794   2.903   4.064   8.811  3.7233 -0.1303  0.4518
    6SAPS  C318  795   2.823   4.241   8.729  0.2582 -0.1864 -0.1186
    6SAPS  H18X  796   2.806   4.348   8.755 -1.8411  0.3322 -3.0907
    6SAPS  H18Y  797   2.719   4.201   8.718 -0.2693  0.7895  1.0814
    6SAPS  H18Z  798   2.867   4.241   8.627 -1.4473  1.4134 -0.9245
    7SAPS     N  799   0.838   4.532  10.642 -0.8642 -0.4142  0.0867
    7SAPS   HN1  800   0.785   4.613  10.604 -4.2141 -0.7449  3.4177
    7SAPS   HN2  801   0.906   4.576  10.707 -0.4450 -0.0057 -0.6137
    7SAPS   HN3  802   0.883   4.473  10.570  1.9148  0.4508  1.0108
    7SAPS   C12  803   0.729   4.449  10.709 -0.1760  0.4406 -0.3567
    7SAPS  H12A  804   0.687   4.384  10.634 -1.7298 -0.0241  0.8569
    7SAPS   C13  805   0.786   4.349  10.821 -0.3327  0.3840 -0.6764
    7SAPS  O13A  806   0.904   4.348  10.855 -0.2045  0.2015  0.3434
    7SAPS  O13B  807   0.695   4.271  10.861 -0.3852  0.2970 -0.2313
    7SAPS   C11  808   0.617   4.535  10.783  0.3331 -0.2690  0.4667
    7SAPS  H11A  809   0.660   4.569  10.879  0.6416  2.5618 -0.5737
    7SAPS  H11B  810   0.536   4.461  10.799  0.1504 -0.7348 -2.0965
    7SAPS     P  811   0.428   4.691  10.698 -0.0535 -0.5461 -0.0527
    7SAPS   O13  812   0.386   4.720  10.838 -0.8241 -0.3704  0.2674
    7SAPS   O14  813   0.408   4.800  10.603  0.1341 -0.2919  0.0484
    7SAPS   O12  814   0.585   4.650  10.706  0.3724 -0.5342 -0.3879
    7SAPS   O11  815   0.355   4.558  10.655  0.2747 -0.4554 -0.2490
    7SAPS    C1  816   0.381   4.482  10.537  0.0075 -0.0438  0.2193
    7SAPS    HA  817   0.491   4.476  10.520  0.0079  0.3875  0.0466
    7SAPS    HB  818   0.338   4.381  10.546 -1.7560  0.8360  3.0458
    7SAPS    C2  819   0.324   4.550  10.408 -0.2128  0.0389 -0.3037
    7SAPS    HS  820   0.390   4.633  10.375 -0.1495 -0.2743 -0.9824
    7SAPS   O21  821   0.183   4.595  10.430  0.0631  0.4256  0.0663
    7SAPS   C21  822   0.143   4.703  10.357 -0.8196 -0.4391  0.3347
    7SAPS   O22  823   0.214   4.765  10.281 -0.3055  0.3721  0.1814
    7SAPS   C22  824  -0.001   4.729  10.389 -0.0748 -0.1203 -0.7720
    7SAPS   H2R  825  -0.047   4.647  10.447 -0.5719  0.9176  0.3490
    7SAPS   H2S  826   0.011   4.813  10.461 -1.8785  1.2502 -2.0053
    7SAPS    C3  827   0.329   4.451  10.283  0.7452 -0.2502  0.0862
    7SAPS    HX  828   0.243   4.384  10.301  0.4988 -0.1631 -0.7385
    7SAPS    HY  829   0.426   4.396  10.287  0.4231 -0.8522 -0.2122
    7SAPS   O31  830   0.303   4.519  10.153 -0.1645  0.5934 -0.0756
    7SAPS   C31  831   0.405   4.588  10.101  0.5915  0.2103  0.0901
    7SAPS   O32  832   0.515   4.586  10.147  0.2856 -0.2884 -0.2664
    7SAPS   C32  833   0.357   4.665   9.974  0.2811  0.3139 -0.0321
    7SAPS   H2X  834   0.247   4.654   9.970  0.3736 -1.0552  0.4885
    7SAPS   H2Y  835   0.409   4.623   9.886  0.9119 -0.2780  0.6071
    7SAPS   C23  836  -0.082   4.745  10.263 -0.0565 -0.4834 -0.5328
    7SAPS   H3R  837  -0.032   4.810  10.188 -0.9515 -1.9508 -2.4811
    7SAPS   H3S  838  -0.173   4.802  10.292  1.2084  1.3031  0.1568
    7SAPS   C24  839  -0.104   4.615  10.193 -0.0950 -0.4917 -0.4308
    7SAPS   H4R  840  -0.013   4.552  10.197 -0.4306 -0.9912 -0.4712
    7SAPS   H4S  841  -0.112   4.639  10.085  0.6398 -0.3768 -0.4602
    7SAPS   C25  842  -0.222   4.535  10.243 -0.2968 -0.2862 -0.3944
    7SAPS   H5R  843  -0.225   4.495  10.345 -3.5796 -0.9432 -0.6284
    7SAPS   C26  844  -0.341   4.533  10.179 -0.5430  1.3046  0.5564
    7SAPS   H6R  845  -0.407   4.447  10.200  1.7882 -0.2596  1.8631
    7SAPS   C27  846  -0.369   4.604  10.049  0.6879 -0.4069 -1.2569
    7SAPS   H7R  847  -0.306   4.695  10.044 -1.3352  1.1063 -0.7059
    7SAPS   H7S  848  -0.470   4.648  10.067  1.5007  0.6965  0.8518
    7SAPS   C28  849  -0.358   4.528   9.928 -0.5983  0.5592  0.5289
    7SAPS   H8R  850  -0.405   4.429   9.927  2.1910 -0.8500  0.3448
    7SAPS   C29  851  -0.294   4.570   9.813  0.9969  0.2994  0.0118
    7SAPS   H9R  852  -0.289   4.493   9.734 -1.2986 -0.0222  0.1006
    7SAPS  C210  853  -0.232   4.705   9.781  0.1823  0.0224  0.0531
    7SAPS  H10R  854  -0.155   4.719   9.860  0.2976 -1.0863  0.1654
    7SAPS  H10S  855  -0.306   4.787   9.790 -1.3523 -0.9592 -2.4700
    7SAPS  C211  856  -0.159   4.709   9.651  0.2885  0.8495  0.3212
    7SAPS  H11R  857  -0.060   4.662   9.654 -0.1229 -0.2335 -1.5210
    7SAPS  C212  858  -0.222   4.725   9.532 -0.2788 -0.3107 -0.2867
    7SAPS  H12R  859  -0.157   4.725   9.443  2.1148 -0.8434  1.3514
    7SAPS  C213  860  -0.366   4.756   9.515 -0.1978 -0.1781 -0.1642
    7SAPS  H13R  861  -0.378   4.866   9.510  1.1883 -0.0163 -0.3066
    7SAPS  H13S  862  -0.427   4.721   9.601 -1.5614 -1.8724 -1.7271
    7SAPS  C214  863  -0.441   4.696   9.399 -0.3143 -0.1845  0.8298
    7SAPS  H14R  864  -0.497   4.603   9.419  0.1102 -0.5607  0.2860
    7SAPS  C215  865  -0.447   4.743   9.272  0.1153  0.6730 -0.8954
    7SAPS  H15R  866  -0.509   4.683   9.204 -1.0798 -1.0916  1.5872
    7SAPS  C216  867  -0.380   4.864   9.209  0.2686 -0.6007  0.1290
    7SAPS  H16R  868  -0.276   4.875   9.247  0.8192 -0.9091 -1.2545
    7SAPS  H16S  869  -0.436   4.949   9.255 -1.3339 -0.5370 -1.8408
    7SAPS  C217  870  -0.395   4.890   9.059  0.0055 -0.0667  0.1640
    7SAPS  H17R  871  -0.333   4.807   9.018 -0.8396 -1.0022  0.7243
    7SAPS  H17S  872  -0.344   4.985   9.033  0.2392 -0.7243 -1.9411
    7SAPS  C218  873  -0.539   4.886   9.009  0.5929 -0.5667 -0.3523
    7SAPS  H18R  874  -0.606   4.948   9.072  1.8477 -0.6060  1.0667
    7SAPS  H18S  875  -0.581   4.786   9.033 -1.3962  0.0183 -1.1437
    7SAPS  C219  876  -0.546   4.921   8.857 -0.0117 -0.0347 -0.1503
    7SAPS  H19R  877  -0.504   4.831   8.808 -1.0710 -0.6143 -0.0291
    7SAPS  H19S  878  -0.486   5.013   8.838  0.2753 -0.5118 -1.6661
    7SAPS  C220  879  -0.695   4.927   8.806 -1.2327 -0.1300 -0.0400
    7SAPS  H20R  880  -0.753   4.849   8.859 -1.9631 -0.8787 -1.8528
    7SAPS  H20S  881  -0.702   4.898   8.699 -0.5384  1.1084 -0.4462
    7SAPS  H20T  882  -0.741   5.028   8.811  0.4144  0.5906  2.8575
    7SAPS   C33  883   0.391   4.817   9.989  0.2849 -0.4314  0.4969
    7SAPS   H3X  884   0.499   4.830  10.010 -0.0045 -0.7093  2.2955
    7SAPS   H3Y  885   0.337   4.872  10.069  0.8408 -1.4215  1.5951
    7SAPS   C34  886   0.370   4.902   9.861  0.5676  0.3352 -0.6571
    7SAPS   H4X  887   0.375   4.842   9.768 -3.1337  0.6016 -1.1635
    7SAPS   H4Y  888   0.457   4.972   9.867  0.0880  0.8009  1.5602
    7SAPS   C35  889   0.232   4.979   9.865 -0.5854 -0.2348 -0.3657
    7SAPS   H5X  890   0.238   5.052   9.948  2.7218 -0.8820  0.1016
    7SAPS   H5Y  891   0.154   4.905   9.893  0.1144 -0.6778  0.4740
    7SAPS   C36  892   0.197   5.050   9.733 -0.1415  0.4145  0.0572
    7SAPS   H6X  893   0.285   5.107   9.693  1.0345  1.2085  3.4549
    7SAPS   H6Y  894   0.124   5.127   9.765 -0.4533 -0.2606  1.0101
    7SAPS   C37  895   0.125   4.965   9.630 -0.0496 -0.0239  0.2455
    7SAPS   H7X  896   0.028   4.931   9.672 -1.0041 -0.1673 -1.9165
    7SAPS   H7Y  897   0.173   4.867   9.607  1.0590  0.4281  0.5488
    7SAPS   C38  898   0.107   5.038   9.500 -0.3851  0.5411  0.3199
    7SAPS   H8X  899   0.208   5.073   9.471 -0.3357  0.4664  0.4026
    7SAPS   H8Y  900   0.032   5.119   9.517 -0.6493  0.3306  0.1708
    7SAPS   C39  901   0.061   4.943   9.384 -0.2967 -0.0941 -0.0644
    7SAPS   H9X  902  -0.033   4.895   9.420  0.8127 -0.5926  2.3812
    7SAPS   H9Y  903   0.137   4.862   9.383 -1.0051 -0.8103  0.9120
    7SAPS  C310  904   0.052   5.019   9.255 -0.6463  0.2564  0.4176
    7SAPS  H10X  905   0.150   5.069   9.241 -1.3257  1.0628 -1.7966
    7SAPS  H10Y  906  -0.022   5.100   9.270 -0.1445  0.7674  0.1609
    7SAPS  C311  907   0.013   4.939   9.127 -0.2152  0.4106 -0.2805
    7SAPS  H11X  908  -0.071   4.872   9.153  0.8744 -0.1129  2.1890
    7SAPS  H11Y  909   0.097   4.873   9.099 -1.1903 -2.0644  2.1888
    7SAPS  C312  910  -0.018   5.038   9.017  0.2245  0.0362  0.1221
    7SAPS  H12X  911  -0.104   5.099   9.050  2.0323  1.7000  2.0021
    7SAPS  H12Y  912  -0.041   4.981   8.924  1.2805  1.2229 -0.9075
    7SAPS  C313  913   0.090   5.141   8.979  0.0963  0.7158 -0.8731
    7SAPS  H13X  914   0.182   5.080   8.966 -1.2637 -2.1872  1.7927
    7SAPS  H13Y  915   0.120   5.207   9.063 -0.0049  2.6209 -2.2519
    7SAPS  C314  916   0.046   5.246   8.865  0.0329 -0.0060 -0.4061
    7SAPS  H14X  917   0.124   5.324   8.853 -0.7661  0.3931 -4.5602
    7SAPS  H14Y  918  -0.048   5.300   8.891 -1.3477 -2.9526  1.2217
    7SAPS  C315  919   0.031   5.195   8.720 -1.0970  0.4737 -0.6233
    7SAPS  H15X  920  -0.063   5.135   8.723  0.1850 -1.6182  0.4485
    7SAPS  H15Y  921   0.120   5.132   8.698 -1.1023 -0.5918  2.0759
    7SAPS  C316  922   0.016   5.310   8.621  0.5019 -0.2264  0.4341
    7SAPS  H16X  923   0.026   5.266   8.520 -2.3181 -0.2578  0.0985
    7SAPS  H16Y  924   0.102   5.380   8.627  0.1372  0.2808 -0.1953
    7SAPS  C317  925  -0.114   5.391   8.635  0.5650 -0.4902 -0.2778
    7SAPS  H17X  926  -0.116   5.440   8.735  1.0389  1.5190 -1.2206
    7SAPS  H17Y  927  -0.204   5.326   8.633  0.9596 -1.1302  1.2909
    7SAPS  C318  928  -0.129   5.492   8.521 -0.1283 -0.1684  0.0984
    7SAPS  H18X  929  -0.064   5.582   8.534 -0.0670 -0.1585 -0.2588
    7SAPS  H18Y  930  -0.225   5.547   8.531 -0.0910 -0.1649  0.4388
    7SAPS  H18Z  931  -0.110   5.442   8.424  4.1437 -1.1253  1.2331
    8SAPS     N  932   4.687   0.771  10.929  0.2472  0.2999 -0.4926
    8SAPS   HN1  933   4.608   0.778  10.996 -1.2544  1.5109 -2.2871
    8SAPS   HN2  934   4.663   0.831  10.848  1.0557 -0.0711 -1.0170
    8SAPS   HN3  935   4.708   0.677  10.889  3.0918  0.8562 -0.5191
    8SAPS   C12  936   4.816   0.827  10.983 -0.5716  0.1277  0.6264
    8SAPS  H12A  937   4.826   0.930  10.951  1.9455 -0.1870  0.1137
    8SAPS   C13  938   4.837   0.803  11.136  0.3284 -0.5743 -0.2708
    8SAPS  O13A  939   4.755   0.731  11.199  0.2486 -0.4732  0.5813
    8SAPS  O13B  940   4.946   0.841  11.192 -0.3182 -0.1582 -0.3961
    8SAPS   C11  941   4.924   0.746  10.898 -0.2532  1.0567  0.2620
    8SAPS  H11A  942   4.906   0.636  10.899  1.2040  0.7047 -2.3959
    8SAPS  H11B  943   5.024   0.737  10.945  0.0331  1.5198 -0.2434
    8SAPS     P  944   5.087   0.808  10.712  0.4184  0.1273  0.1694
    8SAPS   O13  945   5.143   0.936  10.763 -0.1510 -0.0232  0.1300
    8SAPS   O14  946   5.154   0.686  10.751  0.5719 -0.2448  0.1536
    8SAPS   O12  947   4.939   0.791  10.760  0.0259 -0.5555 -0.3659
    8SAPS   O11  948   5.070   0.821  10.550 -0.3405  0.2471  0.5811
    8SAPS    C1  949   4.970   0.733  10.492 -0.4758 -0.8763  0.0368
    8SAPS    HA  950   4.867   0.758  10.524 -0.8508  1.2574 -2.5550
    8SAPS    HB  951   4.977   0.754  10.384 -2.1394 -1.3260 -0.1842
    8SAPS    C2  952   5.001   0.585  10.501  0.1845  0.1606 -0.3238
    8SAPS    HS  953   4.986   0.563  10.609  0.5891  1.5639  0.0364
    8SAPS   O21  954   5.134   0.558  10.461  0.0851 -0.2594  0.4083
    8SAPS   C21  955   5.190   0.449  10.511  0.3823 -0.3964  0.5028
    8SAPS   O22  956   5.139   0.380  10.598 -0.2208  0.4121 -0.1049
    8SAPS   C22  957   5.302   0.411  10.418  0.9202 -0.3911  0.0141
    8SAPS   H2R  958   5.248   0.361  10.335 -0.3776  1.5246 -0.3566
    8SAPS   H2S  959   5.350   0.504  10.383  1.0100 -0.3863  0.1490
    8SAPS    C3  960   4.905   0.501  10.414 -1.1131 -0.5930  0.7640
    8SAPS    HX  961   4.803   0.511  10.458 -0.7558 -0.4355  1.5802
    8SAPS    HY  962   4.929   0.393  10.415 -2.3815 -0.8971  1.4608
    8SAPS   O31  963   4.898   0.551  10.278 -0.0331 -0.5372  0.5136
    8SAPS   C31  964   4.948   0.481  10.179  0.0974 -0.3688 -0.2822
    8SAPS   O32  965   4.999   0.370  10.188  0.5919 -0.9587 -0.2143
    8SAPS   C32  966   4.944   0.572  10.056  0.1242 -0.1791 -0.2360
    8SAPS   H2X  967   4.893   0.669  10.070 -1.8646 -0.9661 -1.5298
    8SAPS   H2Y  968   4.890   0.515   9.978 -2.6795  0.6228  1.0161
    8SAPS   C23  969   5.401   0.315  10.471 -0.2916 -0.1066  0.7100
    8SAPS   H3R  970   5.340   0.223  10.479 -3.5152  1.7657 -0.2901
    8SAPS   H3S  971   5.450   0.340  10.567  2.1267  0.8029 -0.6719
    8SAPS   C24  972   5.508   0.290  10.353  0.3345  0.7209 -0.6442
    8SAPS   H4R  973   5.442   0.254  10.271 -0.5024  0.4579  0.1225
    8SAPS   H4S  974   5.569   0.200  10.374 -2.2106 -1.0128 -0.1025
    8SAPS   C25  975   5.598   0.398  10.317 -0.1423  0.5321  1.1166
    8SAPS   H5R  976   5.678   0.438  10.382  0.7528 -0.8476  0.9090
    8SAPS   C26  977   5.583   0.465  10.200 -0.2192  0.4569  0.1191
    8SAPS   H6R  978   5.645   0.555  10.190 -0.7910  0.8196 -0.2417
    8SAPS   C27  979   5.479   0.429  10.092 -0.2003 -0.0670 -0.3204
    8SAPS   H7R  980   5.385   0.416  10.149  0.3888 -1.5713  0.3499
    8SAPS   H7S  981   5.502   0.329  10.051  1.0149  1.0229 -2.4686
    8SAPS   C28  982   5.459   0.534   9.991 -0.0024 -0.3460  0.3592
    8SAPS   H8R  983   5.448   0.631  10.041  1.2970 -0.3789  0.7486
    8SAPS   C29  984   5.448   0.516   9.860 -0.1689  0.1338 -0.4577
    8SAPS   H9R  985   5.411   0.610   9.815  0.1064  0.2229 -0.4975
    8SAPS  C210  986   5.441   0.389   9.785 -0.2327  1.0755  0.8292
    8SAPS  H10R  987   5.412   0.308   9.855 -2.4153 -0.0106 -1.1905
    8SAPS  H10S  988   5.543   0.372   9.743  1.1088  4.4435  2.3823
    8SAPS  C211  989   5.355   0.397   9.657  0.3056  0.4033 -0.4823
    8SAPS  H11R  990   5.259   0.449   9.665  0.0532  0.5209 -3.3364
    8SAPS  C212  991   5.381   0.358   9.529 -0.0183  0.4422  0.2514
    8SAPS  H12R  992   5.307   0.385   9.452  0.0362  1.6072  0.5868
    8SAPS  C213  993   5.502   0.286   9.485 -0.6061 -0.0241 -0.1286
    8SAPS  H13R  994   5.588   0.319   9.547  0.4600  0.8704 -2.0144
    8SAPS  H13S  995   5.526   0.327   9.385  1.2111  0.7941  0.5951
    8SAPS  C214  996   5.489   0.132   9.486  0.7449  0.1893 -1.0595
    8SAPS  H14R  997   5.468   0.081   9.581  0.9581  0.9536 -0.5926
    8SAPS  C215  998   5.511   0.055   9.376  0.0768 -0.1022  0.4315
    8SAPS  H15R  999   5.497  -0.054   9.382 -1.4987  0.1798  2.8834
    8SAPS  C216 1000   5.546   0.105   9.238  0.9440  0.2347 -0.1984
    8SAPS  H16R 1001   5.534   0.215   9.224 -0.3056  0.0511 -0.6984
    8SAPS  H16S 1002   5.474   0.066   9.163  0.8609  2.4982 -1.3856
    8SAPS  C217 1003   5.687   0.063   9.195  0.0857 -0.9614 -0.0952
    8SAPS  H17R 1004   5.721  -0.041   9.213  0.5602 -0.6930  0.6254
    8SAPS  H17S 1005   5.759   0.120   9.258 -0.4137  0.0138 -0.4013
    8SAPS  C218 1006   5.705   0.099   9.046 -0.0777  0.5381  0.1193
    8SAPS  H18R 1007   5.681   0.206   9.026  2.0669  1.1055  0.2320
    8SAPS  H18S 1008   5.643   0.035   8.981  1.4846 -0.3503 -0.5588
    8SAPS  C219 1009   5.850   0.094   8.996 -0.2729  0.2473  0.2509
    8SAPS  H19R 1010   5.887  -0.008   9.021 -1.0191 -0.5197 -1.6050
    8SAPS  H19S 1011   5.918   0.168   9.042  1.3875  1.1190 -3.2220
    8SAPS  C220 1012   5.861   0.105   8.842 -0.5896  0.2715 -0.2593
    8SAPS  H20R 1013   5.800   0.027   8.793 -0.8628 -1.1935  2.2110
    8SAPS  H20S 1014   5.964   0.080   8.809 -1.0331  0.4454 -1.8194
    8SAPS  H20T 1015   5.856   0.207   8.798  2.1100  0.0727 -1.1865
    8SAPS   C33 1016   5.090   0.586  10.012 -0.2913  0.1598  0.2517
    8SAPS   H3X 1017   5.091   0.627   9.909  0.3018  2.5401  1.1486
    8SAPS   H3Y 1018   5.146   0.490  10.004 -0.2308  0.2889 -1.0518
    8SAPS   C34 1019   5.158   0.689  10.096  0.3494 -0.4854 -0.0973
    8SAPS   H4X 1020   5.239   0.633  10.147  0.9253 -0.2629 -0.7397
    8SAPS   H4Y 1021   5.078   0.723  10.165 -1.1136 -0.6067 -1.6687
    8SAPS   C35 1022   5.221   0.812  10.036  0.1533  0.9027 -0.0414
    8SAPS   H5X 1023   5.302   0.793   9.961 -1.0923  0.4412 -1.3163
    8SAPS   H5Y 1024   5.279   0.855  10.120  0.5179 -2.8559  1.8109
    8SAPS   C36 1025   5.123   0.916   9.972 -0.1320  0.1001  0.2307
    8SAPS   H6X 1026   5.021   0.916  10.016  0.1018  0.0892  0.7796
    8SAPS   H6Y 1027   5.112   0.887   9.865 -2.2286 -1.9443  0.9013
    8SAPS   C37 1028   5.174   1.059   9.963 -0.1356 -0.2350 -0.3332
    8SAPS   H7X 1029   5.284   1.067   9.944  0.1689  1.5355  1.7641
    8SAPS   H7Y 1030   5.170   1.109  10.062 -0.1931  0.0586 -0.4821
    8SAPS   C38 1031   5.104   1.141   9.846 -0.5708  0.0645  0.1990
    8SAPS   H8X 1032   5.155   1.240   9.840 -0.7495  0.1388 -0.0843
    8SAPS   H8Y 1033   4.995   1.153   9.865 -0.7081 -0.9725  0.1336
    8SAPS   C39 1034   5.128   1.090   9.702 -0.4928 -0.1578 -0.5714
    8SAPS   H9X 1035   5.069   0.997   9.689 -0.9108  0.3860 -3.0015
    8SAPS   H9Y 1036   5.236   1.061   9.695 -0.6304 -1.3270  1.5049
    8SAPS  C310 1037   5.085   1.185   9.584  0.1841 -0.0559  0.3923
    8SAPS  H10X 1038   5.157   1.269   9.572 -0.3080  0.3154  0.0080
    8SAPS  H10Y 1039   4.999   1.244   9.622 -0.2114 -1.3524  1.6279
    8SAPS  C311 1040   5.070   1.120   9.450  0.0050  0.1112  0.2889
    8SAPS  H11X 1041   5.012   1.191   9.388 -0.6340 -0.0541  0.6935
    8SAPS  H11Y 1042   5.008   1.028   9.464  0.0121 -0.7126 -3.7948
    8SAPS  C312 1043   5.199   1.095   9.377  0.1940 -0.7866  0.0973
    8SAPS  H12X 1044   5.268   1.041   9.445  1.2212  2.5624  1.8910
    8SAPS  H12Y 1045   5.242   1.193   9.349 -2.9946  0.0340 -2.5858
    8SAPS  C313 1046   5.189   1.006   9.253  0.2779 -0.6127 -0.0624
    8SAPS  H13X 1047   5.094   1.025   9.197  1.9252 -0.4667 -2.9888
    8SAPS  H13Y 1048   5.180   0.899   9.283 -0.6745 -0.7091 -0.6407
    8SAPS  C314 1049   5.319   1.025   9.158 -0.1797 -0.3315  0.2075
    8SAPS  H14X 1050   5.412   1.010   9.216  0.4091 -0.2791 -0.7104
    8SAPS  H14Y 1051   5.320   1.131   9.125  0.6887  0.4149  2.4240
    8SAPS  C315 1052   5.345   0.919   9.053  0.0067 -0.1311  0.5135
    8SAPS  H15X 1053   5.257   0.907   8.988  0.9920  0.8095 -1.0484
    8SAPS  H15Y 1054   5.372   0.823   9.103  1.3421 -0.2589 -0.4184
    8SAPS  C316 1055   5.460   0.946   8.964  0.0381  0.0423 -1.2421
    8SAPS  H16X 1056   5.552   0.914   9.018 -0.1099  0.4248 -0.7674
    8SAPS  H16Y 1057   5.470   1.055   8.945  0.0467  0.3116  0.1956
    8SAPS  C317 1058   5.452   0.864   8.833  0.2781 -0.0541  0.1148
    8SAPS  H17X 1059   5.444   0.755   8.854  1.6746  0.1556  1.8932
    8SAPS  H17Y 1060   5.554   0.878   8.791  0.8390  1.9976  2.0033
    8SAPS  C318 1061   5.357   0.907   8.723  0.1437  0.2874 -0.4149
    8SAPS  H18X 1062   5.403   0.867   8.630 -0.0657  3.5262 -2.0672
    8SAPS  H18Y 1063   5.367   1.016   8.702  3.7808  0.2136  0.2436
    8SAPS  H18Z 1064   5.253   0.873   8.741  0.3606  0.7319  2.1319
    9SAPS     N 1065   2.394   3.324   5.991 -0.2599 -0.6510 -0.7089
    9SAPS   HN1 1066   2.392   3.301   5.889  1.1002  0.5088 -1.0241
    9SAPS   HN2 1067   2.487   3.364   6.013 -0.4304 -1.2016  1.1377
    9SAPS   HN3 1068   2.374   3.239   6.047 -0.3741  1.1545  2.1648
    9SAPS   C12 1069   2.301   3.436   6.016  0.4084 -0.0915  0.3676
    9SAPS  H12A 1070   2.323   3.497   6.103 -2.1349  1.3136  0.1232
    9SAPS   C13 1071   2.297   3.533   5.898 -0.2591  0.7559 -0.3016
    9SAPS  O13A 1072   2.385   3.519   5.805  0.4613  0.0664  0.0810
    9SAPS  O13B 1073   2.216   3.629   5.897 -0.1094  0.1155 -0.4395
    9SAPS   C11 1074   2.161   3.370   6.040 -0.3117  0.0982 -0.6110
    9SAPS  H11A 1075   2.137   3.292   5.965 -2.9850  0.5344 -0.2833
    9SAPS  H11B 1076   2.086   3.451   6.028 -1.2968 -0.8624 -1.0787
    9SAPS     P 1077   2.188   3.168   6.219  0.2652  0.4397  0.2503
    9SAPS   O13 1078   2.069   3.105   6.289 -0.5853 -0.2446  0.2833
    9SAPS   O14 1079   2.259   3.096   6.104  0.0510  0.4172  0.0626
    9SAPS   O12 1080   2.152   3.313   6.175  0.7505 -0.6532 -0.4544
    9SAPS   O11 1081   2.306   3.184   6.326 -0.0974  0.0271 -0.0532
    9SAPS    C1 1082   2.344   3.309   6.380  0.2697  0.8751  0.0539
    9SAPS    HA 1083   2.417   3.360   6.313 -0.8537 -1.4984 -3.3079
    9SAPS    HB 1084   2.254   3.371   6.399 -0.4467 -0.2525  0.4337
    9SAPS    C2 1085   2.400   3.303   6.524  0.4372 -0.0331  0.3865
    9SAPS    HS 1086   2.511   3.289   6.524  0.7666  2.1004 -1.5069
    9SAPS   O21 1087   2.326   3.207   6.604  0.5234  0.5679 -0.7200
    9SAPS   C21 1088   2.369   3.086   6.616 -0.3192  0.1579 -0.5944
    9SAPS   O22 1089   2.479   3.050   6.569  0.3714 -0.2287 -0.5991
    9SAPS   C22 1090   2.277   2.998   6.701 -0.1309  0.0308 -0.0946
    9SAPS   H2R 1091   2.277   3.026   6.809 -0.1810 -0.7528  0.1178
    9SAPS   H2S 1092   2.172   3.017   6.671  0.0655 -1.3654 -1.8475
    9SAPS    C3 1093   2.376   3.444   6.584 -0.6692  0.2357 -0.3918
    9SAPS    HX 1094   2.268   3.472   6.582 -1.1129 -1.1636  1.4866
    9SAPS    HY 1095   2.438   3.521   6.533 -0.3971 -0.4428 -1.0996
    9SAPS   O31 1096   2.425   3.445   6.716  0.1513  0.2976 -0.2896
    9SAPS   C31 1097   2.342   3.420   6.812  0.0974 -0.5052  0.3406
    9SAPS   O32 1098   2.220   3.404   6.799  0.1922  0.2795  0.0464
    9SAPS   C32 1099   2.410   3.418   6.949 -0.2395  0.6617  0.3319
    9SAPS   H2X 1100   2.428   3.526   6.970  1.9076  1.2857 -3.7774
    9SAPS   H2Y 1101   2.511   3.373   6.937 -1.4035 -1.6143 -1.6400
    9SAPS   C23 1102   2.301   2.850   6.684  0.3325 -0.0001  0.8418
    9SAPS   H3R 1103   2.359   2.823   6.593 -2.4352  1.5943 -1.5649
    9SAPS   H3S 1104   2.207   2.794   6.668  0.9780 -1.3351  1.5016
    9SAPS   C24 1105   2.350   2.793   6.818 -0.2588  0.6630 -0.3693
    9SAPS   H4R 1106   2.451   2.832   6.842 -0.2449  0.1195  0.5332
    9SAPS   H4S 1107   2.388   2.690   6.798  1.6342  0.8900  1.6750
    9SAPS   C25 1108   2.261   2.787   6.939  0.0048 -0.1267 -0.0771
    9SAPS   H5R 1109   2.182   2.711   6.935  0.0209 -0.2712  1.6277
    9SAPS   C26 1110   2.276   2.851   7.051  0.3527  0.4246  0.4204
    9SAPS   H6R 1111   2.195   2.834   7.123  0.2367 -1.5023 -0.0976
    9SAPS   C27 1112   2.371   2.954   7.096  0.6596  0.1379  0.3978
    9SAPS   H7R 1113   2.311   3.043   7.126 -0.3623  0.5630 -2.5653
    9SAPS   H7S 1114   2.434   3.002   7.019  3.3797  0.4204  2.6450
    9SAPS   C28 1115   2.477   2.896   7.183 -0.5685 -0.8058 -0.4998
    9SAPS   H8R 1116   2.572   2.876   7.131 -0.8964 -0.1104 -1.3817
    9SAPS   C29 1117   2.460   2.833   7.303 -0.2840 -0.2305 -0.5712
    9SAPS   H9R 1118   2.547   2.809   7.366 -0.3504 -1.0176 -0.7595
    9SAPS  C210 1119   2.327   2.822   7.373  1.1739 -0.0540  0.5582
    9SAPS  H10R 1120   2.274   2.729   7.343  1.7609  0.0374 -0.8435
    9SAPS  H10S 1121   2.259   2.906   7.348 -0.4637 -0.7988  2.2762
    9SAPS  C211 1122   2.340   2.832   7.519 -0.0735 -0.7142  0.7273
    9SAPS  H11R 1123   2.307   2.747   7.581 -0.6181 -0.7052  0.4486
    9SAPS  C212 1124   2.381   2.940   7.594  0.2703 -0.4091  0.3568
    9SAPS  H12R 1125   2.401   2.930   7.702 -0.9664 -0.5468  0.5811
    9SAPS  C213 1126   2.401   3.082   7.534  0.1414 -0.2049  0.0057
    9SAPS  H13R 1127   2.305   3.124   7.498  0.0555 -1.2164 -1.0263
    9SAPS  H13S 1128   2.460   3.070   7.440 -0.8861 -0.2658 -0.6374
    9SAPS  C214 1129   2.455   3.175   7.636  0.2082 -0.1716 -0.1996
    9SAPS  H14R 1130   2.551   3.215   7.601 -0.2445  0.5295 -0.6403
    9SAPS  C215 1131   2.409   3.221   7.747  1.0618  0.3571 -0.1766
    9SAPS  H15R 1132   2.477   3.280   7.810  0.7141 -0.6667  1.2061
    9SAPS  C216 1133   2.271   3.187   7.797  0.2679  0.1589 -0.0222
    9SAPS  H16R 1134   2.201   3.144   7.723 -1.9830  0.3780  1.8705
    9SAPS  H16S 1135   2.218   3.277   7.837  2.6948  1.2998  0.8394
    9SAPS  C217 1136   2.283   3.082   7.915 -0.5420 -0.0669  0.3339
    9SAPS  H17R 1137   2.328   2.982   7.896  2.0910  0.8486  1.2713
    9SAPS  H17S 1138   2.181   3.056   7.949  0.3143 -1.0627  2.2975
    9SAPS  C218 1139   2.357   3.139   8.033  0.0639 -0.5372  0.0200
    9SAPS  H18R 1140   2.321   3.243   8.044 -2.4372 -1.2159 -0.9446
    9SAPS  H18S 1141   2.467   3.130   8.014 -0.1695 -3.0186 -0.6340
    9SAPS  C219 1142   2.325   3.057   8.165  0.3734 -0.0645 -0.4597
    9SAPS  H19R 1143   2.217   3.068   8.185  0.4589  2.6486 -1.1344
    9SAPS  H19S 1144   2.376   3.115   8.244 -1.0198 -2.8598  2.7022
    9SAPS  C220 1145   2.389   2.920   8.163  0.3820  0.5713  0.7224
    9SAPS  H20R 1146   2.390   2.860   8.257  1.5134 -1.3486 -0.4427
    9SAPS  H20S 1147   2.496   2.920   8.132 -0.5095 -0.7063 -2.6781
    9SAPS  H20T 1148   2.331   2.847   8.103 -0.6087  1.3101  0.7499
    9SAPS   C33 1149   2.325   3.354   7.062  0.3260  0.5362 -0.5493
    9SAPS   H3X 1150   2.298   3.251   7.032  0.5966 -0.2736  1.7593
    9SAPS   H3Y 1151   2.232   3.412   7.077  0.0357 -0.1333  0.3175
    9SAPS   C34 1152   2.384   3.363   7.203 -0.7098 -0.0360  0.0761
    9SAPS   H4X 1153   2.437   3.268   7.228  0.3196 -0.0592 -1.9774
    9SAPS   H4Y 1154   2.303   3.387   7.274 -1.0600  0.4590 -0.4808
    9SAPS   C35 1155   2.473   3.476   7.232 -0.2847 -0.5282  0.0327
    9SAPS   H5X 1156   2.409   3.567   7.227 -0.2604 -0.5543 -1.0450
    9SAPS   H5Y 1157   2.562   3.471   7.166 -1.5213  0.9874 -1.8869
    9SAPS   C36 1158   2.527   3.476   7.379 -0.0235  0.6561  0.6614
    9SAPS   H6X 1159   2.603   3.396   7.396 -1.4406 -1.1969 -1.1821
    9SAPS   H6Y 1160   2.440   3.442   7.439  1.1124 -1.0066  1.4556
    9SAPS   C37 1161   2.587   3.610   7.424  0.1074 -0.3459  0.4319
    9SAPS   H7X 1162   2.511   3.687   7.400  1.0017  1.0193  1.7629
    9SAPS   H7Y 1163   2.680   3.642   7.372  1.1107  1.1806  2.9469
    9SAPS   C38 1164   2.629   3.612   7.574  0.3553  0.3202 -0.4066
    9SAPS   H8X 1165   2.685   3.518   7.594 -3.3538 -1.7828  0.9884
    9SAPS   H8Y 1166   2.533   3.611   7.631  1.0834  0.3835  0.8748
    9SAPS   C39 1167   2.711   3.734   7.617 -0.1531 -0.8176 -0.2831
    9SAPS   H9X 1168   2.712   3.735   7.728  0.2177 -2.3374 -0.2515
    9SAPS   H9Y 1169   2.665   3.828   7.578 -1.3752 -1.5385 -0.6453
    9SAPS  C310 1170   2.857   3.725   7.572  0.4918  0.7264  0.5499
    9SAPS  H10X 1171   2.861   3.703   7.464 -1.5899  0.8197  0.4253
    9SAPS  H10Y 1172   2.899   3.634   7.619 -2.2662 -1.3454 -0.7023
    9SAPS  C311 1173   2.940   3.841   7.619 -0.3381 -0.0269  0.2208
    9SAPS  H11X 1174   2.932   3.859   7.729 -2.4633 -1.9393  0.4549
    9SAPS  H11Y 1175   2.903   3.933   7.570  0.2466  0.2524  0.2942
    9SAPS  C312 1176   3.093   3.822   7.583  1.3202 -0.5343  0.3157
    9SAPS  H12X 1177   3.126   3.746   7.657 -1.9772 -2.8227 -0.3343
    9SAPS  H12Y 1178   3.141   3.922   7.591  0.8570 -0.1665 -1.1174
    9SAPS  C313 1179   3.114   3.779   7.443  0.0766  0.4095  0.1581
    9SAPS  H13X 1180   3.078   3.677   7.418  0.7460  0.4848 -1.2527
    9SAPS  H13Y 1181   3.225   3.778   7.430 -0.0529 -0.7863 -1.1121
    9SAPS  C314 1182   3.064   3.865   7.318  0.0819 -0.2709 -0.1105
    9SAPS  H14X 1183   3.079   3.974   7.337 -0.9018  0.3675 -2.6589
    9SAPS  H14Y 1184   2.956   3.840   7.313  0.5942 -2.4595 -1.2636
    9SAPS  C315 1185   3.129   3.807   7.186  0.0007 -0.4412  0.6917
    9SAPS  H15X 1186   3.097   3.874   7.103  1.9983  1.1749  1.1547
    9SAPS  H15Y 1187   3.079   3.708   7.174 -0.2093 -0.1192 -1.5953
    9SAPS  C316 1188   3.286   3.811   7.185 -0.0806 -0.3472  0.4776
    9SAPS  H16X 1189   3.328   3.797   7.083  1.5875  3.6878  0.4033
    9SAPS  H16Y 1190   3.330   3.736   7.253 -0.2023  0.5745  1.5911
    9SAPS  C317 1191   3.344   3.951   7.227 -0.9167  0.2868 -0.2094
    9SAPS  H17X 1192   3.338   3.958   7.338 -0.5961 -1.2011 -0.0745
    9SAPS  H17Y 1193   3.276   4.024   7.178 -1.5500  0.7687  1.3311
    9SAPS  C318 1194   3.487   3.972   7.178 -0.7770 -0.0409  0.0396
    9SAPS  H18X 1195   3.561   3.911   7.233 -1.5663 -1.4764 -0.4239
    9SAPS  H18Y 1196   3.531   4.072   7.194 -2.4133  0.3789  2.3568
    9SAPS  H18Z 1197   3.494   3.955   7.068  0.8656 -2.2942  0.4258
   10SAPS     N 1198   1.384   4.634   6.328 -0.6486  0.3258  0.1224
   10SAPS   HN1 1199   1.325   4.717   6.310 -0.7129 -0.0010 -1.2631
   10SAPS   HN2 1200   1.327   4.552   6.299 -0.8721 -0.0498  1.5291
   10SAPS   HN3 1201   1.420   4.625   6.425 -1.9997  2.0710  0.8329
   10SAPS   C12 1202   1.504   4.634   6.240  0.2714  0.3560 -0.1772
   10SAPS  H12A 1203   1.571   4.554   6.268  1.7728  1.3036 -0.9117
   10SAPS   C13 1204   1.475   4.601   6.089 -0.3994 -0.4488  0.7660
   10SAPS  O13A 1205   1.362   4.614   6.033  0.2004  0.4717 -0.1454
   10SAPS  O13B 1206   1.574   4.587   6.014  0.3739 -0.4558  0.0053
   10SAPS   C11 1207   1.567   4.777   6.258  0.2038 -0.1289  0.7455
   10SAPS  H11A 1208   1.494   4.856   6.230  0.8577  1.5812  3.3861
   10SAPS  H11B 1209   1.655   4.790   6.192 -0.1589 -0.5930  0.1623
   10SAPS     P 1210   1.676   4.927   6.438 -0.4893 -0.3654 -0.2137
   10SAPS   O13 1211   1.812   4.876   6.425  0.7573 -0.8917  0.0600
   10SAPS   O14 1212   1.638   5.044   6.347  0.2387 -0.2789 -0.0597
   10SAPS   O12 1213   1.587   4.806   6.396 -0.0841  0.1743 -0.3703
   10SAPS   O11 1214   1.630   4.963   6.585  0.2692  0.4625  0.4424
   10SAPS    C1 1215   1.494   4.985   6.616  0.1316  0.4525 -0.2967
   10SAPS    HA 1216   1.456   5.075   6.564 -2.2049  0.0882  0.6584
   10SAPS    HB 1217   1.437   4.896   6.579  0.2299  0.9305 -1.6376
   10SAPS    C2 1218   1.465   4.994   6.773 -0.3859  0.1345 -0.2188
   10SAPS    HS 1219   1.356   4.980   6.788  0.1116 -3.0858  1.1480
   10SAPS   O21 1220   1.523   5.115   6.829 -0.2432  0.4338  0.4218
   10SAPS   C21 1221   1.443   5.220   6.819  0.7057 -0.2418 -0.8518
   10SAPS   O22 1222   1.329   5.228   6.777  0.4255  0.4952  0.6415
   10SAPS   C22 1223   1.530   5.345   6.828 -0.1803  0.3550 -0.1664
   10SAPS   H2R 1224   1.623   5.314   6.881 -1.3293  2.1214  3.1607
   10SAPS   H2S 1225   1.560   5.382   6.728  0.8323 -0.5825 -0.2289
   10SAPS    C3 1226   1.530   4.878   6.845  0.0856 -0.2835  0.1733
   10SAPS    HX 1227   1.639   4.899   6.847 -0.0841  0.8494 -1.1114
   10SAPS    HY 1228   1.515   4.783   6.790  0.0297  0.7493 -1.6753
   10SAPS   O31 1229   1.484   4.861   6.985 -0.0496 -0.7875  0.6974
   10SAPS   C31 1230   1.357   4.815   6.998  0.0424 -0.3425  0.2534
   10SAPS   O32 1231   1.284   4.787   6.905 -0.1142 -0.0957  0.2597
   10SAPS   C32 1232   1.313   4.837   7.139  0.2191  0.5759 -0.7614
   10SAPS   H2X 1233   1.337   4.944   7.155  3.1761 -0.0300 -0.4211
   10SAPS   H2Y 1234   1.377   4.788   7.216  2.5470  2.4812 -1.3606
   10SAPS   C23 1235   1.470   5.457   6.917 -0.5263 -0.1338  0.4945
   10SAPS   H3R 1236   1.374   5.481   6.867  0.1053 -0.8574 -1.1310
   10SAPS   H3S 1237   1.538   5.544   6.910  2.0246 -1.9979  0.6148
   10SAPS   C24 1238   1.466   5.420   7.065 -0.2833 -0.0808  0.6117
   10SAPS   H4R 1239   1.568   5.423   7.109 -0.7983  0.4387  1.8303
   10SAPS   H4S 1240   1.422   5.318   7.066  0.4791 -0.5066 -2.0958
   10SAPS   C25 1241   1.387   5.524   7.138  0.4743  0.1759 -0.1977
   10SAPS   H5R 1242   1.312   5.574   7.074 -1.3663 -2.3632 -0.1945
   10SAPS   C26 1243   1.411   5.569   7.260  0.1644 -0.0178 -0.0185
   10SAPS   H6R 1244   1.346   5.648   7.300  0.9927  1.4434 -1.4547
   10SAPS   C27 1245   1.516   5.524   7.360 -0.6884  0.6560  0.0007
   10SAPS   H7R 1246   1.607   5.495   7.303 -1.6859  0.6158 -1.6615
   10SAPS   H7S 1247   1.472   5.425   7.386 -1.6092  0.9704 -0.2933
   10SAPS   C28 1248   1.553   5.592   7.489 -1.0634  0.6167 -0.4183
   10SAPS   H8R 1249   1.634   5.665   7.474  0.6123 -1.2005 -0.6184
   10SAPS   C29 1250   1.513   5.576   7.614 -0.1716  1.2033 -0.1479
   10SAPS   H9R 1251   1.540   5.640   7.699 -0.6306 -1.0842  1.8369
   10SAPS  C210 1252   1.406   5.474   7.660 -1.0198 -0.3797  0.4979
   10SAPS  H10R 1253   1.361   5.427   7.569 -0.3794  1.2206 -0.7000
   10SAPS  H10S 1254   1.333   5.515   7.732 -0.1081  0.5756  0.8852
   10SAPS  C211 1255   1.487   5.369   7.732  0.2898  0.1190 -0.1474
   10SAPS  H11R 1256   1.517   5.288   7.664  0.8812  1.5264 -1.6344
   10SAPS  C212 1257   1.500   5.355   7.866  0.1536  0.0274 -0.4195
   10SAPS  H12R 1258   1.567   5.278   7.907 -0.6726 -0.4573  0.0567
   10SAPS  C213 1259   1.437   5.444   7.971 -0.5393 -0.1752  0.3716
   10SAPS  H13R 1260   1.327   5.438   7.959 -0.3887  1.6537 -2.9937
   10SAPS  H13S 1261   1.468   5.548   7.950 -1.1710 -0.1864 -0.6779
   10SAPS  C214 1262   1.486   5.379   8.106 -0.3850 -0.5718 -0.2917
   10SAPS  H14R 1263   1.564   5.301   8.097 -0.9344 -1.1038 -0.4736
   10SAPS  C215 1264   1.432   5.399   8.228  0.1342  0.1123 -0.4361
   10SAPS  H15R 1265   1.484   5.348   8.310 -0.5273 -1.9168 -1.2361
   10SAPS  C216 1266   1.315   5.497   8.258 -0.6159 -0.5279 -0.1131
   10SAPS  H16R 1267   1.268   5.554   8.175 -1.3461  0.8318  1.1732
   10SAPS  H16S 1268   1.349   5.577   8.327 -0.9915  1.1819 -1.8072
   10SAPS  C217 1269   1.195   5.440   8.324 -0.1084 -0.0988 -0.3354
   10SAPS  H17R 1270   1.226   5.394   8.420  0.1567 -0.1280 -0.4361
   10SAPS  H17S 1271   1.150   5.363   8.257  1.0996 -0.6454 -0.5402
   10SAPS  C218 1272   1.084   5.536   8.351  0.3078  0.5427 -0.3353
   10SAPS  H18R 1273   1.132   5.629   8.389 -1.8628  1.2657  0.8177
   10SAPS  H18S 1274   1.031   5.497   8.441  1.4589 -1.5674 -0.4947
   10SAPS  C219 1275   1.000   5.572   8.232  0.5653 -0.2418 -1.2161
   10SAPS  H19R 1276   0.927   5.492   8.212  1.3660 -0.9635 -1.3111
   10SAPS  H19S 1277   1.060   5.587   8.139  1.8676 -0.4707 -0.4380
   10SAPS  C220 1278   0.916   5.702   8.249  1.2211  0.2074  0.0434
   10SAPS  H20R 1279   0.978   5.789   8.277  0.9312  0.7463 -0.9508
   10SAPS  H20S 1280   0.833   5.682   8.320  2.0056 -0.4584  0.8090
   10SAPS  H20T 1281   0.887   5.729   8.145  1.2610  1.9487  0.4528
   10SAPS   C33 1282   1.171   4.805   7.162  0.2683  0.4706 -0.4691
   10SAPS   H3X 1283   1.146   4.697   7.146 -0.6901  0.3914  1.3538
   10SAPS   H3Y 1284   1.106   4.863   7.092 -0.9475  0.7048  0.8055
   10SAPS   C34 1285   1.115   4.865   7.298 -0.0873  0.4129  0.3734
   10SAPS   H4X 1286   1.007   4.888   7.285 -0.6404 -1.2098  1.6780
   10SAPS   H4Y 1287   1.177   4.952   7.327  2.9239 -0.6754 -2.2481
   10SAPS   C35 1288   1.137   4.757   7.403  0.0013 -0.0796  0.0384
   10SAPS   H5X 1289   1.244   4.729   7.413  0.0469  0.6730  2.1882
   10SAPS   H5Y 1290   1.081   4.666   7.372 -0.0007 -0.4149  0.9820
   10SAPS   C36 1291   1.097   4.799   7.544  0.2596  0.3359 -0.0302
   10SAPS   H6X 1292   0.988   4.823   7.543  0.7270  2.8295  0.6506
   10SAPS   H6Y 1293   1.152   4.893   7.564 -0.2121  0.1258  2.5446
   10SAPS   C37 1294   1.146   4.703   7.658  0.4210  0.3389 -0.4064
   10SAPS   H7X 1295   1.128   4.741   7.760 -0.8115 -0.8251 -0.1591
   10SAPS   H7Y 1296   1.254   4.686   7.638  0.4818  0.4751 -0.1882
   10SAPS   C38 1297   1.088   4.569   7.655  0.1389 -0.2197 -0.4955
   10SAPS   H8X 1298   1.087   4.521   7.554  1.3974 -0.6280 -0.3234
   10SAPS   H8Y 1299   0.980   4.591   7.669 -0.1312 -1.7138  0.0077
   10SAPS   C39 1300   1.131   4.465   7.769  0.4260 -0.3622 -1.3558
   10SAPS   H9X 1301   1.100   4.502   7.868  1.7635 -0.1113 -1.0100
   10SAPS   H9Y 1302   1.242   4.470   7.777  0.4266 -0.7333 -1.1146
   10SAPS  C310 1303   1.074   4.325   7.746 -0.1087  0.0429 -0.5596
   10SAPS  H10X 1304   1.087   4.289   7.641  2.6164  1.0149 -0.6442
   10SAPS  H10Y 1305   0.967   4.312   7.773  0.3088 -1.0502  0.6114
   10SAPS  C311 1306   1.155   4.224   7.830  0.1748  0.3802 -0.8624
   10SAPS  H11X 1307   1.260   4.227   7.793  0.2412 -0.1668 -0.7199
   10SAPS  H11Y 1308   1.115   4.123   7.805  0.0564  0.4673 -1.0319
   10SAPS  C312 1309   1.150   4.253   7.986 -0.3899 -0.1742  0.1949
   10SAPS  H12X 1310   1.048   4.254   8.029 -0.7597 -1.7595 -0.5797
   10SAPS  H12Y 1311   1.188   4.355   8.009 -0.4394 -0.2381  0.5523
   10SAPS  C313 1312   1.227   4.141   8.063 -0.4758  0.2528 -0.0078
   10SAPS  H13X 1313   1.336   4.150   8.046 -0.6288  0.4833 -0.9372
   10SAPS  H13Y 1314   1.195   4.043   8.021  0.7494 -0.1229 -0.0911
   10SAPS  C314 1315   1.210   4.130   8.217 -0.1204 -0.1113 -0.4182
   10SAPS  H14X 1316   1.101   4.144   8.231 -0.1227 -1.6610  1.5266
   10SAPS  H14Y 1317   1.275   4.207   8.265  0.4116 -2.0141  2.1165
   10SAPS  C315 1318   1.256   3.992   8.268  0.0186 -0.4117 -0.2990
   10SAPS  H15X 1319   1.360   3.976   8.236 -0.2273 -0.4963 -1.0612
   10SAPS  H15Y 1320   1.197   3.917   8.212 -1.3470  1.6784 -1.8335
   10SAPS  C316 1321   1.247   3.970   8.424  0.0696 -0.3201  0.3729
   10SAPS  H16X 1322   1.278   3.870   8.460  2.4451  0.5621  0.9973
   10SAPS  H16Y 1323   1.141   3.991   8.451 -0.4784  1.4651 -2.7372
   10SAPS  C317 1324   1.319   4.076   8.502 -0.4718 -0.0999  0.4147
   10SAPS  H17X 1325   1.271   4.169   8.467 -3.4841 -1.7195 -0.1246
   10SAPS  H17Y 1326   1.426   4.079   8.471 -0.9475  2.4180 -1.2390
   10SAPS  C318 1327   1.287   4.079   8.651 -0.4730 -0.1202 -0.2057
   10SAPS  H18X 1328   1.298   4.180   8.695  1.7720 -0.6303  0.5155
   10SAPS  H18Y 1329   1.350   4.005   8.705 -0.9510  0.7003  1.5439
   10SAPS  H18Z 1330   1.185   4.048   8.682  0.2761 -0.7525  1.7710
   11SAPS     N 1331   5.463   6.804   6.147 -0.6307  0.4356 -0.3189
   11SAPS   HN1 1332   5.435   6.827   6.245 -3.1725 -2.0812 -0.3312
   11SAPS   HN2 1333   5.490   6.704   6.138  1.5562  0.9691 -0.2509
   11SAPS   HN3 1334   5.547   6.856   6.115 -0.5151  3.7736  4.3112
   11SAPS   C12 1335   5.343   6.838   6.061  0.0717 -0.6228  0.1822
   11SAPS  H12A 1336   5.342   6.946   6.064 -0.4040 -0.6258  2.6163
   11SAPS   C13 1337   5.347   6.780   5.914 -0.4660  0.2914 -0.5543
   11SAPS  O13A 1338   5.451   6.726   5.875 -0.2462  0.4238 -0.1474
   11SAPS  O13B 1339   5.249   6.809   5.839  0.2042 -0.1204 -0.4358
   11SAPS   C11 1340   5.208   6.792   6.135  0.2026  0.5252 -0.9010
   11SAPS  H11A 1341   5.121   6.818   6.071 -0.6203  0.5530  0.2003
   11SAPS  H11B 1342   5.196   6.847   6.231 -2.4314  0.4848 -1.1383
   11SAPS     P 1343   5.092   6.572   6.175  0.2956  0.3045  0.2290
   11SAPS   O13 1344   4.971   6.660   6.160 -0.2138 -0.0734 -0.3188
   11SAPS   O14 1345   5.110   6.460   6.079  0.5833 -0.1035 -0.1634
   11SAPS   O12 1346   5.223   6.654   6.172 -0.1062  1.0238 -0.0181
   11SAPS   O11 1347   5.094   6.513   6.315 -0.1419 -0.0719 -0.6029
   11SAPS    C1 1348   5.189   6.414   6.361  0.5050 -0.6075  0.1287
   11SAPS    HA 1349   5.275   6.412   6.290  0.9336 -1.1346  0.6563
   11SAPS    HB 1350   5.234   6.443   6.458  0.1795 -1.2357  0.4793
   11SAPS    C2 1351   5.136   6.270   6.377  0.3810 -0.4897  1.0952
   11SAPS    HS 1352   5.117   6.229   6.276 -1.1830  0.5925  0.9134
   11SAPS   O21 1353   5.020   6.275   6.466  0.3132  0.7402 -0.2234
   11SAPS   C21 1354   4.896   6.293   6.409 -0.4173  0.5936  0.1602
   11SAPS   O22 1355   4.868   6.298   6.297 -0.0671  0.2498  0.5650
   11SAPS   C22 1356   4.794   6.308   6.514  0.1078  0.4667  0.3612
   11SAPS   H2R 1357   4.749   6.405   6.485  2.4868  1.0708 -1.6511
   11SAPS   H2S 1358   4.725   6.227   6.483 -0.9303  1.5309 -0.1665
   11SAPS    C3 1359   5.244   6.193   6.447 -0.6752 -0.1552  0.4964
   11SAPS    HX 1360   5.273   6.247   6.540  3.2192 -0.4848 -0.3308
   11SAPS    HY 1361   5.339   6.186   6.390 -0.9632  0.0576 -0.0104
   11SAPS   O31 1362   5.184   6.062   6.478  0.2496  0.4920 -0.0562
   11SAPS   C31 1363   5.153   6.034   6.606  0.0591 -0.1067 -0.1461
   11SAPS   O32 1364   5.175   6.111   6.697  0.0287 -0.5013  0.2070
   11SAPS   C32 1365   5.087   5.891   6.617 -0.0425 -0.1720 -0.0422
   11SAPS   H2X 1366   5.169   5.817   6.607 -0.0491 -0.2084  0.1618
   11SAPS   H2Y 1367   5.025   5.888   6.525 -0.4074  0.9316  0.1569
   11SAPS   C23 1368   4.848   6.309   6.659 -0.2103  0.2833  0.9018
   11SAPS   H3R 1369   4.925   6.388   6.669 -0.9810  1.3801 -1.1559
   11SAPS   H3S 1370   4.895   6.213   6.690  1.0652  0.7162  0.3676
   11SAPS   C24 1371   4.744   6.337   6.769  0.2612 -0.1853 -0.1964
   11SAPS   H4R 1372   4.707   6.439   6.748  0.3110 -0.2182 -0.4424
   11SAPS   H4S 1373   4.809   6.344   6.859  1.4548 -0.7075 -0.9919
   11SAPS   C25 1374   4.623   6.253   6.785  0.6557 -0.2386 -0.1357
   11SAPS   H5R 1375   4.559   6.246   6.696  0.0064 -3.2875  0.4307
   11SAPS   C26 1376   4.580   6.186   6.895 -0.5710 -0.4472  0.6329
   11SAPS   H6R 1377   4.486   6.129   6.891 -1.3164  0.8123 -0.9095
   11SAPS   C27 1378   4.659   6.165   7.022  0.5843 -1.0861  0.3828
   11SAPS   H7R 1379   4.592   6.093   7.073  1.4974 -2.4005 -0.2335
   11SAPS   H7S 1380   4.676   6.262   7.074  0.2168 -0.5097 -0.5294
   11SAPS   C28 1381   4.788   6.094   7.020 -0.3680  0.1639 -0.4526
   11SAPS   H8R 1382   4.858   6.129   6.942 -1.1073  0.1813 -1.1247
   11SAPS   C29 1383   4.830   5.994   7.106 -0.5665  0.8112 -0.1180
   11SAPS   H9R 1384   4.923   5.944   7.075 -0.8756  0.6965 -0.8880
   11SAPS  C210 1385   4.751   5.924   7.220 -0.1739 -0.1968  1.0178
   11SAPS  H10R 1386   4.644   5.951   7.214 -0.6891 -2.3021 -0.7660
   11SAPS  H10S 1387   4.790   5.964   7.316 -0.3682  1.6728  0.3613
   11SAPS  C211 1388   4.773   5.773   7.203 -0.1665  0.3944 -0.1403
   11SAPS  H11R 1389   4.803   5.722   7.110 -2.8466 -1.5349 -0.0822
   11SAPS  C212 1390   4.758   5.679   7.303  0.8595 -0.5507  0.1056
   11SAPS  H12R 1391   4.766   5.572   7.279  3.9741 -0.6794  1.2765
   11SAPS  C213 1392   4.721   5.703   7.448 -0.3027 -0.1361 -0.3836
   11SAPS  H13R 1393   4.741   5.804   7.489 -2.1651 -0.0102  0.2975
   11SAPS  H13S 1394   4.780   5.639   7.517  0.3247  0.7144 -0.1235
   11SAPS  C214 1395   4.580   5.689   7.497  0.3303 -0.0402  0.5456
   11SAPS  H14R 1396   4.504   5.704   7.418  0.8542  1.2209  0.2549
   11SAPS  C215 1397   4.542   5.659   7.617 -0.2466 -0.1131 -0.5902
   11SAPS  H15R 1398   4.438   5.664   7.652 -0.4230 -0.6237 -1.0160
   11SAPS  C216 1399   4.640   5.633   7.734  0.3317 -0.4421  0.7815
   11SAPS  H16R 1400   4.733   5.694   7.735 -0.0762  0.2311 -0.7976
   11SAPS  H16S 1401   4.682   5.534   7.705 -1.3980 -1.0900  0.4191
   11SAPS  C217 1402   4.584   5.620   7.878 -0.4135 -0.0137  0.3121
   11SAPS  H17R 1403   4.488   5.567   7.862 -0.9360  1.0156 -0.0418
   11SAPS  H17S 1404   4.567   5.719   7.926  1.2969 -0.6703  2.4269
   11SAPS  C218 1405   4.667   5.524   7.964  0.0646  0.8199 -0.2236
   11SAPS  H18R 1406   4.776   5.541   7.951  0.2714 -0.1072  0.2131
   11SAPS  H18S 1407   4.659   5.417   7.932 -1.1589  1.1011 -0.9518
   11SAPS  C219 1408   4.629   5.533   8.117  0.1964 -0.1080 -0.1813
   11SAPS  H19R 1409   4.651   5.636   8.152 -1.4326 -0.0873  0.8534
   11SAPS  H19S 1410   4.705   5.472   8.171 -0.0834 -0.0425  0.2900
   11SAPS  C220 1411   4.488   5.482   8.149  0.3809 -0.0982 -0.4695
   11SAPS  H20R 1412   4.479   5.372   8.157  0.5461 -0.2325 -1.9146
   11SAPS  H20S 1413   4.417   5.532   8.080  0.7389 -1.4049 -1.8197
   11SAPS  H20T 1414   4.461   5.519   8.251  2.9404  1.8651 -0.4214
   11SAPS   C33 1415   4.982   5.868   6.727  0.2858  0.0154  0.3764
   11SAPS   H3X 1416   4.928   5.962   6.754  1.0106  0.2154  1.1785
   11SAPS   H3Y 1417   5.031   5.845   6.824 -2.3562  0.5587  1.9589
   11SAPS   C34 1418   4.872   5.771   6.688  0.1959 -0.2439 -0.3690
   11SAPS   H4X 1419   4.915   5.671   6.667 -0.7177 -0.3774 -1.7747
   11SAPS   H4Y 1420   4.839   5.807   6.588 -1.4696  0.1992  0.2932
   11SAPS   C35 1421   4.770   5.762   6.803  0.8674  0.0948 -0.0702
   11SAPS   H5X 1422   4.733   5.865   6.816 -1.0844 -0.0871 -3.1240
   11SAPS   H5Y 1423   4.831   5.733   6.892  0.7176  1.5725  0.5346
   11SAPS   C36 1424   4.652   5.663   6.775 -0.3535 -0.5095 -0.8301
   11SAPS   H6X 1425   4.703   5.565   6.765 -0.0506 -0.3477 -0.8621
   11SAPS   H6Y 1426   4.599   5.681   6.679  0.6455 -1.6579 -1.6229
   11SAPS   C37 1427   4.547   5.661   6.885 -0.1946 -0.1696  0.0370
   11SAPS   H7X 1428   4.596   5.631   6.980  0.4276  1.7546  0.3673
   11SAPS   H7Y 1429   4.471   5.585   6.855 -0.6355 -0.0550  0.8237
   11SAPS   C38 1430   4.483   5.798   6.916  0.4464  0.6819  0.0705
   11SAPS   H8X 1431   4.409   5.817   6.834  1.2358  0.3547 -0.7381
   11SAPS   H8Y 1432   4.547   5.887   6.930  0.6150  0.4984  0.4859
   11SAPS   C39 1433   4.399   5.788   7.044 -0.2946  0.7615  0.4200
   11SAPS   H9X 1434   4.467   5.765   7.129  2.0866  2.5118 -0.8833
   11SAPS   H9Y 1435   4.347   5.692   7.021  2.3748 -0.2971 -1.7981
   11SAPS  C310 1436   4.300   5.905   7.058  0.1012 -0.4942 -0.2738
   11SAPS  H10X 1437   4.252   5.938   6.964 -0.5759 -0.1449  0.1849
   11SAPS  H10Y 1438   4.372   5.981   7.096  1.2390  0.0709 -3.3012
   11SAPS  C311 1439   4.190   5.892   7.171 -0.3496 -0.1401  0.4249
   11SAPS  H11X 1440   4.110   5.819   7.147  0.2388 -1.0243  1.0756
   11SAPS  H11Y 1441   4.137   5.989   7.180  0.6926  0.5361 -0.5602
   11SAPS  C312 1442   4.249   5.858   7.317  0.7032 -0.1422 -0.1210
   11SAPS  H12X 1443   4.325   5.931   7.352 -0.7479  1.3399  0.0413
   11SAPS  H12Y 1444   4.317   5.770   7.310 -0.8819 -1.3702 -0.5318
   11SAPS  C313 1445   4.147   5.838   7.429  0.2189 -0.2243 -0.2115
   11SAPS  H13X 1446   4.104   5.736   7.414  2.1068 -0.7073 -3.4631
   11SAPS  H13Y 1447   4.070   5.917   7.426  0.9845  0.5065 -1.2062
   11SAPS  C314 1448   4.213   5.835   7.570  0.4813  0.2820  0.0435
   11SAPS  H14X 1449   4.233   5.941   7.596  0.3271  0.3335 -0.0421
   11SAPS  H14Y 1450   4.301   5.768   7.566  0.0661 -0.4164  1.8020
   11SAPS  C315 1451   4.125   5.790   7.680 -0.0170  0.4763  0.1816
   11SAPS  H15X 1452   4.091   5.689   7.651 -0.9168  0.7642  0.2238
   11SAPS  H15Y 1453   4.044   5.865   7.693  0.8074  1.4725 -0.2837
   11SAPS  C316 1454   4.192   5.774   7.818 -0.2773 -0.0581 -0.3554
   11SAPS  H16X 1455   4.216   5.874   7.860 -2.1992  1.3952 -2.5039
   11SAPS  H16Y 1456   4.277   5.705   7.801  0.6986  0.9035  0.4842
   11SAPS  C317 1457   4.103   5.706   7.919  0.2229 -0.0574 -0.3326
   11SAPS  H17X 1458   4.069   5.606   7.885 -0.2638 -0.5708  1.5157
   11SAPS  H17Y 1459   4.003   5.754   7.925  0.1674 -0.3688  2.4622
   11SAPS  C318 1460   4.154   5.672   8.062  0.7180 -0.6476  0.4543
   11SAPS  H18X 1461   4.231   5.592   8.061  1.0540 -0.3300 -0.3120
   11SAPS  H18Y 1462   4.076   5.632   8.130 -0.4122  2.3956  1.1400
   11SAPS  H18Z 1463   4.191   5.766   8.109  0.5040  0.0542 -0.7388
   12SAPS     N 1464   2.732   1.146   5.521  0.1833 -0.1711  0.0889
   12SAPS   HN1 1465   2.635   1.118   5.547  0.5132 -1.4782 -0.0336
   12SAPS   HN2 1466   2.746   1.178   5.423  0.8991 -1.8584 -0.3963
   12SAPS   HN3 1467   2.795   1.065   5.537 -2.3930 -2.6749 -1.4546
   12SAPS   C12 1468   2.774   1.244   5.625  0.4390 -0.0515  0.4765
   12SAPS  H12A 1469   2.870   1.276   5.589  0.3912 -1.1160 -0.6803
   12SAPS   C13 1470   2.684   1.367   5.649 -0.3019  0.8790 -1.3278
   12SAPS  O13A 1471   2.564   1.376   5.613  0.2438 -0.7845 -0.5063
   12SAPS  O13B 1472   2.737   1.453   5.722  0.0021 -0.2487  0.0574
   12SAPS   C11 1473   2.797   1.172   5.756 -0.1007 -0.4327 -0.3128
   12SAPS  H11A 1474   2.698   1.148   5.800  0.5640  0.3070  1.6447
   12SAPS  H11B 1475   2.853   1.240   5.823  3.0065 -2.3909 -0.6595
   12SAPS     P 1476   3.028   1.055   5.793  0.0880  0.4275 -0.2220
   12SAPS   O13 1477   3.083   0.920   5.750 -0.6594  0.2455  0.5444
   12SAPS   O14 1478   3.089   1.178   5.742  0.1871 -0.5182 -0.3472
   12SAPS   O12 1479   2.870   1.051   5.743 -0.3340  0.9041  0.2884
   12SAPS   O11 1480   3.015   1.054   5.954 -0.9834 -0.2784 -0.1083
   12SAPS    C1 1481   2.926   0.954   6.006  0.4877  0.3325 -0.3614
   12SAPS    HA 1482   2.833   0.939   5.945  1.1323  1.9459 -1.8202
   12SAPS    HB 1483   2.974   0.854   6.016  0.3032  0.2391 -0.3986
   12SAPS    C2 1484   2.873   0.982   6.147  0.0151 -0.3068  0.2221
   12SAPS    HS 1485   2.814   1.075   6.132  1.4325  0.4528 -0.8617
   12SAPS   O21 1486   2.980   0.998   6.235  0.4887  0.3011  0.4448
   12SAPS   C21 1487   2.960   1.096   6.317 -0.0034  0.2066 -0.8492
   12SAPS   O22 1488   2.874   1.179   6.317 -0.2478 -0.3738  0.0660
   12SAPS   C22 1489   3.066   1.085   6.424 -0.2170  0.5926  0.4318
   12SAPS   H2R 1490   3.103   0.980   6.427  2.3714  1.4339  0.1639
   12SAPS   H2S 1491   3.152   1.141   6.381  0.7114 -0.9141  0.2427
   12SAPS    C3 1492   2.776   0.869   6.210  0.3188 -0.2341  0.0109
   12SAPS    HX 1493   2.835   0.775   6.219 -1.5948 -1.4133  1.0379
   12SAPS    HY 1494   2.711   0.850   6.122  2.4453 -2.5711 -1.2041
   12SAPS   O31 1495   2.715   0.916   6.332 -0.3273 -0.7310 -0.1662
   12SAPS   C31 1496   2.624   0.836   6.370 -0.0453 -0.4759  0.4971
   12SAPS   O32 1497   2.598   0.731   6.309 -0.2580 -0.1338  0.2447
   12SAPS   C32 1498   2.557   0.888   6.506 -0.2072  0.2049  0.5175
   12SAPS   H2X 1499   2.516   0.991   6.494  2.5907  1.5235  1.3991
   12SAPS   H2Y 1500   2.648   0.915   6.565 -0.6784  3.2249  0.0495
   12SAPS   C23 1501   3.037   1.152   6.561 -0.4500  0.5222  0.6585
   12SAPS   H3R 1502   2.992   1.253   6.550  0.5671  0.9733  0.5216
   12SAPS   H3S 1503   3.134   1.156   6.616  0.6624  0.9299 -1.2372
   12SAPS   C24 1504   2.940   1.067   6.639 -0.3606 -0.2569  0.4808
   12SAPS   H4R 1505   2.849   1.048   6.579 -1.0260 -0.2150  1.4569
   12SAPS   H4S 1506   2.910   1.126   6.728  0.2559 -2.6816  2.3844
   12SAPS   C25 1507   3.006   0.940   6.683 -0.3504  0.4192 -0.9105
   12SAPS   H5R 1508   3.034   0.873   6.600 -0.2475  2.4468 -2.5948
   12SAPS   C26 1509   3.026   0.913   6.816  0.5878  0.2226  0.9543
   12SAPS   H6R 1510   3.078   0.820   6.843  1.2236  0.5956  1.0446
   12SAPS   C27 1511   2.989   1.002   6.934 -0.6255  0.5812 -0.2623
   12SAPS   H7R 1512   2.928   0.936   6.999 -4.3835  0.2846 -3.6848
   12SAPS   H7S 1513   2.911   1.079   6.915  0.7417  1.5716 -2.2100
   12SAPS   C28 1514   3.109   1.078   7.003  0.9037 -0.5010  0.6094
   12SAPS   H8R 1515   3.138   1.165   6.942  0.2537 -2.4000 -2.7034
   12SAPS   C29 1516   3.176   1.023   7.108 -0.0411 -0.2050  0.2841
   12SAPS   H9R 1517   3.247   1.094   7.154 -0.5640  0.3938  0.1772
   12SAPS  C210 1518   3.144   0.895   7.176 -0.9281  0.6754  0.4946
   12SAPS  H10R 1519   3.240   0.848   7.206 -1.0284  0.9220  1.2449
   12SAPS  H10S 1520   3.092   0.824   7.108  1.5914 -0.8784  0.0908
   12SAPS  C211 1521   3.052   0.915   7.288 -0.5838  0.2102  0.1410
   12SAPS  H11R 1522   2.950   0.913   7.247 -0.4245 -3.8538 -0.4339
   12SAPS  C212 1523   3.083   0.936   7.419  0.2303 -0.4232 -0.3136
   12SAPS  H12R 1524   3.006   0.959   7.494 -0.5247  0.3604 -1.3098
   12SAPS  C213 1525   3.218   0.927   7.482 -0.4244  0.1934  1.0273
   12SAPS  H13R 1526   3.298   0.936   7.405 -0.6893  0.2615  0.7585
   12SAPS  H13S 1527   3.238   0.826   7.525  0.8168  0.9461  2.3026
   12SAPS  C214 1528   3.239   1.031   7.590 -0.0179 -0.6800  0.5634
   12SAPS  H14R 1529   3.252   1.133   7.551  2.6473 -0.6524  1.2855
   12SAPS  C215 1530   3.260   1.026   7.719 -0.1696  0.4595 -0.2846
   12SAPS  H15R 1531   3.291   1.113   7.779 -1.0992 -0.2983  1.3890
   12SAPS  C216 1532   3.274   0.901   7.805  0.5109  0.9250  0.2598
   12SAPS  H16R 1533   3.375   0.886   7.850 -1.1005 -4.0315  2.9189
   12SAPS  H16S 1534   3.254   0.811   7.743  0.3975  1.3582 -0.3504
   12SAPS  C217 1535   3.191   0.890   7.938 -0.5103  0.2962  0.2257
   12SAPS  H17R 1536   3.083   0.901   7.911 -1.2727 -3.2708  1.2058
   12SAPS  H17S 1537   3.219   0.974   8.005  0.9192  0.0170  0.0059
   12SAPS  C218 1538   3.215   0.756   8.006 -0.5007 -0.5323 -0.4563
   12SAPS  H18R 1539   3.193   0.679   7.929 -2.2858 -0.9348  0.4002
   12SAPS  H18S 1540   3.138   0.728   8.081 -0.9830  0.0571 -0.7179
   12SAPS  C219 1541   3.354   0.739   8.076  0.4966 -0.2296 -0.8731
   12SAPS  H19R 1542   3.435   0.740   8.000  1.4723 -0.4112  0.1389
   12SAPS  H19S 1543   3.354   0.634   8.113  2.0768 -0.3566 -1.1573
   12SAPS  C220 1544   3.380   0.832   8.198  0.0672  0.7260 -0.3034
   12SAPS  H20R 1545   3.371   0.941   8.176 -3.0250  0.5974 -0.1737
   12SAPS  H20S 1546   3.470   0.821   8.262  0.1126 -0.9254 -0.6081
   12SAPS  H20T 1547   3.307   0.822   8.281  2.1124 -0.2086  1.4808
   12SAPS   C33 1548   2.477   0.781   6.583 -0.4731 -0.2997  0.1820
   12SAPS   H3X 1549   2.522   0.682   6.564 -0.8745 -0.2672 -1.0655
   12SAPS   H3Y 1550   2.380   0.782   6.528 -0.4220  0.0601  0.0935
   12SAPS   C34 1551   2.462   0.789   6.732 -0.3331 -0.5630 -0.7265
   12SAPS   H4X 1552   2.406   0.697   6.760  1.6264 -1.6758 -0.2523
   12SAPS   H4Y 1553   2.402   0.875   6.769 -2.4547 -2.8509  1.5377
   12SAPS   C35 1554   2.592   0.775   6.820  0.2090  0.3764  0.0355
   12SAPS   H5X 1555   2.656   0.863   6.795  0.7862 -0.5313 -1.9675
   12SAPS   H5Y 1556   2.641   0.678   6.794 -0.2375 -0.0659  0.8247
   12SAPS   C36 1557   2.555   0.763   6.965  0.0644  0.7995  0.1516
   12SAPS   H6X 1558   2.463   0.821   6.988  0.0423  1.4977 -1.5441
   12SAPS   H6Y 1559   2.640   0.803   7.025  1.4405 -0.8551 -0.6425
   12SAPS   C37 1560   2.537   0.623   7.019  0.1468  0.1442 -0.0852
   12SAPS   H7X 1561   2.634   0.569   7.017  0.1347  0.0934  0.5020
   12SAPS   H7Y 1562   2.459   0.576   6.955 -0.2031  1.4765 -0.6561
   12SAPS   C38 1563   2.478   0.623   7.160  0.1564 -0.7533 -0.1616
   12SAPS   H8X 1564   2.424   0.527   7.177 -0.5529 -0.0181  2.1897
   12SAPS   H8Y 1565   2.403   0.705   7.157  2.0493  1.0413  0.1699
   12SAPS   C39 1566   2.576   0.661   7.269 -0.1797  0.7369 -0.3059
   12SAPS   H9X 1567   2.610   0.764   7.245  0.2181  0.6832  0.0043
   12SAPS   H9Y 1568   2.654   0.582   7.266 -1.5787 -0.6824 -0.3702
   12SAPS  C310 1569   2.512   0.668   7.406  1.0281  0.4355 -0.0251
   12SAPS  H10X 1570   2.474   0.567   7.434  2.2155  0.5812  2.3282
   12SAPS  H10Y 1571   2.422   0.732   7.411  0.6800 -0.1026  0.8783
   12SAPS  C311 1572   2.600   0.725   7.519  0.5037  0.1795 -0.6317
   12SAPS  H11X 1573   2.592   0.836   7.521  2.1094  0.3071  1.4688
   12SAPS  H11Y 1574   2.708   0.704   7.505  0.1209 -2.9418  0.3304
   12SAPS  C312 1575   2.560   0.664   7.654  0.9056 -0.1459 -0.3273
   12SAPS  H12X 1576   2.561   0.553   7.661 -0.0691 -0.0709  2.0051
   12SAPS  H12Y 1577   2.457   0.695   7.679  0.5593  0.0991 -1.9765
   12SAPS  C313 1578   2.650   0.708   7.774 -0.1139  0.4167 -0.1707
   12SAPS  H13X 1579   2.610   0.657   7.864  2.0809 -0.9386  0.1085
   12SAPS  H13Y 1580   2.651   0.818   7.790 -0.4829  0.4176 -0.1448
   12SAPS  C314 1581   2.799   0.665   7.771 -0.0580 -0.3535 -0.1910
   12SAPS  H14X 1582   2.845   0.717   7.684  0.3823  0.0521  0.2765
   12SAPS  H14Y 1583   2.802   0.555   7.757  2.3441 -0.1888 -1.5714
   12SAPS  C315 1584   2.889   0.707   7.893  0.6344 -0.4958 -0.4336
   12SAPS  H15X 1585   2.905   0.815   7.870 -2.5964 -0.0945 -1.2728
   12SAPS  H15Y 1586   2.989   0.659   7.880  0.9674 -0.2629  1.0336
   12SAPS  C316 1587   2.842   0.674   8.032 -0.2353 -0.0997 -0.0919
   12SAPS  H16X 1588   2.733   0.693   8.033 -0.0158  1.3319  1.5448
   12SAPS  H16Y 1589   2.877   0.758   8.095  0.1098 -0.4811  0.2351
   12SAPS  C317 1590   2.912   0.540   8.071 -0.1503  0.1163  0.4303
   12SAPS  H17X 1591   3.014   0.554   8.112 -0.0906 -1.4387  0.8509
   12SAPS  H17Y 1592   2.919   0.479   7.979  2.1318  0.6400  0.1889
   12SAPS  C318 1593   2.835   0.458   8.173 -0.5746 -0.2113  0.4770
   12SAPS  H18X 1594   2.890   0.365   8.196 -0.1689 -0.0153  0.3049
   12SAPS  H18Y 1595   2.742   0.421   8.125  0.4477 -2.4399  0.0946
   12SAPS  H18Z 1596   2.808   0.522   8.260  0.3726  1.1613 -0.2103
   13SAPS     N 1597   3.104   3.528   6.492  0.3116 -0.2052  0.4507
   13SAPS   HN1 1598   3.126   3.606   6.426 -0.5133  1.7079  2.3004
   13SAPS   HN2 1599   3.014   3.550   6.539 -0.4204 -1.7586 -0.1864
   13SAPS   HN3 1600   3.181   3.526   6.562 -0.6182 -2.7209  1.5170
   13SAPS   C12 1601   3.101   3.398   6.405  0.5851 -0.1776 -0.2513
   13SAPS  H12A 1602   3.110   3.332   6.490  0.5595 -1.0815 -0.9343
   13SAPS   C13 1603   2.977   3.377   6.317 -0.9063  0.8867 -0.2210
   13SAPS  O13A 1604   2.883   3.457   6.308 -0.7226  0.4775 -0.0093
   13SAPS  O13B 1605   2.968   3.263   6.259 -0.1822 -0.3388  0.1894
   13SAPS   C11 1606   3.231   3.401   6.320  0.9164  0.1894  0.2771
   13SAPS  H11A 1607   3.226   3.492   6.256  2.8877  2.1175  2.6744
   13SAPS  H11B 1608   3.219   3.308   6.260 -1.7453  0.5077  0.1983
   13SAPS     P 1609   3.484   3.383   6.319 -0.5147  0.1153 -0.1259
   13SAPS   O13 1610   3.485   3.436   6.180  0.4402  0.2743 -0.8550
   13SAPS   O14 1611   3.597   3.430   6.403 -0.3352  0.0273  0.0272
   13SAPS   O12 1612   3.349   3.402   6.396  0.1168  0.3387 -0.1238
   13SAPS   O11 1613   3.511   3.232   6.300 -0.5583  0.3755 -0.0649
   13SAPS    C1 1614   3.446   3.142   6.392  0.4345  0.0035 -0.2962
   13SAPS    HA 1615   3.336   3.150   6.376  0.3841  2.1388  0.7461
   13SAPS    HB 1616   3.472   3.037   6.365 -0.7117 -0.3934  0.0492
   13SAPS    C2 1617   3.482   3.161   6.543  0.7053  0.0308  1.1285
   13SAPS    HS 1618   3.464   3.269   6.562 -2.5991 -0.7176  3.0579
   13SAPS   O21 1619   3.619   3.115   6.571  0.2838  0.3498  0.9725
   13SAPS   C21 1620   3.683   3.196   6.649  0.1401 -0.1098  0.1635
   13SAPS   O22 1621   3.647   3.292   6.711  0.3221 -0.5146  0.3500
   13SAPS   C22 1622   3.829   3.152   6.659  0.9991  0.0645 -1.0038
   13SAPS   H2R 1623   3.854   3.117   6.557 -2.6498  0.5516 -2.2264
   13SAPS   H2S 1624   3.879   3.247   6.688  1.5052 -0.2999 -0.6902
   13SAPS    C3 1625   3.396   3.081   6.640  0.4097  0.4286  0.3840
   13SAPS    HX 1626   3.393   2.972   6.616 -1.6200  0.3929  0.6853
   13SAPS    HY 1627   3.288   3.098   6.626  0.4533  0.0475 -0.4768
   13SAPS   O31 1628   3.436   3.085   6.784  0.4451 -1.2011  0.5692
   13SAPS   C31 1629   3.392   3.197   6.842  0.3162  0.1571 -0.0162
   13SAPS   O32 1630   3.337   3.292   6.784 -0.0994 -0.1582 -0.2767
   13SAPS   C32 1631   3.400   3.183   6.993  0.1816  0.4031  0.1692
   13SAPS   H2X 1632   3.496   3.135   7.023 -0.0851 -0.0261  0.3471
   13SAPS   H2Y 1633   3.324   3.107   7.020  1.5778 -1.7337 -1.5503
   13SAPS   C23 1634   3.855   3.049   6.766 -0.0366  0.0581  0.2292
   13SAPS   H3R 1635   3.845   2.954   6.709  0.2751 -1.0351  1.9149
   13SAPS   H3S 1636   3.787   3.053   6.854 -0.7571  0.7928 -0.3598
   13SAPS   C24 1637   3.998   3.056   6.820  0.4540 -0.0322  0.0238
   13SAPS   H4R 1638   4.001   3.147   6.884 -0.2829  1.1520 -1.5567
   13SAPS   H4S 1639   4.073   3.079   6.741 -0.2095 -0.5875 -0.7797
   13SAPS   C25 1640   4.051   2.936   6.890 -0.3541  0.3936  0.1014
   13SAPS   H5R 1641   4.091   2.851   6.832  0.8221 -0.0017  1.4540
   13SAPS   C26 1642   4.054   2.922   7.025 -0.6099  0.4465 -0.2987
   13SAPS   H6R 1643   4.086   2.826   7.070  0.5073  0.6348 -0.6825
   13SAPS   C27 1644   4.014   3.024   7.123 -0.7278  0.5944  0.2697
   13SAPS   H7R 1645   4.008   3.121   7.069 -1.7356 -0.1026 -0.9393
   13SAPS   H7S 1646   4.098   3.040   7.194  0.6148  0.7125 -1.2761
   13SAPS   C28 1647   3.886   2.997   7.200 -0.0703 -0.3173  0.4135
   13SAPS   H8R 1648   3.794   2.987   7.141  0.5793 -0.1843 -0.6353
   13SAPS   C29 1649   3.871   2.991   7.332  0.2979 -0.3812 -0.1589
   13SAPS   H9R 1650   3.776   2.964   7.382  0.9125  0.7025  1.7082
   13SAPS  C210 1651   3.969   3.001   7.441 -0.2365  0.8706 -0.3434
   13SAPS  H10R 1652   4.062   3.038   7.394 -0.3068  0.3045 -0.9267
   13SAPS  H10S 1653   3.997   2.898   7.472 -1.8439  0.7674  0.9454
   13SAPS  C211 1654   3.926   3.077   7.569 -0.3761  0.0783 -0.5734
   13SAPS  H11R 1655   3.923   3.187   7.568  1.1757  0.1792  1.2455
   13SAPS  C212 1656   3.882   3.019   7.682  0.2725 -1.5496  0.0130
   13SAPS  H12R 1657   3.857   3.082   7.769  0.0973 -1.9742  0.2737
   13SAPS  C213 1658   3.868   2.876   7.715 -0.0695 -0.3260  0.4087
   13SAPS  H13R 1659   3.935   2.810   7.656 -0.4066 -1.2310  1.0177
   13SAPS  H13S 1660   3.764   2.844   7.690 -1.0780  1.2108  2.3560
   13SAPS  C214 1661   3.906   2.845   7.855 -0.2981  0.3254 -0.1070
   13SAPS  H14R 1662   4.015   2.837   7.864 -0.0774  0.3526 -2.1436
   13SAPS  C215 1663   3.816   2.810   7.950  0.0212 -0.3005  0.0418
   13SAPS  H15R 1664   3.858   2.787   8.049  2.4533  0.0389 -0.8157
   13SAPS  C216 1665   3.668   2.783   7.932 -0.1400 -0.0024 -0.2133
   13SAPS  H16R 1666   3.645   2.680   7.896  2.7813 -1.2242  1.0758
   13SAPS  H16S 1667   3.607   2.841   7.860 -0.1029  2.0468  1.3184
   13SAPS  C217 1668   3.601   2.812   8.069 -0.8194 -0.3095 -0.6664
   13SAPS  H17R 1669   3.615   2.919   8.099  0.3527 -0.8582  0.9090
   13SAPS  H17S 1670   3.643   2.746   8.148 -0.0257  2.4670  1.3950
   13SAPS  C218 1671   3.443   2.800   8.051  0.2164 -0.0660 -0.4547
   13SAPS  H18R 1672   3.403   2.703   8.015 -3.4746  0.3770  1.8994
   13SAPS  H18S 1673   3.411   2.871   7.973 -0.4137 -0.5666 -0.6573
   13SAPS  C219 1674   3.387   2.832   8.191  0.3317 -0.1809  0.3609
   13SAPS  H19R 1675   3.430   2.932   8.213  3.2759 -0.9333 -1.4782
   13SAPS  H19S 1676   3.423   2.757   8.265  0.1871 -0.9680 -0.3603
   13SAPS  C220 1677   3.235   2.826   8.193 -0.4660  0.8952 -0.1519
   13SAPS  H20R 1678   3.195   2.915   8.141  1.1278  1.8684  0.2075
   13SAPS  H20S 1679   3.186   2.829   8.293  0.0377 -0.1521  0.1429
   13SAPS  H20T 1680   3.197   2.737   8.139 -1.4206  1.6374 -0.7284
   13SAPS   C33 1681   3.378   3.315   7.070 -0.3392 -0.6053 -0.7974
   13SAPS   H3X 1682   3.289   3.377   7.048 -0.2821  0.7622  2.2637
   13SAPS   H3Y 1683   3.467   3.379   7.051  0.7723 -2.4929 -2.2919
   13SAPS   C34 1684   3.373   3.295   7.222 -0.6832  0.1974  0.4662
   13SAPS   H4X 1685   3.468   3.250   7.256  0.0597  0.8918 -0.6221
   13SAPS   H4Y 1686   3.284   3.236   7.250 -0.2289 -0.8671 -0.2885
   13SAPS   C35 1687   3.363   3.428   7.302  0.0415 -0.0059 -0.7205
   13SAPS   H5X 1688   3.256   3.459   7.310 -0.1886 -0.6098 -1.2728
   13SAPS   H5Y 1689   3.417   3.510   7.250  0.2460 -0.2939 -0.9627
   13SAPS   C36 1690   3.433   3.423   7.437 -0.2976 -0.3575 -0.3841
   13SAPS   H6X 1691   3.537   3.385   7.424 -0.8897 -2.1333 -0.2213
   13SAPS   H6Y 1692   3.387   3.338   7.492  0.0613 -0.3884 -0.1287
   13SAPS   C37 1693   3.411   3.549   7.523 -0.3999  0.3563 -0.3474
   13SAPS   H7X 1694   3.302   3.546   7.545 -0.6539 -3.0068 -1.5274
   13SAPS   H7Y 1695   3.431   3.639   7.460 -1.7757  1.8116  1.1886
   13SAPS   C38 1696   3.488   3.552   7.652 -1.2460  0.5879  0.4432
   13SAPS   H8X 1697   3.464   3.458   7.706 -3.6538 -0.0380 -1.5353
   13SAPS   H8Y 1698   3.461   3.639   7.716  0.3773  2.0655 -0.8030
   13SAPS   C39 1699   3.641   3.562   7.619  0.5488 -0.4238 -0.5194
   13SAPS   H9X 1700   3.664   3.639   7.544  0.0348 -0.8533 -1.1264
   13SAPS   H9Y 1701   3.684   3.469   7.575  2.3141 -1.3440  2.7582
   13SAPS  C310 1702   3.729   3.584   7.744 -0.5008  0.2111 -0.2718
   13SAPS  H10X 1703   3.704   3.679   7.794 -1.1764 -0.5177  0.8039
   13SAPS  H10Y 1704   3.835   3.593   7.710  0.0285  0.1434  1.2878
   13SAPS  C311 1705   3.723   3.464   7.844 -0.0991  0.0817  0.0826
   13SAPS  H11X 1706   3.742   3.371   7.788 -1.7455  0.2118 -0.7645
   13SAPS  H11Y 1707   3.615   3.463   7.874  0.3606  0.5282  1.9206
   13SAPS  C312 1708   3.823   3.472   7.959  0.1022 -0.4234  0.7076
   13SAPS  H12X 1709   3.827   3.566   8.016  1.9233 -0.3185  0.4850
   13SAPS  H12Y 1710   3.926   3.484   7.917  0.8095 -0.4572  2.3534
   13SAPS  C313 1711   3.818   3.350   8.047 -0.0089 -0.0539  1.0369
   13SAPS  H13X 1712   3.914   3.336   8.100 -0.2239 -1.8441  1.0006
   13SAPS  H13Y 1713   3.812   3.267   7.973  3.3474  0.8912 -0.4588
   13SAPS  C314 1714   3.698   3.363   8.130 -0.3227 -0.3598  0.3430
   13SAPS  H14X 1715   3.605   3.355   8.070 -0.9395 -0.5859  1.3128
   13SAPS  H14Y 1716   3.699   3.453   8.195 -0.7285 -0.8010  0.9700
   13SAPS  C315 1717   3.695   3.254   8.232 -0.3503 -0.6889 -0.4904
   13SAPS  H15X 1718   3.796   3.240   8.274  0.3825  1.9422 -1.2095
   13SAPS  H15Y 1719   3.660   3.160   8.185  0.7168 -1.4109  0.1227
   13SAPS  C316 1720   3.589   3.281   8.342  0.6836  0.0533  0.1240
   13SAPS  H16X 1721   3.588   3.184   8.398 -0.6503  0.4085  0.7605
   13SAPS  H16Y 1722   3.492   3.296   8.290  0.2157  0.2954  1.0290
   13SAPS  C317 1723   3.620   3.394   8.440  1.1768  0.4177 -0.9948
   13SAPS  H17X 1724   3.586   3.490   8.395  1.8699  1.2067  0.1361
   13SAPS  H17Y 1725   3.728   3.406   8.460  1.0128  1.1466 -0.5171
   13SAPS  C318 1726   3.544   3.362   8.570  0.2370 -0.0340  0.0571
   13SAPS  H18X 1727   3.444   3.322   8.543 -0.4741 -0.0740  2.4833
   13SAPS  H18Y 1728   3.530   3.462   8.616  2.1063  0.7533 -0.9906
   13SAPS  H18Z 1729   3.600   3.299   8.642  2.4470 -0.6748 -2.0977
   14SAPS     N 1730   2.847   6.424   5.669  0.2131 -0.0079 -0.2887
   14SAPS   HN1 1731   2.807   6.443   5.575  1.1630 -1.7799 -1.1050
   14SAPS   HN2 1732   2.932   6.364   5.668  0.2478  0.0429 -0.3726
   14SAPS   HN3 1733   2.775   6.381   5.730 -0.2745 -0.0617 -0.8962
   14SAPS   C12 1734   2.868   6.555   5.750  0.0201 -0.2183  0.4550
   14SAPS  H12A 1735   2.860   6.524   5.853 -2.7797 -0.9056  0.1314
   14SAPS   C13 1736   3.009   6.622   5.725  0.6122  0.3958 -0.0774
   14SAPS  O13A 1737   3.085   6.575   5.644  0.4816 -0.0563  0.4281
   14SAPS  O13B 1738   3.055   6.715   5.797 -0.4891  0.0218  0.5769
   14SAPS   C11 1739   2.754   6.665   5.735 -0.1794 -0.3749 -0.4143
   14SAPS  H11A 1740   2.760   6.704   5.631 -3.1631 -0.6424 -0.7739
   14SAPS  H11B 1741   2.770   6.747   5.809  0.2447 -0.9538  0.1466
   14SAPS     P 1742   2.555   6.547   5.874 -0.3493  0.9975  0.0234
   14SAPS   O13 1743   2.416   6.535   5.838  0.1885 -0.0345 -0.2189
   14SAPS   O14 1744   2.628   6.431   5.920 -0.3454  0.2648 -0.8015
   14SAPS   O12 1745   2.625   6.614   5.756  0.2653  0.4043  0.2281
   14SAPS   O11 1746   2.562   6.655   5.988  0.3529  0.8265  0.3017
   14SAPS    C1 1747   2.646   6.660   6.099  0.3267 -0.7383 -0.2502
   14SAPS    HA 1748   2.748   6.616   6.094  1.1680  0.9703  0.6265
   14SAPS    HB 1749   2.666   6.769   6.112 -0.8643 -0.5056 -0.2196
   14SAPS    C2 1750   2.584   6.597   6.229 -0.5808 -0.4549 -0.7121
   14SAPS    HS 1751   2.594   6.488   6.210  0.9767 -0.3452 -0.6831
   14SAPS   O21 1752   2.450   6.639   6.247 -0.5414  0.1977  0.6906
   14SAPS   C21 1753   2.372   6.589   6.349  0.5470 -0.0499  0.4290
   14SAPS   O22 1754   2.409   6.502   6.423 -0.2302 -0.2275 -0.2130
   14SAPS   C22 1755   2.225   6.649   6.348  0.3374 -0.1911 -0.4707
   14SAPS   H2R 1756   2.218   6.750   6.302 -1.8826  0.0678  0.3341
   14SAPS   H2S 1757   2.182   6.586   6.268 -0.3263 -0.6084  0.2002
   14SAPS    C3 1758   2.672   6.633   6.352 -0.0693  0.8258 -0.4607
   14SAPS    HX 1759   2.626   6.567   6.430 -1.9212  1.6860 -0.7571
   14SAPS    HY 1760   2.670   6.741   6.380  2.4067  0.8753 -0.2579
   14SAPS   O31 1761   2.812   6.601   6.329 -0.1942 -0.7182  0.2422
   14SAPS   C31 1762   2.849   6.477   6.371  0.0761  1.0945 -0.3401
   14SAPS   O32 1763   2.773   6.387   6.401 -0.3903  0.0634 -0.6337
   14SAPS   C32 1764   3.003   6.477   6.368 -0.7972  0.2882 -0.0246
   14SAPS   H2X 1765   3.039   6.582   6.368 -0.2780  0.1141 -0.4598
   14SAPS   H2Y 1766   3.030   6.426   6.273  1.8089  2.2570 -0.4370
   14SAPS   C23 1767   2.148   6.629   6.478 -0.7895  0.5522 -0.3146
   14SAPS   H3R 1768   2.145   6.519   6.494 -0.8895  0.2680 -2.0623
   14SAPS   H3S 1769   2.039   6.654   6.476 -0.7892  0.6370  0.4728
   14SAPS   C24 1770   2.221   6.695   6.599  0.0518 -0.0815  0.0019
   14SAPS   H4R 1771   2.329   6.670   6.588 -0.1543 -1.4585  0.8146
   14SAPS   H4S 1772   2.189   6.649   6.695 -0.6584 -0.1476 -0.2641
   14SAPS   C25 1773   2.218   6.844   6.595  0.2299  0.5009 -0.0708
   14SAPS   H5R 1774   2.265   6.881   6.502  0.6354 -1.6676 -0.7923
   14SAPS   C26 1775   2.159   6.929   6.676  0.0688  0.2019 -0.3439
   14SAPS   H6R 1776   2.157   7.037   6.655 -0.0500  0.4764  0.9822
   14SAPS   C27 1777   2.077   6.883   6.803  0.2395 -0.1465 -0.4315
   14SAPS   H7R 1778   2.096   6.979   6.856 -1.0628  0.2635 -0.6639
   14SAPS   H7S 1779   2.127   6.808   6.868 -0.2282 -0.0999 -0.0019
   14SAPS   C28 1780   1.931   6.855   6.772 -0.5044 -0.0208 -0.6815
   14SAPS   H8R 1781   1.906   6.835   6.667 -2.2570  0.3671 -0.3791
   14SAPS   C29 1782   1.832   6.832   6.867  0.6563 -0.0109 -0.0448
   14SAPS   H9R 1783   1.729   6.809   6.836  0.6666 -2.5713  1.4835
   14SAPS  C210 1784   1.853   6.823   7.015  0.3556 -0.5231  0.1970
   14SAPS  H10R 1785   1.953   6.782   7.042 -0.3719 -1.8961  0.8969
   14SAPS  H10S 1786   1.779   6.752   7.057 -0.6037  0.2512 -0.1623
   14SAPS  C211 1787   1.835   6.959   7.071 -0.1266 -0.8582  0.1281
   14SAPS  H11R 1788   1.760   7.024   7.022  0.5005 -1.9335 -2.4052
   14SAPS  C212 1789   1.874   6.992   7.199  0.2800 -0.1466  0.3913
   14SAPS  H12R 1790   1.851   7.094   7.233 -1.5424 -0.1869 -0.5797
   14SAPS  C213 1791   1.953   6.911   7.296  0.0706  0.2679  0.0072
   14SAPS  H13R 1792   1.951   6.805   7.262  0.4765  0.7451 -1.5767
   14SAPS  H13S 1793   1.919   6.903   7.402  1.4187 -2.6343  0.3339
   14SAPS  C214 1794   2.099   6.934   7.289 -0.2388 -0.1238 -0.1971
   14SAPS  H14R 1795   2.142   6.912   7.190 -2.5511  1.6652 -1.7015
   14SAPS  C215 1796   2.178   6.982   7.390  0.4559 -0.1827 -0.4847
   14SAPS  H15R 1797   2.281   7.005   7.361  0.9324  0.0021  1.2222
   14SAPS  C216 1798   2.142   7.007   7.532  0.2085  0.4035  0.2785
   14SAPS  H16R 1799   2.047   6.957   7.560  1.5052 -1.2665  1.9637
   14SAPS  H16S 1800   2.133   7.117   7.535 -2.8508  0.2722 -0.8315
   14SAPS  C217 1801   2.253   6.963   7.628  0.0427 -0.0510 -0.1085
   14SAPS  H17R 1802   2.353   6.983   7.584  0.4167  1.0753  1.1874
   14SAPS  H17S 1803   2.250   6.853   7.644 -0.1939 -0.5261 -2.9789
   14SAPS  C218 1804   2.262   7.044   7.761 -0.1194 -0.1599 -0.3808
   14SAPS  H18R 1805   2.281   7.148   7.725 -0.8846  0.3841  0.7008
   14SAPS  H18S 1806   2.351   7.005   7.815 -0.2795 -1.9443 -1.3651
   14SAPS  C219 1807   2.142   7.055   7.855  0.4378  0.2565 -0.4926
   14SAPS  H19R 1808   2.061   7.110   7.803  1.7247  3.2030  0.4017
   14SAPS  H19S 1809   2.153   7.115   7.948 -0.2663  1.6852 -1.3011
   14SAPS  C220 1810   2.084   6.910   7.903 -0.0818 -0.6803  0.3038
   14SAPS  H20R 1811   2.038   6.848   7.822 -2.3697 -0.7892  1.6066
   14SAPS  H20S 1812   2.003   6.937   7.973  0.5332  1.5231  0.2259
   14SAPS  H20T 1813   2.162   6.847   7.951 -0.8007 -3.9375 -2.4088
   14SAPS   C33 1814   3.072   6.404   6.486  0.6589  0.0381 -0.1277
   14SAPS   H3X 1815   3.176   6.384   6.454  0.3481 -0.9505 -0.5708
   14SAPS   H3Y 1816   3.027   6.305   6.509 -0.9550  0.1336 -2.5456
   14SAPS   C34 1817   3.057   6.486   6.617 -0.0297 -0.7596  0.6215
   14SAPS   H4X 1818   3.066   6.593   6.590 -3.7778 -0.2199  0.9034
   14SAPS   H4Y 1819   3.151   6.474   6.674  0.6912  2.5957  0.3200
   14SAPS   C35 1820   2.947   6.466   6.713 -0.0945  0.2870 -0.5015
   14SAPS   H5X 1821   2.945   6.360   6.747 -0.6076  0.3558 -0.3098
   14SAPS   H5Y 1822   2.852   6.470   6.656  0.4798 -1.3996 -1.6619
   14SAPS   C36 1823   2.956   6.561   6.829 -0.4502  0.3016 -1.0999
   14SAPS   H6X 1824   2.930   6.665   6.797  0.5542  1.0243  0.3377
   14SAPS   H6Y 1825   3.062   6.563   6.861 -0.9183 -0.7980  0.6870
   14SAPS   C37 1826   2.885   6.529   6.961 -0.5131  0.2480  0.4336
   14SAPS   H7X 1827   2.930   6.435   7.001 -0.5446 -0.3066 -0.7701
   14SAPS   H7Y 1828   2.776   6.513   6.944 -0.5398  0.7390  0.1428
   14SAPS   C38 1829   2.900   6.642   7.066  0.4881  0.0879 -0.0207
   14SAPS   H8X 1830   2.842   6.726   7.022  1.4010  0.0641 -1.3420
   14SAPS   H8Y 1831   3.007   6.673   7.072  0.5873  0.1371 -1.6323
   14SAPS   C39 1832   2.854   6.602   7.209  0.1781 -0.1555 -0.6205
   14SAPS   H9X 1833   2.893   6.501   7.233  2.7610  0.7973 -0.4925
   14SAPS   H9Y 1834   2.743   6.593   7.214  0.2047 -0.7123 -0.9786
   14SAPS  C310 1835   2.901   6.690   7.324 -0.4621 -0.3901  0.7466
   14SAPS  H10X 1836   2.845   6.786   7.324  0.8080  0.3814  0.0094
   14SAPS  H10Y 1837   3.008   6.718   7.307 -1.3626  1.8675 -2.0782
   14SAPS  C311 1838   2.889   6.612   7.458  0.2583 -0.5778  0.3117
   14SAPS  H11X 1839   2.923   6.507   7.457 -2.2455 -1.4930  2.0632
   14SAPS  H11Y 1840   2.782   6.615   7.487 -1.1208 -0.6916 -3.9979
   14SAPS  C312 1841   2.975   6.676   7.569 -1.2061  0.5984  0.1520
   14SAPS  H12X 1842   2.967   6.787   7.568  0.3804  0.7461 -0.6457
   14SAPS  H12Y 1843   3.083   6.657   7.551 -1.3218  1.2470 -1.5176
   14SAPS  C313 1844   2.945   6.632   7.707  0.2681 -0.0894 -0.6366
   14SAPS  H13X 1845   2.975   6.525   7.706 -0.8323 -0.4794 -3.6520
   14SAPS  H13Y 1846   2.838   6.658   7.720 -0.2993 -1.8891 -1.4196
   14SAPS  C314 1847   3.036   6.710   7.802 -0.1572  0.6190 -0.4203
   14SAPS  H14X 1848   3.053   6.815   7.769  0.3417  0.7600  0.2639
   14SAPS  H14Y 1849   3.138   6.666   7.798 -0.3963 -0.1667  1.3273
   14SAPS  C315 1850   2.991   6.700   7.953 -0.2798 -0.4072 -0.6702
   14SAPS  H15X 1851   2.990   6.595   7.987 -3.0874 -0.3030 -0.2337
   14SAPS  H15Y 1852   2.884   6.730   7.954 -0.3749 -0.7528  0.1984
   14SAPS  C316 1853   3.064   6.794   8.056 -0.6318  0.0204 -0.4132
   14SAPS  H16X 1854   3.046   6.897   8.019 -0.6133 -0.2128 -1.0691
   14SAPS  H16Y 1855   3.170   6.763   8.042 -0.2377  1.0730  0.1107
   14SAPS  C317 1856   3.021   6.774   8.203  0.3003  0.4697 -0.4447
   14SAPS  H17X 1857   3.111   6.735   8.255 -0.7144 -0.7672  0.4743
   14SAPS  H17Y 1858   2.937   6.701   8.209 -0.0814  0.9400  0.1057
   14SAPS  C318 1859   2.971   6.900   8.271 -0.0915 -0.1447  0.1970
   14SAPS  H18X 1860   2.903   6.872   8.354  1.1204 -1.1528  0.8801
   14SAPS  H18Y 1861   2.903   6.944   8.195  0.3903 -0.7718 -0.6266
   14SAPS  H18Z 1862   3.045   6.981   8.286 -0.8251  0.3110  1.4025
   15SAPS     N 1863   3.256   5.645   6.007 -0.2369 -0.0659 -0.3018
   15SAPS   HN1 1864   3.170   5.599   6.044  1.5560 -0.1545  4.4911
   15SAPS   HN2 1865   3.328   5.606   6.071  1.8953  1.1741 -1.7911
   15SAPS   HN3 1866   3.239   5.746   6.026 -2.1291 -0.2364 -0.8690
   15SAPS   C12 1867   3.278   5.600   5.864 -0.3661  0.8199 -0.1899
   15SAPS  H12A 1868   3.263   5.494   5.878 -0.8966  1.2596  3.6316
   15SAPS   C13 1869   3.185   5.656   5.758  0.2338  0.2372  0.4363
   15SAPS  O13A 1870   3.101   5.747   5.781 -0.3084 -0.2812 -0.0047
   15SAPS  O13B 1871   3.194   5.603   5.641  0.5206 -0.0728 -0.7670
   15SAPS   C11 1872   3.418   5.635   5.825 -0.3716  0.4414  0.1569
   15SAPS  H11A 1873   3.434   5.736   5.868  0.7940  0.0384  0.7132
   15SAPS  H11B 1874   3.423   5.639   5.714  0.0073 -0.8221  0.1102
   15SAPS     P 1875   3.618   5.570   5.988  0.1587 -0.0830 -0.2476
   15SAPS   O13 1876   3.687   5.446   6.026  0.0405  0.0611  0.6698
   15SAPS   O14 1877   3.699   5.689   5.956 -0.1553 -0.8124 -0.2523
   15SAPS   O12 1878   3.526   5.548   5.867  0.5000  0.1887  0.5712
   15SAPS   O11 1879   3.510   5.609   6.094 -0.4029  0.3468  0.1663
   15SAPS    C1 1880   3.537   5.606   6.235 -0.4554  0.1870  0.5779
   15SAPS    HA 1881   3.643   5.578   6.251 -0.3304 -0.2266 -0.8293
   15SAPS    HB 1882   3.524   5.709   6.275 -1.2281  1.2996 -2.3105
   15SAPS    C2 1883   3.433   5.511   6.317 -0.3425 -0.2060 -0.5758
   15SAPS    HS 1884   3.434   5.419   6.254  1.4380 -1.9687  1.7934
   15SAPS   O21 1885   3.303   5.572   6.307 -0.2861  0.1508 -0.4673
   15SAPS   C21 1886   3.201   5.505   6.359  0.2915 -0.6809 -1.2752
   15SAPS   O22 1887   3.203   5.386   6.380 -0.1064  0.0532 -0.4755
   15SAPS   C22 1888   3.082   5.602   6.379  0.3399 -0.4086  0.8734
   15SAPS   H2R 1889   3.097   5.685   6.307  0.8339  0.0376  1.4772
   15SAPS   H2S 1890   2.983   5.555   6.363 -0.4476  1.2222  0.8180
   15SAPS    C3 1891   3.489   5.491   6.463 -0.2950 -0.0886  0.1750
   15SAPS    HX 1892   3.594   5.460   6.443 -0.4379 -0.1164 -0.5729
   15SAPS    HY 1893   3.419   5.413   6.497 -0.8681 -0.8503 -2.4949
   15SAPS   O31 1894   3.486   5.614   6.544  0.1799 -0.4632  0.0094
   15SAPS   C31 1895   3.578   5.628   6.636  0.3262 -0.6301  0.0782
   15SAPS   O32 1896   3.666   5.545   6.653  0.5020 -0.5917  0.6608
   15SAPS   C32 1897   3.561   5.763   6.705 -0.1701  0.2839 -0.4959
   15SAPS   H2X 1898   3.501   5.832   6.642  1.3026  1.3460 -0.8146
   15SAPS   H2Y 1899   3.662   5.808   6.719  0.2694 -1.3518  2.2856
   15SAPS   C23 1900   3.089   5.667   6.508 -0.4275 -0.0559 -0.6817
   15SAPS   H3R 1901   2.998   5.730   6.519 -0.8419 -0.7591  0.0420
   15SAPS   H3S 1902   3.174   5.739   6.508 -1.4403  1.1959 -1.4395
   15SAPS   C24 1903   3.100   5.575   6.628  0.7783  0.0038 -0.0566
   15SAPS   H4R 1904   3.195   5.517   6.621  0.3107 -1.1217  2.0576
   15SAPS   H4S 1905   3.013   5.507   6.622  1.6040 -0.9984 -1.1247
   15SAPS   C25 1906   3.094   5.648   6.757 -0.3188  0.6314 -0.1505
   15SAPS   H5R 1907   3.099   5.757   6.741 -0.6501  0.4745 -1.4392
   15SAPS   C26 1908   3.097   5.596   6.879  0.0410 -0.5183 -0.4553
   15SAPS   H6R 1909   3.080   5.669   6.959 -0.7868  0.5995 -1.6115
   15SAPS   C27 1910   3.087   5.452   6.919 -0.4521  0.2764 -0.0924
   15SAPS   H7R 1911   3.135   5.447   7.019 -0.4486  0.9171 -0.0565
   15SAPS   H7S 1912   3.137   5.386   6.844 -0.1253  2.1638 -1.6351
   15SAPS   C28 1913   2.939   5.418   6.914  0.1660 -0.0742  0.5210
   15SAPS   H8R 1914   2.898   5.419   6.812 -0.1848  0.5393  0.6630
   15SAPS   C29 1915   2.863   5.372   7.015  0.3946 -0.3320 -0.4472
   15SAPS   H9R 1916   2.758   5.344   7.004  0.3898 -1.3906  1.8281
   15SAPS  C210 1917   2.922   5.347   7.152 -0.3887  0.4277  0.0830
   15SAPS  H10R 1918   3.028   5.316   7.152 -0.6874 -0.7620 -1.9365
   15SAPS  H10S 1919   2.858   5.264   7.189  0.2507 -0.0366  0.1713
   15SAPS  C211 1920   2.914   5.466   7.246 -0.2329 -0.1239  0.6164
   15SAPS  H11R 1921   2.994   5.540   7.238  0.4542 -0.8182  0.9343
   15SAPS  C212 1922   2.813   5.494   7.330 -0.5494 -0.4540  0.2048
   15SAPS  H12R 1923   2.820   5.579   7.401  0.6467 -0.9907  0.7666
   15SAPS  C213 1924   2.687   5.414   7.356 -0.0527  0.7216  0.0896
   15SAPS  H13R 1925   2.678   5.342   7.272 -0.2935 -1.1039  1.6070
   15SAPS  H13S 1926   2.599   5.481   7.369 -0.5960 -0.0353  0.4079
   15SAPS  C214 1927   2.698   5.333   7.479  0.0492 -0.5149  0.2096
   15SAPS  H14R 1928   2.803   5.307   7.496 -0.0854  0.2887  2.6459
   15SAPS  C215 1929   2.602   5.278   7.556 -0.0468  0.8745  0.0864
   15SAPS  H15R 1930   2.632   5.219   7.644 -1.0520  1.5002  0.8767
   15SAPS  C216 1931   2.452   5.298   7.536  0.2527  0.2039  0.3182
   15SAPS  H16R 1932   2.395   5.207   7.566 -1.6970  0.7604 -1.4206
   15SAPS  H16S 1933   2.426   5.333   7.434  0.5048 -1.2561 -0.2573
   15SAPS  C217 1934   2.395   5.400   7.638  0.6356  0.6006  0.6379
   15SAPS  H17R 1935   2.289   5.418   7.608  0.2987 -2.2927 -0.1817
   15SAPS  H17S 1936   2.456   5.493   7.632 -0.5048  1.3269 -0.3459
   15SAPS  C218 1937   2.382   5.342   7.777  0.0201 -0.0181  0.2524
   15SAPS  H18R 1938   2.471   5.278   7.794  1.3562  1.9685  1.1453
   15SAPS  H18S 1939   2.289   5.282   7.779 -0.6833  1.0521  0.6670
   15SAPS  C219 1940   2.392   5.442   7.893 -0.5815  0.7845 -0.0482
   15SAPS  H19R 1941   2.488   5.498   7.887  0.9358 -1.5468  0.8933
   15SAPS  H19S 1942   2.408   5.381   7.984  1.4743 -0.6461 -1.2714
   15SAPS  C220 1943   2.277   5.533   7.883  0.3292 -0.1472 -0.0714
   15SAPS  H20R 1944   2.290   5.599   7.795 -1.1418  1.0340  0.5646
   15SAPS  H20S 1945   2.292   5.595   7.974 -0.5661  0.9190 -0.6405
   15SAPS  H20T 1946   2.180   5.479   7.872  0.3899 -0.0245 -1.3872
   15SAPS   C33 1947   3.502   5.739   6.845 -0.2283 -0.6880 -0.4517
   15SAPS   H3X 1948   3.398   5.778   6.848  1.1062  3.3021 -0.6659
   15SAPS   H3Y 1949   3.553   5.803   6.920  0.1511  1.4582 -2.4268
   15SAPS   C34 1950   3.490   5.597   6.900 -0.1431  0.0954 -0.1759
   15SAPS   H4X 1951   3.589   5.547   6.891  0.1110  0.3004  1.2438
   15SAPS   H4Y 1952   3.418   5.539   6.839  0.6800 -0.3007 -0.7982
   15SAPS   C35 1953   3.458   5.595   7.048  0.0173  0.6511 -0.4352
   15SAPS   H5X 1954   3.359   5.645   7.057 -1.6964 -2.5363 -0.3149
   15SAPS   H5Y 1955   3.532   5.661   7.099 -0.9110  0.8534  0.6865
   15SAPS   C36 1956   3.461   5.458   7.116  0.2049 -0.6459  0.2166
   15SAPS   H6X 1957   3.564   5.416   7.108  0.2525 -0.6554  0.8629
   15SAPS   H6Y 1958   3.401   5.388   7.054  0.3359  0.4663 -1.2363
   15SAPS   C37 1959   3.422   5.471   7.264  0.0856  0.0064 -0.3083
   15SAPS   H7X 1960   3.314   5.500   7.267  0.0475 -0.1136 -0.4857
   15SAPS   H7Y 1961   3.467   5.558   7.316 -2.5458  1.5801 -0.4579
   15SAPS   C38 1962   3.432   5.337   7.337  0.3289  0.4028  0.3075
   15SAPS   H8X 1963   3.517   5.279   7.295 -1.0145 -0.2594 -1.6491
   15SAPS   H8Y 1964   3.341   5.275   7.318 -0.0338  0.7361  0.9195
   15SAPS   C39 1965   3.426   5.360   7.493  0.2911 -0.1279 -0.0033
   15SAPS   H9X 1966   3.497   5.430   7.543 -0.4972  1.0884 -0.5402
   15SAPS   H9Y 1967   3.448   5.260   7.536 -1.1414 -0.4382  0.0507
   15SAPS  C310 1968   3.289   5.402   7.552 -0.1925 -0.2138  0.2105
   15SAPS  H10X 1969   3.210   5.325   7.541  0.9086 -1.6650  1.9209
   15SAPS  H10Y 1970   3.246   5.487   7.495 -2.1286 -0.5723  1.0489
   15SAPS  C311 1971   3.289   5.436   7.700 -0.1661 -0.8946  0.2783
   15SAPS  H11X 1972   3.204   5.501   7.731  1.1635  0.8377  0.4855
   15SAPS  H11Y 1973   3.373   5.505   7.723  0.6964 -1.9746  0.4489
   15SAPS  C312 1974   3.307   5.311   7.793 -0.2287 -0.2211 -0.3382
   15SAPS  H12X 1975   3.386   5.241   7.760 -0.9303 -0.8201 -0.7694
   15SAPS  H12Y 1976   3.210   5.257   7.788 -0.8233  0.8509 -0.7638
   15SAPS  C313 1977   3.316   5.351   7.942  0.4288  0.1590 -0.1204
   15SAPS  H13X 1978   3.406   5.414   7.958  0.7210  0.1592 -1.6557
   15SAPS  H13Y 1979   3.315   5.261   8.007 -2.7345  1.2080  1.4868
   15SAPS  C314 1980   3.193   5.434   7.991  0.0057  0.1277  0.8639
   15SAPS  H14X 1981   3.101   5.372   7.978  0.5156 -0.8571  1.8046
   15SAPS  H14Y 1982   3.175   5.525   7.931  1.3875  0.2715  0.6456
   15SAPS  C315 1983   3.211   5.469   8.139  0.2749 -0.2889 -0.1555
   15SAPS  H15X 1984   3.308   5.520   8.158 -0.3823  1.0237 -0.1455
   15SAPS  H15Y 1985   3.209   5.373   8.194  1.8934 -0.4456 -0.3256
   15SAPS  C316 1986   3.094   5.560   8.166  0.6173 -1.0998  0.3681
   15SAPS  H16X 1987   2.992   5.516   8.157 -0.5878  1.6041 -0.3452
   15SAPS  H16Y 1988   3.091   5.647   8.096  0.4319 -1.1141  0.3566
   15SAPS  C317 1989   3.098   5.621   8.309 -0.2159  0.2135  0.0794
   15SAPS  H17X 1990   3.036   5.712   8.311  1.7687  1.6172  1.9824
   15SAPS  H17Y 1991   3.205   5.645   8.330 -0.1389  0.1971 -0.2886
   15SAPS  C318 1992   3.043   5.518   8.418  0.3160 -0.1295  0.2659
   15SAPS  H18X 1993   2.940   5.486   8.394  0.8463 -1.9573  0.2505
   15SAPS  H18Y 1994   3.034   5.561   8.520 -0.9563  1.2309 -0.3833
   15SAPS  H18Z 1995   3.105   5.426   8.426  1.7851  0.7702 -0.2718
   16SAPS     N 1996   5.090   2.791   6.505 -0.1654 -0.3134 -0.0800
   16SAPS   HN1 1997   5.192   2.799   6.488  0.1607 -1.1908  1.2843
   16SAPS   HN2 1998   5.080   2.801   6.608  0.2812 -2.1428  0.1714
   16SAPS   HN3 1999   5.050   2.695   6.499 -1.3053  0.0886  0.7119
   16SAPS   C12 2000   5.003   2.885   6.430  0.2515 -0.3070 -0.4293
   16SAPS  H12A 2001   5.059   2.914   6.343  2.1328  1.3691  1.2528
   16SAPS   C13 2002   4.862   2.830   6.391  0.5165  0.3254  0.0118
   16SAPS  O13A 2003   4.822   2.726   6.444  0.7127  0.0662 -0.0713
   16SAPS  O13B 2004   4.785   2.907   6.322 -0.0135  0.0717  0.4761
   16SAPS   C11 2005   4.977   3.014   6.519  0.2055 -0.2394  0.5629
   16SAPS  H11A 2006   4.902   2.985   6.596 -0.2451  0.0362  0.2290
   16SAPS  H11B 2007   4.936   3.085   6.445  0.4675 -1.5275 -0.8747
   16SAPS     P 2008   5.107   3.198   6.636  0.1180  0.0700  0.1903
   16SAPS   O13 2009   5.179   3.288   6.542 -0.3165 -0.1150 -0.5871
   16SAPS   O14 2010   4.978   3.236   6.693  0.0542 -0.1183  0.5230
   16SAPS   O12 2011   5.102   3.051   6.577 -0.2450 -0.2395  0.4581
   16SAPS   O11 2012   5.212   3.162   6.752 -0.4981 -0.2451 -0.0667
   16SAPS    C1 2013   5.166   3.103   6.873 -0.0730 -0.4903 -0.3112
   16SAPS    HA 2014   5.078   3.036   6.862 -1.3914  0.3258  3.4958
   16SAPS    HB 2015   5.253   3.053   6.920 -0.5820 -0.9956  0.1005
   16SAPS    C2 2016   5.114   3.216   6.974 -0.9237  0.2694 -0.2175
   16SAPS    HS 2017   5.008   3.235   6.951 -1.1691 -2.3480 -1.6034
   16SAPS   O21 2018   5.203   3.329   6.959  0.4416 -0.1896  0.9718
   16SAPS   C21 2019   5.145   3.435   7.005 -0.0229 -0.4638 -0.1283
   16SAPS   O22 2020   5.033   3.438   7.053 -0.4856 -0.2061 -0.9597
   16SAPS   C22 2021   5.245   3.556   6.983 -0.3936  0.1357 -0.6798
   16SAPS   H2R 2022   5.347   3.515   6.998 -0.3410 -0.3151 -2.1591
   16SAPS   H2S 2023   5.232   3.587   6.877 -2.8723 -0.7152 -0.7062
   16SAPS    C3 2024   5.111   3.159   7.117  0.6217  0.0292 -0.0153
   16SAPS    HX 2025   5.067   3.234   7.185  1.1238 -1.4710  2.0769
   16SAPS    HY 2026   5.217   3.140   7.148  0.3950 -0.1478  0.6636
   16SAPS   O31 2027   5.041   3.032   7.117  0.3005 -0.1071  0.3148
   16SAPS   C31 2028   4.910   3.043   7.133  0.0464  0.3678 -0.1406
   16SAPS   O32 2029   4.845   3.140   7.104  0.1116  0.0337 -0.3208
   16SAPS   C32 2030   4.854   2.914   7.187  0.1311  0.0937 -0.3302
   16SAPS   H2X 2031   4.905   2.832   7.132  1.1377  0.6176 -0.1929
   16SAPS   H2Y 2032   4.747   2.893   7.167  0.5396 -1.9337 -0.6055
   16SAPS   C23 2033   5.223   3.675   7.078 -0.4750  0.7370  0.0475
   16SAPS   H3R 2034   5.240   3.626   7.176 -1.6629 -1.0013 -0.5660
   16SAPS   H3S 2035   5.116   3.707   7.071 -0.0109  2.0372 -2.0200
   16SAPS   C24 2036   5.320   3.786   7.047 -0.2874 -0.4231  0.5112
   16SAPS   H4R 2037   5.321   3.805   6.937  1.2302  0.1114  0.5863
   16SAPS   H4S 2038   5.416   3.737   7.076  0.7602  0.2628 -1.5264
   16SAPS   C25 2039   5.305   3.910   7.135  0.1706  0.4570  0.0473
   16SAPS   H5R 2040   5.214   3.963   7.103 -1.2474 -2.1765 -0.5889
   16SAPS   C26 2041   5.376   3.948   7.244  0.0120  0.2491  0.1793
   16SAPS   H6R 2042   5.337   4.038   7.294 -2.8270 -0.8582  0.1442
   16SAPS   C27 2043   5.488   3.872   7.307  0.1172  0.7485 -0.3439
   16SAPS   H7R 2044   5.567   3.845   7.233  1.7529 -0.1926  1.6523
   16SAPS   H7S 2045   5.439   3.779   7.342  0.2632  0.5506 -0.6547
   16SAPS   C28 2046   5.553   3.936   7.423  0.2458 -0.2283  0.0635
   16SAPS   H8R 2047   5.602   4.030   7.394  0.2211 -0.2000  0.1129
   16SAPS   C29 2048   5.556   3.903   7.555  0.2528 -0.2660  0.4979
   16SAPS   H9R 2049   5.598   3.964   7.636  2.6645 -0.2200 -0.6865
   16SAPS  C210 2050   5.490   3.770   7.604  0.5104 -0.0948 -0.6044
   16SAPS  H10R 2051   5.540   3.739   7.699  0.0576 -0.2148 -0.4043
   16SAPS  H10S 2052   5.514   3.688   7.533 -1.8508 -1.8544  0.5123
   16SAPS  C211 2053   5.343   3.783   7.619 -0.5957 -0.4642 -0.0974
   16SAPS  H11R 2054   5.299   3.765   7.519  1.0052 -1.4242 -0.6676
   16SAPS  C212 2055   5.264   3.818   7.722 -0.2618  0.0291 -0.4139
   16SAPS  H12R 2056   5.157   3.816   7.698 -0.7834 -1.7342  1.7842
   16SAPS  C213 2057   5.314   3.853   7.856 -0.1158 -0.3029 -0.2715
   16SAPS  H13R 2058   5.310   3.964   7.855  0.2072 -0.2868 -0.0179
   16SAPS  H13S 2059   5.418   3.828   7.887 -0.5615  0.0260  1.5606
   16SAPS  C214 2060   5.220   3.788   7.954 -0.2592  0.5372  0.2719
   16SAPS  H14R 2061   5.114   3.815   7.948 -0.0705  1.3299  0.4159
   16SAPS  C215 2062   5.252   3.696   8.044  0.3856  0.1741 -0.4421
   16SAPS  H15R 2063   5.176   3.654   8.111 -0.3142 -1.0705 -1.9455
   16SAPS  C216 2064   5.396   3.647   8.062  0.5502 -0.2703 -0.5216
   16SAPS  H16R 2065   5.456   3.728   8.108 -1.0647  0.5711  0.1806
   16SAPS  H16S 2066   5.437   3.622   7.962  1.9423  0.5718 -0.1910
   16SAPS  C217 2067   5.407   3.517   8.148  0.8845  0.3823 -0.7292
   16SAPS  H17R 2068   5.515   3.492   8.160  0.5706  0.0110  1.7892
   16SAPS  H17S 2069   5.351   3.429   8.109  0.3617  0.6964 -0.6905
   16SAPS  C218 2070   5.369   3.535   8.296  0.1753  0.0658 -0.2527
   16SAPS  H18R 2071   5.259   3.530   8.312  0.1286 -0.9310 -0.7487
   16SAPS  H18S 2072   5.407   3.629   8.341 -0.9963  2.1409 -3.2689
   16SAPS  C219 2073   5.437   3.414   8.371 -0.2094 -1.1599  0.5158
   16SAPS  H19R 2074   5.546   3.402   8.351 -0.5181 -0.3095 -2.0359
   16SAPS  H19S 2075   5.371   3.327   8.355 -3.3212  1.1866 -0.4350
   16SAPS  C220 2076   5.440   3.429   8.525 -0.0792 -0.8660 -0.0060
   16SAPS  H20R 2077   5.487   3.527   8.547  2.2244 -2.3811  2.4346
   16SAPS  H20S 2078   5.496   3.347   8.575 -1.1608 -0.9138  1.2106
   16SAPS  H20T 2079   5.333   3.420   8.555 -0.0901  1.2672  0.7977
   16SAPS   C33 2080   4.884   2.907   7.337 -0.7752  0.1411  0.4976
   16SAPS   H3X 2081   4.834   2.995   7.383 -0.3565  0.3900  0.4917
   16SAPS   H3Y 2082   4.994   2.897   7.353 -1.0347 -2.9824  1.0018
   16SAPS   C34 2083   4.820   2.775   7.393 -0.1875 -0.0096  0.0416
   16SAPS   H4X 2084   4.850   2.678   7.349  0.0783 -0.5223  1.3350
   16SAPS   H4Y 2085   4.712   2.783   7.365 -0.5343 -0.6569  1.1601
   16SAPS   C35 2086   4.830   2.771   7.542  0.0109  0.0246 -0.0900
   16SAPS   H5X 2087   4.762   2.849   7.582 -1.4851 -1.6734  0.8325
   16SAPS   H5Y 2088   4.937   2.782   7.571  0.0967  0.3875 -0.5298
   16SAPS   C36 2089   4.778   2.631   7.590  0.4408 -0.1259  0.1362
   16SAPS   H6X 2090   4.830   2.553   7.531 -2.9507 -2.1655 -0.3804
   16SAPS   H6Y 2091   4.669   2.617   7.573 -0.1891  2.8765  1.0627
   16SAPS   C37 2092   4.822   2.614   7.736 -0.5617 -0.2064 -0.8486
   16SAPS   H7X 2093   4.925   2.651   7.758 -1.4722  0.9711  1.8799
   16SAPS   H7Y 2094   4.819   2.505   7.756  1.2453 -0.2197 -0.4353
   16SAPS   C38 2095   4.723   2.669   7.839 -0.2952  0.3562 -0.2629
   16SAPS   H8X 2096   4.626   2.623   7.811  0.3655 -0.9719 -0.4342
   16SAPS   H8Y 2097   4.717   2.779   7.824  0.7806  0.7002  1.4907
   16SAPS   C39 2098   4.761   2.641   7.984  0.0447 -0.4043 -0.4271
   16SAPS   H9X 2099   4.670   2.669   8.041 -0.2317  0.1910 -1.1478
   16SAPS   H9Y 2100   4.849   2.698   8.021  1.5809 -3.0984  0.3051
   16SAPS  C310 2101   4.801   2.497   8.016 -0.0997 -0.1378  0.2888
   16SAPS  H10X 2102   4.895   2.473   7.962 -0.6030 -2.6796  0.4165
   16SAPS  H10Y 2103   4.727   2.435   7.961  0.1033  1.4447 -1.9293
   16SAPS  C311 2104   4.812   2.473   8.165 -0.8693 -0.3186 -0.1985
   16SAPS  H11X 2105   4.822   2.364   8.183  2.0714 -0.5924 -2.6898
   16SAPS  H11Y 2106   4.723   2.517   8.214 -0.5884  0.9588 -0.7888
   16SAPS  C312 2107   4.942   2.537   8.221  0.5290 -0.9361  0.9098
   16SAPS  H12X 2108   4.925   2.647   8.219  2.0888 -0.6752 -1.3828
   16SAPS  H12Y 2109   5.020   2.543   8.142  3.2155  4.1113  3.4449
   16SAPS  C313 2110   4.990   2.477   8.352 -0.3713 -0.0560  0.1736
   16SAPS  H13X 2111   5.095   2.510   8.367 -1.2649  1.5540  4.1217
   16SAPS  H13Y 2112   4.999   2.366   8.351  2.6352  0.0698  1.9862
   16SAPS  C314 2113   4.906   2.506   8.473  0.0606  0.0121  0.2110
   16SAPS  H14X 2114   4.894   2.422   8.545 -0.2695 -1.2091 -1.2130
   16SAPS  H14Y 2115   4.807   2.533   8.431 -0.5082 -2.1058  0.1014
   16SAPS  C315 2116   4.958   2.620   8.559 -0.4823 -0.0568 -0.2963
   16SAPS  H15X 2117   4.956   2.715   8.501 -0.3445 -0.1798 -0.5046
   16SAPS  H15Y 2118   5.057   2.596   8.604  0.3515  0.7320 -1.6289
   16SAPS  C316 2119   4.862   2.644   8.677  0.2007  0.1064 -0.1327
   16SAPS  H16X 2120   4.835   2.555   8.738  0.1691 -1.3523 -2.2069
   16SAPS  H16Y 2121   4.767   2.672   8.628 -0.0322  0.9690  0.7736
   16SAPS  C317 2122   4.904   2.772   8.764  0.1354 -0.4236  0.7084
   16SAPS  H17X 2123   4.813   2.823   8.802  0.3026 -0.6563  1.4254
   16SAPS  H17Y 2124   4.939   2.844   8.687 -1.0686  0.3837  0.8773
   16SAPS  C318 2125   5.005   2.748   8.877  0.5108 -0.7726 -0.0927
   16SAPS  H18X 2126   4.952   2.676   8.943 -0.7331 -0.0488 -0.2704
   16SAPS  H18Y 2127   5.051   2.838   8.923 -2.3543  1.7842 -1.8956
   16SAPS  H18Z 2128   5.088   2.686   8.835 -0.1973 -2.2125  0.5600
   17SAPC     N 2129   1.452   4.482  10.633 -0.2043 -0.5525 -0.3494
   17SAPC   C12 2130   1.306   4.517  10.615  0.3697 -0.4494 -0.2859
   17SAPC  H12A 2131   1.287   4.620  10.641  2.2232 -0.5256  1.7056
   17SAPC  H12B 2132   1.245   4.463  10.687  1.6618  3.2184  4.0584
   17SAPC   C13 2133   1.481   4.341  10.605  0.9455  0.4172  0.3851
   17SAPC  H13A 2134   1.443   4.318  10.506  0.0584  1.3645  0.4874
   17SAPC  H13B 2135   1.587   4.324  10.600  1.2510  2.2687 -0.2914
   17SAPC  H13C 2136   1.426   4.276  10.671 -0.0745  1.4789  0.6317
   17SAPC   C14 2137   1.546   4.555  10.542  0.1353  0.5402  0.3028
   17SAPC  H14A 2138   1.636   4.497  10.529 -0.3242 -0.2575  0.5964
   17SAPC  H14B 2139   1.501   4.557  10.444 -0.3511 -3.1047  0.2983
   17SAPC  H14C 2140   1.577   4.652  10.576 -0.1112  1.0548 -0.8999
   17SAPC   C15 2141   1.497   4.507  10.777 -0.0316  0.3907  0.5152
   17SAPC  H15A 2142   1.595   4.464  10.793  0.2092  0.6095 -0.2844
   17SAPC  H15B 2143   1.510   4.614  10.792  2.5215 -0.0112  1.6590
   17SAPC  H15C 2144   1.431   4.468  10.852 -0.5304 -1.2177 -0.7126
   17SAPC   C11 2145   1.250   4.495  10.471  0.0277 -0.4129  0.3311
   17SAPC  H11A 2146   1.312   4.551  10.398 -1.5259  0.1488 -0.5990
   17SAPC  H11B 2147   1.151   4.545  10.468  0.4831  0.8234  2.8540
   17SAPC     P 2148   1.111   4.276  10.483  0.0594  0.1107 -0.1887
   17SAPC   O13 2149   1.159   4.183  10.587 -0.3062 -0.2010  0.0627
   17SAPC   O14 2150   0.996   4.365  10.515 -0.3264  0.4127  0.3526
   17SAPC   O12 2151   1.236   4.356  10.438  0.8028  0.2871  0.2741
   17SAPC   O11 2152   1.070   4.186  10.361 -0.6832  0.0053  0.3162
   17SAPC    C1 2153   1.163   4.186  10.246  0.8162  0.5104  0.7145
   17SAPC    HA 2154   1.270   4.186  10.276  0.6722 -4.0822  2.1515
   17SAPC    HB 2155   1.149   4.089  10.194  1.1920  1.4173 -1.1287
   17SAPC    C2 2156   1.131   4.289  10.142  0.4351 -0.7766 -0.7215
   17SAPC    HS 2157   1.116   4.390  10.187 -0.4358 -0.2469 -2.1291
   17SAPC   O21 2158   1.014   4.242  10.076  0.7473 -0.0945  0.5444
   17SAPC   C21 2159   0.925   4.323  10.032 -0.1621 -0.5760 -0.0712
   17SAPC   O22 2160   0.933   4.447  10.026  0.8117  0.9341  0.0389
   17SAPC   C22 2161   0.803   4.235   9.998  1.2611  0.0617  0.2268
   17SAPC   H2R 2162   0.821   4.175   9.907 -3.2847 -2.3932  0.6755
   17SAPC   H2S 2163   0.789   4.157  10.075 -0.1493 -0.8691 -0.9430
   17SAPC    C3 2164   1.254   4.291  10.041 -0.3667 -0.3515 -0.0723
   17SAPC    HX 2165   1.257   4.191   9.993  0.3900  0.4687 -1.7919
   17SAPC    HY 2166   1.354   4.301  10.088  0.2292  2.7760 -1.7197
   17SAPC   O31 2167   1.228   4.385   9.939  0.0382 -0.2776  0.5978
   17SAPC   C31 2168   1.252   4.510   9.976  0.3033 -0.3381 -0.4996
   17SAPC   O32 2169   1.312   4.542  10.075  0.3066 -0.6824 -0.0407
   17SAPC   C32 2170   1.193   4.595   9.864  0.2252  0.5281  0.2544
   17SAPC   H2X 2171   1.082   4.590   9.867  0.2105 -0.9508 -1.3027
   17SAPC   H2Y 2172   1.235   4.558   9.768  0.8759 -0.4258  0.8853
   17SAPC   C23 2173   0.681   4.321   9.945  0.4922  0.0368 -0.3227
   17SAPC   H3R 2174   0.706   4.385   9.857  1.7292  0.9983  0.6922
   17SAPC   H3S 2175   0.647   4.384  10.029 -1.8739 -2.0776  0.4318
   17SAPC   C24 2176   0.556   4.237   9.899  0.3562  0.0972 -0.0727
   17SAPC   H4R 2177   0.575   4.192   9.799 -0.5572  0.2432 -0.3142
   17SAPC   H4S 2178   0.475   4.309   9.879  0.8748  0.8166  0.3899
   17SAPC   C25 2179   0.498   4.141   9.996 -1.1538  0.1177  0.1777
   17SAPC   H5R 2180   0.573   4.116  10.072  1.6008  1.7378 -1.8187
   17SAPC   C26 2181   0.375   4.091  10.013  0.0447 -0.2899  0.0391
   17SAPC   H6R 2182   0.343   4.041  10.106 -0.8298  0.5875  0.2281
   17SAPC   C27 2183   0.266   4.127   9.920  0.3287  0.4168 -0.2501
   17SAPC   H7R 2184   0.185   4.052   9.925  0.0426  0.7980  1.7379
   17SAPC   H7S 2185   0.303   4.132   9.816 -1.9404  0.0588 -1.1099
   17SAPC   C28 2186   0.201   4.254   9.967  0.4164  0.2010 -0.2926
   17SAPC   H8R 2187   0.162   4.261  10.070  2.5000 -0.1395  0.5712
   17SAPC   C29 2188   0.190   4.369   9.891  0.8158  0.5459  0.3714
   17SAPC   H9R 2189   0.156   4.462   9.939 -0.5230  0.9449 -1.2633
   17SAPC  C210 2190   0.232   4.398   9.746  0.2722  0.2965 -0.7102
   17SAPC  H10R 2191   0.227   4.310   9.678 -0.2696 -1.0538  0.9805
   17SAPC  H10S 2192   0.341   4.416   9.747  0.2425  0.4862  0.6740
   17SAPC  C211 2193   0.171   4.522   9.681 -0.2769 -0.1051  0.2079
   17SAPC  H11R 2194   0.123   4.585   9.757  0.6624  2.7925 -1.4472
   17SAPC  C212 2195   0.177   4.555   9.548  0.4351 -0.4616  0.6793
   17SAPC  H12R 2196   0.133   4.651   9.515  1.6959  0.0312  0.3845
   17SAPC  C213 2197   0.241   4.480   9.436 -0.1886  0.3515  1.0808
   17SAPC  H13R 2198   0.168   4.458   9.356 -0.3782  0.5914  1.1883
   17SAPC  H13S 2199   0.272   4.378   9.470 -0.9936 -0.3747 -0.3036
   17SAPC  C214 2200   0.358   4.559   9.376  0.2949 -0.2465  0.5176
   17SAPC  H14R 2201   0.438   4.576   9.449 -0.9103  0.3651  1.7375
   17SAPC  C215 2202   0.370   4.621   9.257  0.3070  0.1172  0.4193
   17SAPC  H15R 2203   0.464   4.677   9.246 -0.6575  1.5480 -0.9262
   17SAPC  C216 2204   0.275   4.623   9.149  0.5484 -0.0478  0.5393
   17SAPC  H16R 2205   0.272   4.717   9.090  0.1406 -0.2311  0.2631
   17SAPC  H16S 2206   0.171   4.612   9.186 -0.4669 -0.9934 -2.2970
   17SAPC  C217 2207   0.290   4.504   9.055 -0.4375 -0.1820  0.5967
   17SAPC  H17R 2208   0.270   4.410   9.110 -0.6902  0.6908  2.0686
   17SAPC  H17S 2209   0.396   4.500   9.024 -0.9239  1.1296 -1.4241
   17SAPC  C218 2210   0.203   4.525   8.928  0.2950  0.2648 -0.6814
   17SAPC  H18R 2211   0.230   4.622   8.880  1.1474 -0.5435 -1.8810
   17SAPC  H18S 2212   0.099   4.527   8.966 -0.9720  0.9091 -3.9194
   17SAPC  C219 2213   0.215   4.398   8.839 -0.2298  0.2958 -0.0037
   17SAPC  H19R 2214   0.210   4.307   8.902  1.3835  0.7635  0.8526
   17SAPC  H19S 2215   0.317   4.405   8.796  0.4027 -0.6577  1.2807
   17SAPC  C220 2216   0.102   4.402   8.739 -0.3212  0.1829  0.7488
   17SAPC  H20R 2217   0.104   4.302   8.690  0.8392  0.9913 -0.9684
   17SAPC  H20S 2218   0.124   4.477   8.660  1.9706 -1.2055 -0.0463
   17SAPC  H20T 2219  -0.003   4.412   8.775  0.4119  0.0596  3.0510
   17SAPC   C33 2220   1.228   4.747   9.881  0.6652  0.5135 -0.6253
   17SAPC   H3X 2221   1.212   4.765   9.989  1.6328 -0.6687 -0.2626
   17SAPC   H3Y 2222   1.156   4.804   9.819 -1.0513 -0.8513  0.0341
   17SAPC   C34 2223   1.357   4.802   9.826 -0.4360 -0.2536  0.3856
   17SAPC   H4X 2224   1.347   4.800   9.716  0.0692 -0.3957  0.3427
   17SAPC   H4Y 2225   1.435   4.724   9.835  1.5895  1.5060 -0.9915
   17SAPC   C35 2226   1.410   4.924   9.887  0.2650 -0.1331  0.1122
   17SAPC   H5X 2227   1.503   4.953   9.833  0.3930 -0.5308  0.1193
   17SAPC   H5Y 2228   1.439   4.891   9.989  0.9865 -1.5838 -0.5436
   17SAPC   C36 2229   1.309   5.040   9.896 -0.0987  0.6248  0.2010
   17SAPC   H6X 2230   1.366   5.131   9.922  0.7625  0.2265 -0.2520
   17SAPC   H6Y 2231   1.229   5.021   9.970 -1.5928 -1.5647 -1.8390
   17SAPC   C37 2232   1.245   5.074   9.762 -0.4151  0.9007 -0.4589
   17SAPC   H7X 2233   1.151   5.132   9.769  0.4483  2.3041 -0.0888
   17SAPC   H7Y 2234   1.219   4.981   9.706  0.1615  0.0680  0.6077
   17SAPC   C38 2235   1.337   5.132   9.666  0.0082 -0.8521  0.2926
   17SAPC   H8X 2236   1.414   5.066   9.621  1.3109  1.6027 -1.3409
   17SAPC   H8Y 2237   1.398   5.206   9.723  0.0228 -1.3451  0.9308
   17SAPC   C39 2238   1.256   5.192   9.544 -0.3637  0.3018  0.4075
   17SAPC   H9X 2239   1.188   5.112   9.507 -1.0563  1.0235  0.0881
   17SAPC   H9Y 2240   1.322   5.220   9.459 -0.8772 -0.0573 -0.1131
   17SAPC  C310 2241   1.184   5.323   9.572  1.2980  0.4856  0.1252
   17SAPC  H10X 2242   1.133   5.320   9.671  3.3762  0.4079  1.2531
   17SAPC  H10Y 2243   1.101   5.338   9.499 -0.1304 -0.8647  1.3867
   17SAPC  C311 2244   1.276   5.443   9.567 -0.7615  0.0022  0.1665
   17SAPC  H11X 2245   1.307   5.484   9.468 -1.3080 -0.8649 -0.3801
   17SAPC  H11Y 2246   1.374   5.407   9.604 -0.6626  0.9996  0.9159
   17SAPC  C312 2247   1.222   5.564   9.652 -0.2105  0.0260 -0.3120
   17SAPC  H12X 2248   1.206   5.538   9.759  0.1760 -0.3683 -0.3478
   17SAPC  H12Y 2249   1.125   5.599   9.610 -0.2518  2.0228  1.3247
   17SAPC  C313 2250   1.322   5.679   9.671  0.6504 -0.7348 -0.5918
   17SAPC  H13X 2251   1.423   5.646   9.703 -0.1796 -0.5208  2.6155
   17SAPC  H13Y 2252   1.284   5.744   9.753  0.4465  1.8653 -2.6217
   17SAPC  C314 2253   1.333   5.770   9.550 -0.1757 -0.2032  0.0141
   17SAPC  H14X 2254   1.238   5.789   9.496  0.9288  1.0060 -1.6593
   17SAPC  H14Y 2255   1.396   5.716   9.475  3.5026 -1.4832  3.6477
   17SAPC  C315 2256   1.394   5.901   9.588  0.2217 -0.3253 -0.4664
   17SAPC  H15X 2257   1.497   5.879   9.625  0.4620  0.2399 -0.7995
   17SAPC  H15Y 2258   1.341   5.961   9.665  0.0858  0.9568 -1.5293
   17SAPC  C316 2259   1.405   5.991   9.467  0.0450  0.2045  0.3024
   17SAPC  H16X 2260   1.477   5.958   9.389 -1.4705  0.2284 -1.1492
   17SAPC  H16Y 2261   1.455   6.087   9.493  0.9044  0.1776 -1.1323
   17SAPC  C317 2262   1.269   6.034   9.407 -0.5391 -0.5639 -0.1992
   17SAPC  H17X 2263   1.200   6.091   9.472  0.7333  2.0541 -0.9673
   17SAPC  H17Y 2264   1.216   5.942   9.376  2.5902 -2.4320 -0.4355
   17SAPC  C318 2265   1.291   6.133   9.289 -0.0444  0.2584 -0.3794
   17SAPC  H18X 2266   1.341   6.227   9.321 -1.5852  0.9901 -0.0500
   17SAPC  H18Y 2267   1.360   6.086   9.215 -0.1172  0.2406 -0.4365
   17SAPC  H18Z 2268   1.195   6.152   9.236 -1.1608 -1.4314  0.9273
   18SAPC     N 2269   2.123   3.072  10.506 -0.0565 -0.5684  0.3707
   18SAPC   C12 2270   2.197   3.020  10.629 -0.2855  0.3681  0.6413
   18SAPC  H12A 2271   2.186   3.098  10.703 -1.1231  1.1890 -0.3159
   18SAPC  H12B 2272   2.301   3.011  10.604 -0.4655  2.0493 -0.8810
   18SAPC   C13 2273   2.165   2.990  10.389  0.2814 -0.3158  0.2475
   18SAPC  H13A 2274   2.262   3.011  10.347 -0.3940 -0.2585 -1.3776
   18SAPC  H13B 2275   2.154   2.884  10.410  0.3372  0.1273  2.8570
   18SAPC  H13C 2276   2.103   3.015  10.304  0.7862 -1.6556 -0.5496
   18SAPC   C14 2277   1.973   3.058  10.529  0.3175 -0.2818  0.0673
   18SAPC  H14A 2278   1.947   3.109  10.621  3.0917 -0.1697  0.8706
   18SAPC  H14B 2279   1.912   3.108  10.455 -2.7843  1.6910  3.5800
   18SAPC  H14C 2280   1.951   2.954  10.544  1.3151 -0.4126  0.7518
   18SAPC   C15 2281   2.161   3.211  10.465 -0.3418 -0.4124  0.8424
   18SAPC  H15A 2282   2.118   3.290  10.524  1.0682 -0.4856  2.0277
   18SAPC  H15B 2283   2.268   3.225  10.472 -0.3971 -0.7217  3.0927
   18SAPC  H15C 2284   2.124   3.241  10.368  1.3809  1.2393  0.6420
   18SAPC   C11 2285   2.151   2.885  10.689  0.6361  0.0220 -0.2587
   18SAPC  H11A 2286   2.067   2.902  10.759 -0.8164 -2.4318 -1.2912
   18SAPC  H11B 2287   2.238   2.846  10.746  0.0196 -0.4320  0.3754
   18SAPC     P 2288   2.060   2.660  10.609  0.1309 -0.0272  0.6124
   18SAPC   O13 2289   2.162   2.556  10.633  0.3610 -0.5445 -0.0303
   18SAPC   O14 2290   1.943   2.678  10.697 -0.3535  0.0300  0.1920
   18SAPC   O12 2291   2.116   2.796  10.582  0.1847 -0.2490  0.9607
   18SAPC   O11 2292   2.000   2.613  10.462  0.2896  0.0885  0.0056
   18SAPC    C1 2293   2.096   2.585  10.356 -0.1909 -0.5140  0.0273
   18SAPC    HA 2294   2.177   2.660  10.345 -0.1633 -0.4842  0.4017
   18SAPC    HB 2295   2.137   2.484  10.376  0.2678 -0.6613 -1.5723
   18SAPC    C2 2296   2.009   2.584  10.218 -0.2563  0.3771  0.7334
   18SAPC    HS 2297   2.077   2.576  10.131 -2.0400  1.3024 -0.8281
   18SAPC   O21 2298   1.917   2.695  10.203  0.2051  0.0804 -0.2780
   18SAPC   C21 2299   1.976   2.810  10.172  0.0536  0.0650 -0.1243
   18SAPC   O22 2300   2.097   2.830  10.161 -0.1425 -0.1602  0.1159
   18SAPC   C22 2301   1.879   2.927  10.181  0.1233  0.6361  0.0144
   18SAPC   H2R 2302   1.770   2.904  10.181 -0.3069  2.4610 -0.5652
   18SAPC   H2S 2303   1.895   2.974  10.281  0.9964 -0.3294  0.3456
   18SAPC    C3 2304   1.931   2.448  10.239  0.1528  0.3700 -0.6028
   18SAPC    HX 2305   1.836   2.469  10.293  0.5772 -1.6315  1.0792
   18SAPC    HY 2306   2.004   2.385  10.295  0.7664  0.0190 -1.7462
   18SAPC   O31 2307   1.890   2.377  10.124  0.0345  0.0446 -0.6069
   18SAPC   C31 2308   1.987   2.297  10.073 -0.1390 -0.4670 -0.1862
   18SAPC   O32 2309   2.104   2.303  10.093 -0.3819 -1.2304 -0.3183
   18SAPC   C32 2310   1.916   2.202   9.981 -0.9048  0.1550  0.0366
   18SAPC   H2X 2311   1.862   2.262   9.904 -1.0061 -0.3447 -0.2829
   18SAPC   H2Y 2312   1.843   2.145  10.041 -0.6275  0.7692  0.9781
   18SAPC   C23 2313   1.905   3.038  10.075  0.2465  0.7560 -0.7338
   18SAPC   H3R 2314   2.010   3.072  10.082  0.0031  1.8069 -1.7907
   18SAPC   H3S 2315   1.835   3.122  10.096 -1.6224 -0.1710 -2.7656
   18SAPC   C24 2316   1.878   2.989   9.936 -0.0300  0.0146 -0.3435
   18SAPC   H4R 2317   1.934   2.894   9.918  1.1734  0.8955 -1.4463
   18SAPC   H4S 2318   1.927   3.067   9.875  2.9366  0.9134  2.8859
   18SAPC   C25 2319   1.733   2.982   9.905  0.1754 -0.5118 -0.0416
   18SAPC   H5R 2320   1.665   2.971   9.992 -0.3235  0.5683 -0.2771
   18SAPC   C26 2321   1.679   3.003   9.789 -0.2844  0.1289  0.1132
   18SAPC   H6R 2322   1.571   3.024   9.787 -0.2354  0.4144 -2.6628
   18SAPC   C27 2323   1.745   3.041   9.660 -0.3846 -0.0351 -0.2084
   18SAPC   H7R 2324   1.697   3.002   9.567 -1.5488 -1.9081  1.0983
   18SAPC   H7S 2325   1.839   2.982   9.654  0.1482  0.4736  2.0965
   18SAPC   C28 2326   1.772   3.187   9.638 -0.7467 -0.1587  0.4554
   18SAPC   H8R 2327   1.699   3.255   9.683  1.6194  2.0669  1.1484
   18SAPC   C29 2328   1.864   3.235   9.548 -0.5957 -0.6503  0.0002
   18SAPC   H9R 2329   1.885   3.343   9.546  0.8030 -0.9189 -0.1742
   18SAPC  C210 2330   1.956   3.143   9.468 -0.4902  0.7078  0.1574
   18SAPC  H10R 2331   1.911   3.042   9.454  1.1296 -0.0711  0.3862
   18SAPC  H10S 2332   2.029   3.114   9.546 -0.4169 -2.9282 -1.0660
   18SAPC  C211 2333   2.033   3.198   9.349  0.1526  0.4866 -0.1988
   18SAPC  H11R 2334   2.125   3.249   9.380  0.5200 -0.7789  0.8903
   18SAPC  C212 2335   2.015   3.181   9.218 -1.0342  0.1747 -0.5154
   18SAPC  H12R 2336   2.086   3.219   9.144 -1.9377 -1.4168 -2.3111
   18SAPC  C213 2337   1.901   3.098   9.169  0.9046 -0.7387  0.3569
   18SAPC  H13R 2338   1.864   3.144   9.075  0.0095  1.2706  1.6218
   18SAPC  H13S 2339   1.809   3.102   9.230  0.7788 -0.5722  0.1587
   18SAPC  C214 2340   1.932   2.953   9.155 -1.0774  0.1016  0.2594
   18SAPC  H14R 2341   2.039   2.940   9.136 -0.5109  0.2133  2.9648
   18SAPC  C215 2342   1.846   2.848   9.163  0.0798 -0.4563 -0.5758
   18SAPC  H15R 2343   1.892   2.749   9.155  0.8623 -0.2736  1.1789
   18SAPC  C216 2344   1.696   2.855   9.185 -1.1225  0.1553 -0.5718
   18SAPC  H16R 2345   1.644   2.794   9.108  0.2107 -0.2603 -1.1744
   18SAPC  H16S 2346   1.661   2.960   9.176 -3.5838 -0.6106 -0.6894
   18SAPC  C217 2347   1.659   2.804   9.329 -0.3305 -0.0922  0.4802
   18SAPC  H17R 2348   1.715   2.850   9.413 -2.2800  2.1240  0.6485
   18SAPC  H17S 2349   1.669   2.693   9.328 -1.2910 -0.1832 -0.2974
   18SAPC  C218 2350   1.506   2.822   9.352  0.0474 -0.6547  0.4453
   18SAPC  H18R 2351   1.447   2.799   9.261 -0.0196  0.2291  0.2497
   18SAPC  H18S 2352   1.489   2.928   9.383 -0.1991 -0.6498  0.2964
   18SAPC  C219 2353   1.446   2.737   9.467  0.2190  0.8919  0.2564
   18SAPC  H19R 2354   1.491   2.638   9.445  0.9648  1.1659  0.5213
   18SAPC  H19S 2355   1.337   2.734   9.447  0.6592 -2.0067 -2.4938
   18SAPC  C220 2356   1.485   2.785   9.604  0.4391  0.8616 -0.6663
   18SAPC  H20R 2357   1.592   2.815   9.599  0.9734 -1.0036 -1.2674
   18SAPC  H20S 2358   1.488   2.705   9.680  3.1220 -0.2431 -1.8082
   18SAPC  H20T 2359   1.428   2.870   9.647  1.6807  0.2607  2.4378
   18SAPC   C33 2360   2.015   2.108   9.905 -0.0963 -0.4984  0.8650
   18SAPC   H3X 2361   2.080   2.041   9.965  0.0044 -2.6091 -1.4524
   18SAPC   H3Y 2362   2.087   2.170   9.847  0.5821 -0.3241  1.8543
   18SAPC   C34 2363   1.952   2.023   9.791  0.5082  0.0603 -0.4812
   18SAPC   H4X 2364   1.867   2.078   9.746 -1.5300 -0.7508  2.1515
   18SAPC   H4Y 2365   1.913   1.929   9.836 -0.1786  0.0886 -1.0073
   18SAPC   C35 2366   2.055   1.982   9.687  0.7190 -0.4023  0.0911
   18SAPC   H5X 2367   2.130   1.913   9.732 -0.1212 -2.8493 -2.0102
   18SAPC   H5Y 2368   2.111   2.073   9.655 -2.2965  0.9654 -1.7473
   18SAPC   C36 2369   1.998   1.918   9.553  0.1266  0.4919  0.1909
   18SAPC   H6X 2370   1.926   1.982   9.498  1.8260  0.9631 -1.5785
   18SAPC   H6Y 2371   1.935   1.837   9.597  0.2463 -0.6584 -1.6673
   18SAPC   C37 2372   2.100   1.853   9.461 -0.1778 -0.1740  0.5150
   18SAPC   H7X 2373   2.173   1.789   9.515  0.4323 -0.6907 -0.8665
   18SAPC   H7Y 2374   2.159   1.939   9.423 -1.6783  1.7387  2.3025
   18SAPC   C38 2375   2.039   1.783   9.335 -0.5113 -0.0077 -0.0792
   18SAPC   H8X 2376   1.982   1.695   9.372 -1.6808  1.4908  1.8910
   18SAPC   H8Y 2377   2.113   1.755   9.257 -1.6732 -0.1030 -1.1902
   18SAPC   C39 2378   1.945   1.874   9.252 -0.0939 -0.1139 -0.1258
   18SAPC   H9X 2379   1.962   1.978   9.286  0.0979  0.0430 -0.7022
   18SAPC   H9Y 2380   1.838   1.850   9.274  0.3300 -1.6260  0.4131
   18SAPC  C310 2381   1.976   1.857   9.106  0.2081 -0.1348 -1.1615
   18SAPC  H10X 2382   1.972   1.748   9.083 -3.0312  0.3072 -3.4670
   18SAPC  H10Y 2383   2.075   1.902   9.081  0.9380 -0.5485  0.8302
   18SAPC  C311 2384   1.885   1.937   9.012  0.0104 -0.1288  0.1137
   18SAPC  H11X 2385   1.887   2.044   9.040  0.8360  0.9235 -3.4093
   18SAPC  H11Y 2386   1.780   1.902   9.022  0.0796 -0.0331  1.2526
   18SAPC  C312 2387   1.932   1.927   8.866  0.3831 -0.1214  0.7161
   18SAPC  H12X 2388   1.918   1.819   8.841  0.6990  0.4305 -2.1694
   18SAPC  H12Y 2389   2.039   1.952   8.850  0.2720 -1.3747 -3.1828
   18SAPC  C313 2390   1.846   2.021   8.779 -0.1744 -0.7021  0.1419
   18SAPC  H13X 2391   1.866   2.124   8.814 -0.0767 -1.2367  1.7125
   18SAPC  H13Y 2392   1.738   2.006   8.797 -0.5148  1.4883  0.1679
   18SAPC  C314 2393   1.872   2.020   8.628 -0.0304  0.7897  0.0385
   18SAPC  H14X 2394   1.963   2.079   8.603  0.8333 -0.4401  0.1813
   18SAPC  H14Y 2395   1.786   2.065   8.574  0.2439  0.0353 -1.0533
   18SAPC  C315 2396   1.910   1.880   8.577  0.5340  0.4025 -0.3759
   18SAPC  H15X 2397   1.832   1.804   8.601  0.8695 -0.0566 -0.7221
   18SAPC  H15Y 2398   2.008   1.855   8.622  1.5140  1.8530 -1.5987
   18SAPC  C316 2399   1.914   1.889   8.427 -0.0705 -0.5445  0.6147
   18SAPC  H16X 2400   1.971   1.978   8.390 -1.4582  0.1757  0.1159
   18SAPC  H16Y 2401   1.812   1.914   8.393  0.0698 -1.8923 -0.9387
   18SAPC  C317 2402   1.949   1.765   8.351  0.2411  0.1018  0.5977
   18SAPC  H17X 2403   1.883   1.687   8.394  1.8052  0.2373  3.5308
   18SAPC  H17Y 2404   2.059   1.754   8.364  0.6129  2.0097 -0.6107
   18SAPC  C318 2405   1.931   1.775   8.197  0.3822 -0.3048  0.0818
   18SAPC  H18X 2406   2.006   1.849   8.162  0.1703 -0.3693 -0.5143
   18SAPC  H18Y 2407   1.825   1.790   8.167  0.5973  0.6330 -0.2511
   18SAPC  H18Z 2408   1.965   1.678   8.156  0.2850 -1.5188  2.7074
   19SAPC     N 2409   2.678   5.068  10.976 -0.1307  0.8351 -0.3010
   19SAPC   C12 2410   2.743   5.082  10.835 -0.2087  0.1280  0.3605
   19SAPC  H12A 2411   2.750   4.978  10.804  0.5123 -0.1515  1.4038
   19SAPC  H12B 2412   2.843   5.123  10.846 -0.9984  1.7125  2.1021
   19SAPC   C13 2413   2.538   5.027  10.950 -0.5522  0.3337  0.3847
   19SAPC  H13A 2414   2.479   5.034  11.040  0.0783  1.6484  0.7223
   19SAPC  H13B 2415   2.496   5.088  10.872 -0.4260 -0.4003 -0.2615
   19SAPC  H13C 2416   2.537   4.924  10.920 -1.9534  1.1722 -2.9255
   19SAPC   C14 2417   2.740   4.957  11.058 -0.4139 -1.3267  0.5677
   19SAPC  H14A 2418   2.718   4.858  11.020 -0.6045 -1.4959  1.0994
   19SAPC  H14B 2419   2.846   4.968  11.073 -0.3471  0.5887 -0.9745
   19SAPC  H14C 2420   2.682   4.959  11.149 -0.3233  0.1956  0.6180
   19SAPC   C15 2421   2.683   5.193  11.046 -0.0858 -0.0515 -0.2870
   19SAPC  H15A 2422   2.789   5.211  11.053 -0.2861  1.0575  0.0366
   19SAPC  H15B 2423   2.640   5.276  10.991 -1.0236  0.2830  0.8989
   19SAPC  H15C 2424   2.640   5.187  11.145 -2.1342  0.0139 -1.1185
   19SAPC   C11 2425   2.673   5.164  10.728 -0.1489  0.2236  0.7222
   19SAPC  H11A 2426   2.753   5.178  10.652 -0.6757 -0.1465  0.0979
   19SAPC  H11B 2427   2.660   5.266  10.770  0.7603 -0.1595  2.0245
   19SAPC     P 2428   2.543   4.997  10.558  0.1886  0.4935  0.2234
   19SAPC   O13 2429   2.628   4.888  10.604 -0.4746 -0.0418  0.1731
   19SAPC   O14 2430   2.404   4.957  10.533  0.5210  0.1769 -0.1890
   19SAPC   O12 2431   2.553   5.112  10.671  0.1493 -0.0734  0.4330
   19SAPC   O11 2432   2.608   5.058  10.426 -0.3502 -0.0182  0.0043
   19SAPC    C1 2433   2.574   5.190  10.385 -0.5490  1.2329 -0.0481
   19SAPC    HA 2434   2.493   5.240  10.443 -0.8064 -0.9922  1.6347
   19SAPC    HB 2435   2.669   5.247  10.393  1.2581 -1.4492 -0.9312
   19SAPC    C2 2436   2.535   5.179  10.236 -0.4816 -0.3421 -0.1846
   19SAPC    HS 2437   2.483   5.269  10.197 -0.7891 -0.6383 -0.4602
   19SAPC   O21 2438   2.438   5.073  10.209  0.4486 -0.2825 -0.2370
   19SAPC   C21 2439   2.317   5.107  10.257 -0.1491  0.0201  0.6116
   19SAPC   O22 2440   2.286   5.216  10.305 -0.3665 -0.0336  0.2556
   19SAPC   C22 2441   2.206   5.000  10.252  0.4115 -0.3511 -0.2377
   19SAPC   H2R 2442   2.240   4.895  10.266  0.6228 -0.2474  0.0201
   19SAPC   H2S 2443   2.124   5.018  10.324  0.0056 -2.5581 -0.0772
   19SAPC    C3 2444   2.654   5.151  10.147 -0.2544 -0.0699 -0.2741
   19SAPC    HX 2445   2.701   5.062  10.194 -0.8758  0.4911  1.5183
   19SAPC    HY 2446   2.730   5.232  10.144 -1.1016  0.7995  0.9401
   19SAPC   O31 2447   2.613   5.115  10.014 -0.2027 -0.1849 -0.5266
   19SAPC   C31 2448   2.580   5.222   9.943  0.2806  0.8346  0.6199
   19SAPC   O32 2449   2.599   5.337   9.970 -0.7396  0.6621  0.3941
   19SAPC   C32 2450   2.514   5.170   9.816  0.3062  0.5011  0.1184
   19SAPC   H2X 2451   2.561   5.073   9.789 -0.0296 -0.4134  2.5835
   19SAPC   H2Y 2452   2.537   5.247   9.739  0.8265  1.2548  1.0064
   19SAPC   C23 2453   2.137   4.990  10.114  0.7654  0.5898  0.0228
   19SAPC   H3R 2454   2.062   4.909  10.112  2.2226 -0.8357  1.0843
   19SAPC   H3S 2455   2.198   4.969  10.023  0.1023 -0.9174 -0.0953
   19SAPC   C24 2456   2.049   5.120  10.073  0.3342  0.3236  0.1815
   19SAPC   H4R 2457   2.008   5.101   9.972 -3.0912 -0.7721  1.6152
   19SAPC   H4S 2458   2.119   5.206  10.072  1.7758 -0.7474  2.4046
   19SAPC   C25 2459   1.941   5.137  10.174 -0.1957  0.4210 -0.4212
   19SAPC   H5R 2460   1.956   5.081  10.268  1.6364 -1.4372 -1.7258
   19SAPC   C26 2461   1.821   5.215  10.162 -0.4776 -0.0696  0.1423
   19SAPC   H6R 2462   1.748   5.226  10.244 -0.6458  1.9581 -0.2333
   19SAPC   C27 2463   1.802   5.305  10.036 -0.8503  0.2416  0.3951
   19SAPC   H7R 2464   1.898   5.326   9.984 -0.5508  1.2861  1.3352
   19SAPC   H7S 2465   1.752   5.398  10.071 -1.3590 -0.3674  1.3516
   19SAPC   C28 2466   1.712   5.221   9.953 -0.0332 -0.5353  0.1535
   19SAPC   H8R 2467   1.697   5.115   9.979 -0.0882 -0.8700 -1.1628
   19SAPC   C29 2468   1.665   5.257   9.836 -0.3019 -0.4477 -0.1967
   19SAPC   H9R 2469   1.592   5.187   9.793  1.6713 -2.6242 -0.2184
   19SAPC  C210 2470   1.668   5.392   9.770 -0.7135  0.1104 -1.0355
   19SAPC  H10R 2471   1.659   5.466   9.852  0.7749 -1.1869  0.3787
   19SAPC  H10S 2472   1.575   5.389   9.711 -0.6363 -0.6315 -1.1297
   19SAPC  C211 2473   1.789   5.425   9.690 -0.1711  0.1998  1.0135
   19SAPC  H11R 2474   1.886   5.385   9.722 -0.4775 -2.2573 -0.8857
   19SAPC  C212 2475   1.788   5.490   9.574  0.1344  0.3967  0.0674
   19SAPC  H12R 2476   1.880   5.506   9.517  0.3360 -4.3075 -1.3244
   19SAPC  C213 2477   1.667   5.540   9.497  0.6949 -0.3111  0.5186
   19SAPC  H13R 2478   1.587   5.564   9.570  1.1163  2.2942  0.2244
   19SAPC  H13S 2479   1.631   5.459   9.430  1.4207  2.1161 -3.1094
   19SAPC  C214 2480   1.694   5.658   9.408  0.6129 -0.3137  0.5675
   19SAPC  H14R 2481   1.749   5.744   9.451 -1.4839  1.6212 -0.4399
   19SAPC  C215 2482   1.628   5.692   9.301  0.1372  0.1470  0.7110
   19SAPC  H15R 2483   1.647   5.784   9.244  2.6143 -0.9533 -0.4043
   19SAPC  C216 2484   1.520   5.616   9.242  0.6647  0.1697  0.1507
   19SAPC  H16R 2485   1.471   5.547   9.313 -1.4489  0.1292 -1.2301
   19SAPC  H16S 2486   1.562   5.549   9.164  0.7739  0.4784 -0.0582
   19SAPC  C217 2487   1.420   5.702   9.171  0.2072 -0.3802  1.3623
   19SAPC  H17R 2488   1.473   5.775   9.107 -2.3446  0.0330 -0.4641
   19SAPC  H17S 2489   1.362   5.761   9.246 -1.1891  0.2257 -0.1398
   19SAPC  C218 2490   1.318   5.626   9.078 -0.2931 -0.0008  0.2896
   19SAPC  H18R 2491   1.375   5.567   9.004  1.7934 -1.5485  2.9419
   19SAPC  H18S 2492   1.259   5.704   9.025 -0.8226  0.0392  0.9184
   19SAPC  C219 2493   1.227   5.542   9.165 -1.2547  0.3163 -0.6185
   19SAPC  H19R 2494   1.132   5.534   9.108 -0.0204  2.0399 -3.0860
   19SAPC  H19S 2495   1.208   5.592   9.262  1.4992 -0.7592  0.5934
   19SAPC  C220 2496   1.258   5.399   9.202 -0.3679  0.2284  0.5121
   19SAPC  H20R 2497   1.165   5.344   9.231 -0.2100  0.5459  1.6898
   19SAPC  H20S 2498   1.330   5.390   9.287 -0.3923 -1.4125  0.4010
   19SAPC  H20T 2499   1.311   5.352   9.117  0.0463  0.0254  0.8777
   19SAPC   C33 2500   2.363   5.143   9.834 -0.8215 -0.0234  0.5856
   19SAPC   H3X 2501   2.307   5.211   9.902 -1.1659  2.2311 -1.7958
   19SAPC   H3Y 2502   2.363   5.039   9.874 -2.1874 -0.3769 -0.2954
   19SAPC   C34 2503   2.288   5.167   9.697 -0.2612 -0.1906  0.1845
   19SAPC   H4X 2504   2.276   5.275   9.674  1.2750 -0.2271 -0.9177
   19SAPC   H4Y 2505   2.188   5.119   9.705 -0.5457  0.3391 -0.1055
   19SAPC   C35 2506   2.361   5.116   9.572 -0.7256 -0.1747 -0.3509
   19SAPC   H5X 2507   2.395   5.011   9.588 -1.8545 -0.6488 -0.9241
   19SAPC   H5Y 2508   2.454   5.172   9.552 -2.2036  2.9292  0.8850
   19SAPC   C36 2509   2.277   5.130   9.445  1.2856  0.6985  0.5137
   19SAPC   H6X 2510   2.212   5.219   9.454  0.6118  0.2234  0.3814
   19SAPC   H6Y 2511   2.221   5.034   9.439  2.3825 -0.0478  1.6043
   19SAPC   C37 2512   2.351   5.127   9.310 -0.1437 -0.1962 -0.0840
   19SAPC   H7X 2513   2.392   5.025   9.294 -2.7858 -1.2893 -0.2435
   19SAPC   H7Y 2514   2.426   5.209   9.307 -1.5633  1.1459 -0.0930
   19SAPC   C38 2515   2.255   5.165   9.196  0.0133  0.2126 -0.3036
   19SAPC   H8X 2516   2.174   5.235   9.227 -0.7628 -0.8374  0.1175
   19SAPC   H8Y 2517   2.201   5.073   9.164  0.6447 -0.4566  0.5250
   19SAPC   C39 2518   2.317   5.238   9.070  0.2718  0.1730 -0.1605
   19SAPC   H9X 2519   2.375   5.159   9.016  1.7725  1.3376 -0.3201
   19SAPC   H9Y 2520   2.389   5.316   9.100  0.7260 -0.4585  0.4237
   19SAPC  C310 2521   2.221   5.299   8.961 -0.2611 -0.3777 -0.4769
   19SAPC  H10X 2522   2.161   5.386   8.998  0.0647 -0.4507  0.2424
   19SAPC  H10Y 2523   2.147   5.221   8.931 -2.6400  1.0657  1.2675
   19SAPC  C311 2524   2.295   5.350   8.837  0.1619  0.4819 -0.1081
   19SAPC  H11X 2525   2.361   5.267   8.803 -0.7450  0.2809 -1.5096
   19SAPC  H11Y 2526   2.356   5.434   8.875 -1.0928  1.2333  0.2852
   19SAPC  C312 2527   2.215   5.405   8.723 -0.6452  0.1766  0.6060
   19SAPC  H12X 2528   2.285   5.440   8.645 -0.6221 -2.7743 -0.8406
   19SAPC  H12Y 2529   2.143   5.482   8.756 -2.0689 -0.0349 -1.8319
   19SAPC  C313 2530   2.124   5.302   8.657  0.2452 -0.2304 -0.1702
   19SAPC  H13X 2531   2.017   5.327   8.676 -0.0801 -2.1873  0.8926
   19SAPC  H13Y 2532   2.130   5.199   8.700 -0.1767 -0.9825 -1.8219
   19SAPC  C314 2533   2.143   5.292   8.502  0.5459  0.2110  0.9626
   19SAPC  H14X 2534   2.143   5.390   8.450 -2.0551 -1.8244 -3.4388
   19SAPC  H14Y 2535   2.069   5.228   8.449  2.7848 -0.2944 -1.7642
   19SAPC  C315 2536   2.281   5.231   8.457  0.3132 -0.0502 -0.6431
   19SAPC  H15X 2537   2.302   5.154   8.534 -0.2981  1.5159  1.1686
   19SAPC  H15Y 2538   2.362   5.307   8.460  1.9973 -1.8019  1.0170
   19SAPC  C316 2539   2.286   5.164   8.320 -0.2060  0.4306 -0.5849
   19SAPC  H16X 2540   2.239   5.063   8.315  1.4779 -0.7271  3.0414
   19SAPC  H16Y 2541   2.394   5.143   8.307 -0.0360 -1.3114  2.4771
   19SAPC  C317 2542   2.243   5.261   8.208 -0.2278 -0.2520  0.7056
   19SAPC  H17X 2543   2.311   5.348   8.200  0.8186 -1.2150 -2.3909
   19SAPC  H17Y 2544   2.139   5.293   8.233  0.1025  0.6206  0.9943
   19SAPC  C318 2545   2.214   5.181   8.081  0.0076  0.5846 -0.6768
   19SAPC  H18X 2546   2.177   5.244   7.998 -0.0079  0.4727 -0.7546
   19SAPC  H18Y 2547   2.129   5.115   8.110 -0.9143  2.2214  0.5637
   19SAPC  H18Z 2548   2.296   5.121   8.038  0.8555  2.1533 -1.3307
   20SAPC     N 2549   2.826   3.317  10.814 -0.0394  0.2130 -0.4436
   20SAPC   C12 2550   2.862   3.181  10.752 -0.0443  0.4184 -0.4032
   20SAPC  H12A 2551   2.925   3.122  10.816 -3.6507 -1.0463  2.1158
   20SAPC  H12B 2552   2.914   3.204  10.659 -0.0744 -0.5052 -0.6555
   20SAPC   C13 2553   2.957   3.384  10.845  0.4982 -0.2819  0.3040
   20SAPC  H13A 2554   3.006   3.330  10.925 -2.0116 -1.8073  0.9232
   20SAPC  H13B 2555   3.018   3.393  10.756 -0.7413  0.2969 -0.5187
   20SAPC  H13C 2556   2.932   3.481  10.884  0.0092  0.5195 -1.8514
   20SAPC   C14 2557   2.743   3.392  10.719  0.3080  0.4945 -0.3880
   20SAPC  H14A 2558   2.663   3.329  10.685 -1.8591  1.5575  2.3913
   20SAPC  H14B 2559   2.693   3.469  10.775 -0.2699  2.0579 -2.9336
   20SAPC  H14C 2560   2.794   3.430  10.632  0.7984  2.7232  0.8037
   20SAPC   C15 2561   2.749   3.295  10.938  0.6395 -0.2853 -0.3398
   20SAPC  H15A 2562   2.792   3.226  11.008 -1.4434 -0.1804  1.1378
   20SAPC  H15B 2563   2.729   3.390  10.985 -1.0233  0.8111 -2.9735
   20SAPC  H15C 2564   2.650   3.255  10.923  0.5356  0.4072 -1.7643
   20SAPC   C11 2565   2.749   3.085  10.711 -0.6469  0.1482  0.6919
   20SAPC  H11A 2566   2.801   3.002  10.659 -1.6491  0.6500 -1.2038
   20SAPC  H11B 2567   2.684   3.130  10.634  0.8540  0.2516 -0.5461
   20SAPC     P 2568   2.519   3.017  10.808 -0.0263  0.0724  0.0380
   20SAPC   O13 2569   2.460   2.955  10.923 -0.5430  1.1282  0.2461
   20SAPC   O14 2570   2.474   3.150  10.770 -0.0854  0.4454 -0.3958
   20SAPC   O12 2571   2.677   3.029  10.823  0.1595  0.0200  0.0443
   20SAPC   O11 2572   2.510   2.923  10.681  0.5678 -0.1822  0.3201
   20SAPC    C1 2573   2.578   2.798  10.685 -0.1071 -1.0121  0.3212
   20SAPC    HA 2574   2.679   2.813  10.728  0.5117 -0.0886 -1.3635
   20SAPC    HB 2575   2.514   2.732  10.748  0.3678 -0.5502  1.3121
   20SAPC    C2 2576   2.582   2.743  10.540  0.0424  0.1588  0.0776
   20SAPC    HS 2577   2.590   2.632  10.541 -3.4846 -0.3047 -2.6897
   20SAPC   O21 2578   2.678   2.804  10.448 -0.4450  0.3776 -0.2008
   20SAPC   C21 2579   2.803   2.762  10.477 -0.3991 -0.2882  0.4045
   20SAPC   O22 2580   2.840   2.680  10.565  0.5118  0.3540  0.7210
   20SAPC   C22 2581   2.895   2.836  10.384  0.8621  0.0124 -0.0100
   20SAPC   H2R 2582   2.849   2.928  10.343  0.4116  0.4413  1.4271
   20SAPC   H2S 2583   2.982   2.858  10.449  0.5687  0.3875  0.2525
   20SAPC    C3 2584   2.440   2.763  10.477 -0.6144 -0.4870 -0.3774
   20SAPC    HX 2585   2.408   2.869  10.482 -1.9885 -0.8622 -0.8283
   20SAPC    HY 2586   2.379   2.699  10.544 -0.7192  0.9494  0.9429
   20SAPC   O31 2587   2.426   2.718  10.339  0.2694 -0.5448 -0.3734
   20SAPC   C31 2588   2.433   2.812  10.242 -0.3485 -0.3983  0.2737
   20SAPC   O32 2589   2.453   2.934  10.263  0.2474  0.3801  0.2294
   20SAPC   C32 2590   2.400   2.747  10.111  0.1281 -0.0971 -0.6581
   20SAPC   H2X 2591   2.480   2.792  10.050 -2.2122  2.6777 -1.8866
   20SAPC   H2Y 2592   2.310   2.797  10.069  0.3934  0.2242 -0.8425
   20SAPC   C23 2593   2.937   2.739  10.270  0.7002 -0.2023  0.4231
   20SAPC   H3R 2594   2.978   2.643  10.310  0.4370 -0.1065  0.9305
   20SAPC   H3S 2595   3.032   2.779  10.229  0.5544  0.2984  0.5671
   20SAPC   C24 2596   2.833   2.735  10.153 -0.6874 -0.6684  0.1823
   20SAPC   H4R 2597   2.733   2.725  10.200 -0.1973 -0.9946  1.1880
   20SAPC   H4S 2598   2.844   2.641  10.094  0.8167 -0.0905 -0.5309
   20SAPC   C25 2599   2.842   2.853  10.064  0.3111 -0.0161 -0.0639
   20SAPC   H5R 2600   2.788   2.942  10.100  1.3463  0.3326  0.6723
   20SAPC   C26 2601   2.922   2.866   9.959 -0.5171 -0.3166 -0.4778
   20SAPC   H6R 2602   2.920   2.963   9.908 -1.6810  0.2574  0.6037
   20SAPC   C27 2603   3.009   2.756   9.899  0.0648 -0.5844  0.0321
   20SAPC   H7R 2604   2.957   2.670   9.852 -0.9954 -0.3716  0.7574
   20SAPC   H7S 2605   3.070   2.707   9.978  1.5059 -0.8652 -1.2237
   20SAPC   C28 2606   3.109   2.809   9.796 -0.4172 -0.6609 -0.4629
   20SAPC   H8R 2607   3.201   2.849   9.842 -0.4589 -1.1058  0.0107
   20SAPC   C29 2608   3.101   2.805   9.659 -0.5926 -0.3174  0.5943
   20SAPC   H9R 2609   3.192   2.821   9.599 -0.2943  0.9410  1.3383
   20SAPC  C210 2610   2.984   2.759   9.583 -0.1576  0.1421 -0.5552
   20SAPC  H10R 2611   2.902   2.721   9.647 -0.6782  2.1410  0.0400
   20SAPC  H10S 2612   3.007   2.671   9.519  1.3904 -1.9030  2.5869
   20SAPC  C211 2613   2.943   2.874   9.495 -0.2691 -0.1513 -0.4569
   20SAPC  H11R 2614   2.868   2.938   9.544  0.0113 -0.4981  0.4612
   20SAPC  C212 2615   2.983   2.908   9.372  0.0130  0.4668 -0.4975
   20SAPC  H12R 2616   2.932   2.995   9.329 -0.0939  0.4689 -0.3662
   20SAPC  C213 2617   3.073   2.826   9.288 -0.1946 -0.5248 -0.3694
   20SAPC  H13R 2618   3.154   2.782   9.350  0.2417 -0.4160 -0.8525
   20SAPC  H13S 2619   3.119   2.897   9.216 -1.0583  0.1785 -0.2458
   20SAPC  C214 2620   3.002   2.721   9.215  0.5567  0.5173 -0.7991
   20SAPC  H14R 2621   2.998   2.628   9.273 -0.3828  2.1177  1.8876
   20SAPC  C215 2622   2.945   2.730   9.092 -0.0854  0.0063  0.1478
   20SAPC  H15R 2623   2.871   2.658   9.055  1.0111  0.3100 -2.8914
   20SAPC  C216 2624   2.956   2.862   9.009  0.1674  0.9850  0.3153
   20SAPC  H16R 2625   3.059   2.859   8.968  0.4500 -0.3120  1.0757
   20SAPC  H16S 2626   2.945   2.951   9.076  1.0024  0.0802  1.7027
   20SAPC  C217 2627   2.860   2.885   8.889  0.2636  0.0529  0.5718
   20SAPC  H17R 2628   2.871   2.989   8.851  1.5888 -1.0502 -2.3539
   20SAPC  H17S 2629   2.752   2.880   8.914  0.4782  1.0600  1.7872
   20SAPC  C218 2630   2.883   2.791   8.775 -0.0472  0.1450 -0.6434
   20SAPC  H18R 2631   2.797   2.789   8.704 -0.9786 -0.3645  0.4638
   20SAPC  H18S 2632   2.877   2.685   8.809  0.4867  0.1897 -0.3929
   20SAPC  C219 2633   3.001   2.815   8.680 -0.5002  0.2564  0.3532
   20SAPC  H19R 2634   3.089   2.856   8.735 -0.9747  2.0413 -0.1688
   20SAPC  H19S 2635   2.970   2.888   8.603  1.7073  0.1947 -0.6709
   20SAPC  C220 2636   3.058   2.698   8.607 -0.2156  0.2757  0.7048
   20SAPC  H20R 2637   2.996   2.656   8.525 -2.3185  1.3841  1.6362
   20SAPC  H20S 2638   3.064   2.605   8.669  0.6440  0.3727  0.7810
   20SAPC  H20T 2639   3.160   2.721   8.569 -0.4194  0.3070  0.1657
   20SAPC   C33 2640   2.393   2.595  10.108  0.5372 -0.5232 -0.3838
   20SAPC   H3X 2641   2.319   2.559  10.182  0.0252  1.7221  0.2970
   20SAPC   H3Y 2642   2.494   2.549  10.117 -0.5796 -3.1329 -0.3577
   20SAPC   C34 2643   2.341   2.541   9.975  0.9757 -0.0162 -0.2305
   20SAPC   H4X 2644   2.235   2.574   9.962  1.2266  0.2877 -1.6336
   20SAPC   H4Y 2645   2.325   2.432   9.989 -1.8673  0.1931 -1.0329
   20SAPC   C35 2646   2.426   2.576   9.858  0.3630 -0.0437  0.7173
   20SAPC   H5X 2647   2.418   2.686   9.846 -1.4851 -0.2824 -0.6719
   20SAPC   H5Y 2648   2.377   2.536   9.767 -0.1680  1.2984  0.3863
   20SAPC   C36 2649   2.573   2.534   9.860  0.4783  0.3149 -1.1537
   20SAPC   H6X 2650   2.581   2.424   9.871 -0.1823  0.3496 -0.1845
   20SAPC   H6Y 2651   2.620   2.592   9.942 -2.8057  2.2299 -0.4342
   20SAPC   C37 2652   2.643   2.585   9.736  0.2592  0.0514 -0.5501
   20SAPC   H7X 2653   2.744   2.540   9.740  1.5573  2.6873 -1.3611
   20SAPC   H7Y 2654   2.656   2.695   9.727 -0.0373  0.1105 -0.2881
   20SAPC   C38 2655   2.581   2.524   9.610  0.4256 -0.0609 -0.0443
   20SAPC   H8X 2656   2.507   2.600   9.576  1.1447  1.6140  1.9425
   20SAPC   H8Y 2657   2.525   2.432   9.640  1.2929 -0.3433  0.7645
   20SAPC   C39 2658   2.673   2.489   9.498 -0.2986 -0.2217  0.1592
   20SAPC   H9X 2659   2.737   2.399   9.511 -0.8368 -0.5275  0.7225
   20SAPC   H9Y 2660   2.750   2.566   9.474 -0.4105  0.1204  0.8756
   20SAPC  C310 2661   2.587   2.457   9.367  0.0839 -0.6098 -0.0053
   20SAPC  H10X 2662   2.512   2.539   9.367 -0.0661 -0.7484 -0.2472
   20SAPC  H10Y 2663   2.531   2.363   9.380 -0.4922 -0.0854  1.6251
   20SAPC  C311 2664   2.667   2.465   9.232  0.4686  0.1114 -0.8670
   20SAPC  H11X 2665   2.744   2.386   9.219 -0.0243 -0.3363 -1.1109
   20SAPC  H11Y 2666   2.725   2.560   9.240 -0.2294  0.7178 -2.4797
   20SAPC  C312 2667   2.573   2.469   9.111 -0.2832  0.2294 -0.9018
   20SAPC  H12X 2668   2.517   2.564   9.121  3.1165  2.2093  1.3421
   20SAPC  H12Y 2669   2.496   2.389   9.120  0.2224 -0.1640  0.1979
   20SAPC  C313 2670   2.640   2.476   8.976 -0.0803  0.2163 -0.0474
   20SAPC  H13X 2671   2.657   2.582   8.948 -1.3779  0.3789 -0.2969
   20SAPC  H13Y 2672   2.566   2.442   8.901 -0.6113  0.1885  0.4829
   20SAPC  C314 2673   2.772   2.394   8.965 -0.0085 -0.5117 -0.4053
   20SAPC  H14X 2674   2.760   2.298   9.020  0.3955  0.9758  2.5231
   20SAPC  H14Y 2675   2.859   2.447   9.010 -1.8466  0.7473  1.9064
   20SAPC  C315 2676   2.801   2.365   8.825 -0.1377 -1.1032 -0.5907
   20SAPC  H15X 2677   2.796   2.460   8.767  1.8085 -0.2297  0.5804
   20SAPC  H15Y 2678   2.723   2.301   8.779 -3.7718  1.1374  1.9139
   20SAPC  C316 2679   2.946   2.315   8.802 -0.5126 -0.4097 -0.0919
   20SAPC  H16X 2680   2.966   2.230   8.870 -0.8502  0.2464  0.8470
   20SAPC  H16Y 2681   3.015   2.401   8.819 -0.5170 -0.1337 -1.3983
   20SAPC  C317 2682   2.986   2.271   8.654  0.1461 -0.0045 -0.3124
   20SAPC  H17X 2683   3.097   2.270   8.648  0.2428 -0.2874  1.2501
   20SAPC  H17Y 2684   2.956   2.357   8.589  2.9666  2.0102  0.8725
   20SAPC  C318 2685   2.945   2.137   8.603 -0.0692 -0.1776  0.3759
   20SAPC  H18X 2686   2.982   2.051   8.661 -1.1305 -1.2744 -0.5021
   20SAPC  H18Y 2687   2.972   2.131   8.495 -1.6254 -2.6829  0.0190
   20SAPC  H18Z 2688   2.834   2.125   8.600 -0.1419  0.2259  1.2791
   21SAPC     N 2689   2.077   3.813  10.488  0.5691 -0.2292 -0.0589
   21SAPC   C12 2690   1.951   3.801  10.396  0.1824  0.0492  0.9830
   21SAPC  H12A 2691   1.966   3.723  10.322 -1.0375  1.5780 -0.9608
   21SAPC  H12B 2692   1.939   3.887  10.332  0.3744 -1.4729 -1.2077
   21SAPC   C13 2693   2.194   3.787  10.407 -0.3213  0.4377 -0.0383
   21SAPC  H13A 2694   2.208   3.682  10.385 -0.5356  0.6938 -1.4350
   21SAPC  H13B 2695   2.193   3.845  10.316  0.9290 -1.2116 -1.1682
   21SAPC  H13C 2696   2.279   3.807  10.472 -1.4335  2.2297  0.9546
   21SAPC   C14 2697   2.088   3.953  10.545  0.0180  0.0683 -0.1966
   21SAPC  H14A 2698   1.997   3.966  10.601 -0.2113  0.4875 -0.6628
   21SAPC  H14B 2699   2.172   3.964  10.613 -0.0354  0.1396 -0.1434
   21SAPC  H14C 2700   2.093   4.028  10.468 -0.1212  0.9939  0.6718
   21SAPC   C15 2701   2.070   3.724  10.601  0.1145  0.8517  0.2744
   21SAPC  H15A 2702   2.163   3.728  10.656  0.8667  1.9461 -1.0147
   21SAPC  H15B 2703   1.981   3.735  10.660  0.4845  0.7470  0.8591
   21SAPC  H15C 2704   2.053   3.624  10.566 -0.1078  1.3372 -1.0848
   21SAPC   C11 2705   1.814   3.772  10.453  0.2214 -0.0004 -0.3179
   21SAPC  H11A 2706   1.740   3.782  10.370  0.5429 -1.0274 -0.7411
   21SAPC  H11B 2707   1.789   3.857  10.520 -1.3712  0.6501 -1.6354
   21SAPC     P 2708   1.808   3.511  10.465  0.1535  0.3009  0.6120
   21SAPC   O13 2709   1.945   3.489  10.400  0.1307 -0.1141  0.1200
   21SAPC   O14 2710   1.765   3.417  10.571  0.1926  0.0017  0.6885
   21SAPC   O12 2711   1.811   3.645  10.525  0.7757 -0.4567  0.2599
   21SAPC   O11 2712   1.700   3.542  10.349 -0.5481  0.6778 -1.3086
   21SAPC    C1 2713   1.561   3.565  10.379  0.3005  0.1450 -0.4577
   21SAPC    HA 2714   1.528   3.531  10.480 -3.3459 -0.3059 -1.6511
   21SAPC    HB 2715   1.538   3.674  10.389 -0.0059  0.0073  0.4038
   21SAPC    C2 2716   1.475   3.483  10.274 -0.1372 -0.4521  0.4581
   21SAPC    HS 2717   1.474   3.377  10.309  1.9815 -0.0347  1.9301
   21SAPC   O21 2718   1.530   3.499  10.143 -0.3878  0.0725 -0.2787
   21SAPC   C21 2719   1.580   3.390  10.091 -0.3053  0.1585  0.5848
   21SAPC   O22 2720   1.580   3.281  10.144 -0.0880  0.6174 -0.5428
   21SAPC   C22 2721   1.628   3.410   9.952 -0.2835 -0.3765  0.8407
   21SAPC   H2R 2722   1.731   3.451   9.950 -1.3478  2.4445  0.0443
   21SAPC   H2S 2723   1.638   3.317   9.892  0.5221  0.4634 -0.3778
   21SAPC    C3 2724   1.320   3.514  10.277  0.0966 -0.3914 -0.0848
   21SAPC    HX 2725   1.288   3.487  10.380  2.1935  2.0635  1.3361
   21SAPC    HY 2726   1.278   3.431  10.216 -0.2901  0.8353 -1.5747
   21SAPC   O31 2727   1.298   3.651  10.245 -0.6602 -0.6380 -0.2451
   21SAPC   C31 2728   1.248   3.661  10.119 -0.3240 -0.3744 -0.3707
   21SAPC   O32 2729   1.218   3.566  10.053  0.3376 -0.7379  0.2997
   21SAPC   C32 2730   1.233   3.807  10.086 -0.8044  0.3505 -0.3931
   21SAPC   H2X 2731   1.309   3.860  10.147 -2.0321  0.5773  0.9932
   21SAPC   H2Y 2732   1.127   3.835  10.108 -0.9470  1.5248 -2.2879
   21SAPC   C23 2733   1.546   3.511   9.867  0.0481 -0.2732  0.7370
   21SAPC   H3R 2734   1.559   3.610   9.916  0.1644 -0.9897  2.2285
   21SAPC   H3S 2735   1.442   3.472   9.873 -0.3690  0.2424 -1.8959
   21SAPC   C24 2736   1.583   3.523   9.718  0.7984  0.5813  0.0751
   21SAPC   H4R 2737   1.584   3.421   9.674  0.6114  0.6132 -0.0074
   21SAPC   H4S 2738   1.684   3.570   9.720  2.3409 -2.4132 -1.1513
   21SAPC   C25 2739   1.482   3.600   9.642  0.2340  0.2375 -0.2936
   21SAPC   H5R 2740   1.383   3.597   9.692 -0.7539  1.2632 -2.1004
   21SAPC   C26 2741   1.505   3.663   9.529 -0.4429 -0.5902 -0.7771
   21SAPC   H6R 2742   1.420   3.702   9.470 -1.4040 -1.5569 -0.0530
   21SAPC   C27 2743   1.642   3.677   9.465  0.0196 -0.0172 -0.6176
   21SAPC   H7R 2744   1.719   3.606   9.502 -0.8563 -1.1570 -0.9201
   21SAPC   H7S 2745   1.671   3.779   9.496 -0.1612  0.1139 -0.8750
   21SAPC   C28 2746   1.648   3.664   9.312 -0.2807 -0.6028 -0.7326
   21SAPC   H8R 2747   1.713   3.585   9.271  0.8029  0.4963 -1.2138
   21SAPC   C29 2748   1.586   3.742   9.220 -0.3789  0.3173 -0.2667
   21SAPC   H9R 2749   1.586   3.705   9.116  0.9157  1.6211 -0.7616
   21SAPC  C210 2750   1.498   3.860   9.247  0.0891  0.4128  0.1807
   21SAPC  H10R 2751   1.501   3.899   9.351 -2.8402 -1.2721  1.0075
   21SAPC  H10S 2752   1.391   3.834   9.239 -0.3649  2.4830 -1.7474
   21SAPC  C211 2753   1.520   3.977   9.149  0.5516 -0.4281 -0.3637
   21SAPC  H11R 2754   1.624   4.012   9.148 -0.1654  1.8245 -0.5868
   21SAPC  C212 2755   1.426   4.054   9.088  0.0820 -0.3191 -0.2875
   21SAPC  H12R 2756   1.459   4.137   9.025 -1.7707  0.0225 -0.8813
   21SAPC  C213 2757   1.271   4.029   9.091  0.1078 -0.6042  0.0054
   21SAPC  H13R 2758   1.246   3.930   9.135 -1.0442  0.4850  1.9771
   21SAPC  H13S 2759   1.232   4.039   8.988 -0.1976  0.4136  0.2041
   21SAPC  C214 2760   1.198   4.137   9.186 -0.0908  0.5523  0.2073
   21SAPC  H14R 2761   1.246   4.155   9.283  0.4979  1.4828 -0.2337
   21SAPC  C215 2762   1.089   4.207   9.162  0.1664 -0.0573  0.5385
   21SAPC  H15R 2763   1.049   4.266   9.246 -0.0635  2.9303 -1.5000
   21SAPC  C216 2764   0.997   4.211   9.041  0.4446 -0.2716  0.0667
   21SAPC  H16R 2765   0.897   4.185   9.083  0.5381  1.2095  1.2875
   21SAPC  H16S 2766   1.014   4.135   8.962 -0.7598  0.3636 -0.8291
   21SAPC  C217 2767   0.988   4.343   8.970 -0.1913  0.3799 -0.4076
   21SAPC  H17R 2768   0.963   4.429   9.036  0.3918  1.1010 -1.0926
   21SAPC  H17S 2769   0.914   4.326   8.889 -1.4803  0.7022  0.6685
   21SAPC  C218 2770   1.112   4.396   8.891  0.4885  0.3189 -0.9947
   21SAPC  H18R 2771   1.144   4.319   8.817  0.3548 -0.2650 -0.4521
   21SAPC  H18S 2772   1.192   4.399   8.968  0.8628 -1.1543 -1.2834
   21SAPC  C219 2773   1.088   4.530   8.829  0.0346 -0.1793  0.2321
   21SAPC  H19R 2774   1.087   4.609   8.908 -0.5166  1.0557 -0.9628
   21SAPC  H19S 2775   0.989   4.541   8.780 -0.0314  0.7480  0.5527
   21SAPC  C220 2776   1.204   4.569   8.749 -0.2557 -0.3100 -0.2836
   21SAPC  H20R 2777   1.224   4.497   8.667 -0.4560 -1.7172  0.8674
   21SAPC  H20S 2778   1.287   4.557   8.821 -1.5485 -1.0494  1.1481
   21SAPC  H20T 2779   1.195   4.674   8.715 -1.4026  0.0757  1.1203
   21SAPC   C33 2780   1.246   3.836   9.937 -0.0303  0.2695 -0.5063
   21SAPC   H3X 2781   1.176   3.923   9.931 -0.8474 -0.2770  0.6956
   21SAPC   H3Y 2782   1.203   3.762   9.866 -2.4325  2.1133 -1.1347
   21SAPC   C34 2783   1.387   3.874   9.899  0.1946 -0.5079 -0.6054
   21SAPC   H4X 2784   1.455   3.799   9.944  0.6377 -0.0010 -0.4140
   21SAPC   H4Y 2785   1.398   3.967   9.958 -0.8070 -0.4563 -0.4890
   21SAPC   C35 2786   1.399   3.915   9.750  0.2762  0.3095  0.9065
   21SAPC   H5X 2787   1.334   3.859   9.679 -0.0620  1.5433  0.2082
   21SAPC   H5Y 2788   1.499   3.898   9.703 -0.5203 -2.4119 -0.0099
   21SAPC   C36 2789   1.363   4.058   9.717 -0.4410 -0.2547 -0.2442
   21SAPC   H6X 2790   1.396   4.075   9.612 -0.7230  5.4274  0.2785
   21SAPC   H6Y 2791   1.407   4.136   9.783  0.0876 -3.7920  4.0359
   21SAPC   C37 2792   1.215   4.090   9.702  0.0577 -0.1111 -0.0972
   21SAPC   H7X 2793   1.170   4.093   9.804 -0.1646  2.6877 -0.1989
   21SAPC   H7Y 2794   1.170   4.003   9.649  0.0880  0.3585 -0.9002
   21SAPC   C38 2795   1.190   4.219   9.625  0.1912  0.5712 -0.2351
   21SAPC   H8X 2796   1.234   4.214   9.523 -2.5186 -0.0399 -1.4789
   21SAPC   H8Y 2797   1.251   4.292   9.683 -0.9050  1.6734 -0.4364
   21SAPC   C39 2798   1.040   4.268   9.617 -0.0011 -0.3228  0.8504
   21SAPC   H9X 2799   1.028   4.330   9.525  1.0730 -2.7940 -1.0786
   21SAPC   H9Y 2800   1.021   4.320   9.713 -0.0315  0.6691  0.3217
   21SAPC  C310 2801   0.949   4.148   9.592  0.2542 -0.2875 -0.0330
   21SAPC  H10X 2802   0.947   4.081   9.681 -1.9080  0.8230  0.8154
   21SAPC  H10Y 2803   0.977   4.097   9.498  1.9397  3.4161 -1.7373
   21SAPC  C311 2804   0.804   4.192   9.572 -0.0411 -0.6471  0.1146
   21SAPC  H11X 2805   0.776   4.285   9.625 -2.3689 -0.2964 -1.5487
   21SAPC  H11Y 2806   0.740   4.105   9.595 -1.0280  0.2326  0.7876
   21SAPC  C312 2807   0.766   4.223   9.420  0.9652 -0.0627  0.3853
   21SAPC  H12X 2808   0.797   4.139   9.355  3.3570  0.7167  0.4369
   21SAPC  H12Y 2809   0.806   4.324   9.396 -3.0831  1.5224 -0.6888
   21SAPC  C313 2810   0.606   4.244   9.409 -0.5465  0.3537  0.2370
   21SAPC  H13X 2811   0.577   4.324   9.480 -1.1886  1.1910 -0.9388
   21SAPC  H13Y 2812   0.556   4.148   9.437  0.3513 -0.2941 -0.3151
   21SAPC  C314 2813   0.551   4.269   9.277 -0.1959 -0.0569 -0.6175
   21SAPC  H14X 2814   0.596   4.365   9.244  0.9463  0.1339  1.3051
   21SAPC  H14Y 2815   0.445   4.298   9.297  0.3131  2.6832 -1.4661
   21SAPC  C315 2816   0.563   4.161   9.173  0.0611  0.5164  0.6822
   21SAPC  H15X 2817   0.499   4.074   9.197  1.1054 -0.9648 -1.5236
   21SAPC  H15Y 2818   0.667   4.122   9.166  1.0708  3.2297 -1.5693
   21SAPC  C316 2819   0.513   4.202   9.034 -0.5764 -0.1051  1.3121
   21SAPC  H16X 2820   0.579   4.273   8.981 -1.3643 -1.1082 -1.1335
   21SAPC  H16Y 2821   0.412   4.249   9.033 -0.4302  0.2025  1.0808
   21SAPC  C317 2822   0.507   4.080   8.950  0.2093 -0.1273 -0.3969
   21SAPC  H17X 2823   0.447   4.005   9.006  0.5521 -0.9813 -1.1237
   21SAPC  H17Y 2824   0.608   4.034   8.943  1.0810  1.7698 -0.8419
   21SAPC  C318 2825   0.456   4.099   8.806  0.0941  0.0970  0.2560
   21SAPC  H18X 2826   0.358   4.150   8.802  0.0800  0.2409  1.8082
   21SAPC  H18Y 2827   0.469   4.015   8.735 -2.4301  0.6292 -0.9479
   21SAPC  H18Z 2828   0.531   4.167   8.758  1.0616 -1.4773 -0.5437
   22SAPC     N 2829   2.072   0.075  10.595  0.6385  0.2231 -0.2766
   22SAPC   C12 2830   1.961   0.034  10.690  0.5900 -0.9650  0.2447
   22SAPC  H12A 2831   1.929   0.123  10.741  1.0502 -0.2347 -0.7029
   22SAPC  H12B 2832   2.005  -0.016  10.775 -0.0438 -0.6693  0.7503
   22SAPC   C13 2833   2.121  -0.045  10.514  0.3114  0.7700  0.8464
   22SAPC  H13A 2834   2.029  -0.082  10.472  0.1387  0.8431  1.1567
   22SAPC  H13B 2835   2.187  -0.016  10.434 -1.7980  0.2005 -1.1985
   22SAPC  H13C 2836   2.163  -0.121  10.579  0.3472  1.1456  1.2695
   22SAPC   C14 2837   2.019   0.177  10.501 -0.1423  0.7362 -0.0675
   22SAPC  H14A 2838   1.994   0.262  10.563  1.4834 -0.1197  1.8653
   22SAPC  H14B 2839   2.105   0.201  10.440  0.9640  0.8502  1.4892
   22SAPC  H14C 2840   1.930   0.146  10.448 -0.7751  1.6218  0.4594
   22SAPC   C15 2841   2.201   0.128  10.668 -0.2114  0.2682 -0.3793
   22SAPC  H15A 2842   2.165   0.206  10.732 -0.5939 -1.0572  1.0896
   22SAPC  H15B 2843   2.253   0.052  10.724 -0.1201 -0.9349 -1.9931
   22SAPC  H15C 2844   2.274   0.165  10.597  0.4327  0.1354  0.2092
   22SAPC   C11 2845   1.839  -0.042  10.636 -0.1016 -0.4616  0.1192
   22SAPC  H11A 2846   1.780  -0.094  10.715 -2.3187  0.5604 -0.7883
   22SAPC  H11B 2847   1.874  -0.122  10.567  2.6129 -1.4361  2.4667
   22SAPC     P 2848   1.619   0.097  10.629 -0.1241  0.5979  0.2810
   22SAPC   O13 2849   1.590   0.038  10.759  0.1785 -0.1545  0.1654
   22SAPC   O14 2850   1.625   0.243  10.625  0.1118 -0.3265 -1.0640
   22SAPC   O12 2851   1.751   0.045  10.559 -0.1469  0.3898 -0.5077
   22SAPC   O11 2852   1.515   0.050  10.531  0.0541 -0.6671 -0.0217
   22SAPC    C1 2853   1.526   0.090  10.387 -0.4595 -0.0579 -0.9041
   22SAPC    HA 2854   1.568   0.192  10.374 -1.7388  0.3915 -1.6476
   22SAPC    HB 2855   1.597   0.030  10.327 -0.4188 -0.2790 -0.6375
   22SAPC    C2 2856   1.389   0.087  10.321 -1.0042  0.1130  0.0808
   22SAPC    HS 2857   1.321   0.143  10.390 -0.1508  0.8538  0.3346
   22SAPC   O21 2858   1.355  -0.052  10.314 -0.0319  0.5678  0.3719
   22SAPC   C21 2859   1.226  -0.078  10.293 -0.4812  0.2744 -0.0695
   22SAPC   O22 2860   1.137   0.004  10.305  0.3818  0.3587  0.7709
   22SAPC   C22 2861   1.200  -0.224  10.249  0.3616  0.3526 -0.2574
   22SAPC   H2R 2862   1.256  -0.247  10.155  0.7122 -1.6179  0.3934
   22SAPC   H2S 2863   1.252  -0.285  10.325 -0.4722  1.8351  1.5682
   22SAPC    C3 2864   1.404   0.151  10.181  0.4087 -0.5162  0.5653
   22SAPC    HX 2865   1.434   0.257  10.199  1.3717 -0.7218  0.2202
   22SAPC    HY 2866   1.310   0.148  10.122  2.7523 -0.5109 -3.5440
   22SAPC   O31 2867   1.502   0.088  10.095 -0.6576 -0.3284 -0.5533
   22SAPC   C31 2868   1.449  -0.004  10.006 -0.0349  0.2291  0.1133
   22SAPC   O32 2869   1.335  -0.038  10.003  0.2017 -0.4442  0.5830
   22SAPC   C32 2870   1.554  -0.075   9.922 -0.3970 -0.1640  0.1925
   22SAPC   H2X 2871   1.511  -0.168   9.878  0.4266 -0.4134 -0.1042
   22SAPC   H2Y 2872   1.642  -0.103   9.983  0.9122 -2.0360 -2.3606
   22SAPC   C23 2873   1.050  -0.251  10.217 -0.3838 -0.3897 -0.2292
   22SAPC   H3R 2874   0.993  -0.158  10.197 -1.3993 -0.7144  1.0843
   22SAPC   H3S 2875   1.016  -0.310  10.305 -0.1162  0.6894  0.6149
   22SAPC   C24 2876   1.035  -0.338  10.091  0.0478  0.9155 -0.5395
   22SAPC   H4R 2877   0.932  -0.378  10.088  1.1154 -2.0425 -2.5027
   22SAPC   H4S 2878   1.110  -0.419  10.102 -0.3788  0.3937 -1.4023
   22SAPC   C25 2879   1.072  -0.270   9.964  0.0464 -0.6438  0.0160
   22SAPC   H5R 2880   1.158  -0.202   9.963 -0.5089  0.0901 -2.1033
   22SAPC   C26 2881   0.992  -0.267   9.853 -0.0654 -0.4522  0.5317
   22SAPC   H6R 2882   1.031  -0.213   9.765 -0.9865  1.3573  1.1856
   22SAPC   C27 2883   0.859  -0.347   9.849 -0.5478  1.1697 -0.4718
   22SAPC   H7R 2884   0.841  -0.421   9.930 -0.2186  0.3805 -1.1065
   22SAPC   H7S 2885   0.865  -0.406   9.755 -1.5749 -0.3623  0.3680
   22SAPC   C28 2886   0.739  -0.253   9.846  0.4829  0.6108  0.0416
   22SAPC   H8R 2887   0.737  -0.180   9.928  0.5518  1.8206 -1.0047
   22SAPC   C29 2888   0.634  -0.241   9.753 -0.2589  1.1480 -0.0719
   22SAPC   H9R 2889   0.551  -0.174   9.780 -0.0308  1.2534  0.4014
   22SAPC  C210 2890   0.617  -0.323   9.626 -0.0957 -0.1158  0.6581
   22SAPC  H10R 2891   0.523  -0.381   9.637  0.3177 -0.5293  2.2258
   22SAPC  H10S 2892   0.699  -0.398   9.631  1.3417  0.9291 -3.4021
   22SAPC  C211 2893   0.637  -0.235   9.504 -0.2763 -0.1031  0.4356
   22SAPC  H11R 2894   0.708  -0.150   9.505  0.3545 -0.6150  2.0226
   22SAPC  C212 2895   0.576  -0.256   9.387  1.0816 -0.0375  0.5381
   22SAPC  H12R 2896   0.607  -0.189   9.305 -1.9473  1.6844  0.6183
   22SAPC  C213 2897   0.479  -0.369   9.351  0.4127  0.7501 -0.4745
   22SAPC  H13R 2898   0.495  -0.466   9.402 -2.9527  0.7503  0.8737
   22SAPC  H13S 2899   0.474  -0.389   9.241 -1.4185 -3.9628  0.2532
   22SAPC  C214 2900   0.343  -0.340   9.407  0.0985 -0.2204 -0.0909
   22SAPC  H14R 2901   0.340  -0.290   9.505 -0.8396  0.2643 -0.3524
   22SAPC  C215 2902   0.231  -0.375   9.347 -0.1012  0.1383  0.8749
   22SAPC  H15R 2903   0.135  -0.349   9.394  0.2877 -1.6497  2.8359
   22SAPC  C216 2904   0.213  -0.455   9.219 -0.3424 -0.1402 -0.3543
   22SAPC  H16R 2905   0.314  -0.460   9.171 -0.0002 -1.8324  0.4651
   22SAPC  H16S 2906   0.146  -0.403   9.148 -1.2489  0.1008  0.6559
   22SAPC  C217 2907   0.166  -0.605   9.234  0.7473  0.1057  0.7491
   22SAPC  H17R 2908   0.064  -0.607   9.278  1.4037  0.1874  2.3373
   22SAPC  H17S 2909   0.231  -0.668   9.298  0.6853 -2.3436 -1.4084
   22SAPC  C218 2910   0.165  -0.676   9.095 -0.4548  0.6389  0.0262
   22SAPC  H18R 2911   0.126  -0.611   9.013  0.0599  0.7322 -0.1499
   22SAPC  H18S 2912   0.092  -0.759   9.103  0.9569 -0.6843 -0.4246
   22SAPC  C219 2913   0.301  -0.742   9.064 -0.1146  0.4040  0.6623
   22SAPC  H19R 2914   0.331  -0.821   9.136 -0.9457 -0.9291 -0.4047
   22SAPC  H19S 2915   0.381  -0.666   9.070  1.3007 -0.9828 -0.0115
   22SAPC  C220 2916   0.306  -0.824   8.933  0.4804 -0.6499  0.2599
   22SAPC  H20R 2917   0.240  -0.912   8.942 -0.5274  0.2439  2.0313
   22SAPC  H20S 2918   0.410  -0.857   8.911  0.6764  0.3557 -0.4173
   22SAPC  H20T 2919   0.275  -0.754   8.852  0.0815  0.1328  1.0724
   22SAPC   C33 2920   1.595   0.012   9.802 -0.1365 -0.3350 -0.3973
   22SAPC   H3X 2921   1.688  -0.031   9.758  0.0643 -0.9602  0.6152
   22SAPC   H3Y 2922   1.615   0.108   9.856 -1.3447 -1.3066  1.8950
   22SAPC   C34 2923   1.485   0.013   9.695 -0.2205 -0.1530 -0.0787
   22SAPC   H4X 2924   1.389   0.041   9.742 -0.4240  2.0775 -1.6850
   22SAPC   H4Y 2925   1.469  -0.090   9.656 -2.5211  0.1923 -0.1832
   22SAPC   C35 2926   1.508   0.112   9.580 -0.2704  0.0922  0.2748
   22SAPC   H5X 2927   1.596   0.092   9.514  1.2207  2.2737  1.4842
   22SAPC   H5Y 2928   1.521   0.212   9.627  0.5026  0.1247  0.0165
   22SAPC   C36 2929   1.392   0.115   9.488  0.1360 -0.0497 -0.6142
   22SAPC   H6X 2930   1.425   0.193   9.416  1.5437 -0.4649 -0.4532
   22SAPC   H6Y 2931   1.302   0.155   9.538  1.2672 -1.7363  3.0909
   22SAPC   C37 2932   1.367  -0.005   9.403  0.0079  0.5346 -0.0106
   22SAPC   H7X 2933   1.262  -0.036   9.423  0.6504 -0.7589  1.5600
   22SAPC   H7Y 2934   1.431  -0.090   9.436 -0.6194  0.5208  1.2240
   22SAPC   C38 2935   1.405   0.016   9.259 -1.0236  0.1120  0.3028
   22SAPC   H8X 2936   1.328   0.087   9.222  0.0276  0.5499 -1.1211
   22SAPC   H8Y 2937   1.390  -0.080   9.204 -0.0962 -1.2090  2.2418
   22SAPC   C39 2938   1.550   0.064   9.233 -0.4392 -0.0660 -0.0436
   22SAPC   H9X 2939   1.617  -0.009   9.283  1.4048  0.0306 -2.2374
   22SAPC   H9Y 2940   1.581   0.167   9.263  2.0015  0.2333 -3.1299
   22SAPC  C310 2941   1.607   0.070   9.095  0.5733 -0.4891  0.5111
   22SAPC  H10X 2942   1.557   0.156   9.046 -0.9516 -1.9766 -0.6753
   22SAPC  H10Y 2943   1.569  -0.019   9.039 -2.4619  1.3520 -0.6207
   22SAPC  C311 2944   1.760   0.091   9.098  0.0493  0.2605  0.3896
   22SAPC  H11X 2945   1.804  -0.002   9.141 -3.0108 -1.6109 -0.2053
   22SAPC  H11Y 2946   1.785   0.172   9.170 -0.9702 -0.3664  1.4792
   22SAPC  C312 2947   1.829   0.126   8.959 -0.0693 -0.4038 -0.7584
   22SAPC  H12X 2948   1.861   0.034   8.906  1.3337 -0.5187  0.2360
   22SAPC  H12Y 2949   1.926   0.177   8.972 -0.7516  1.3584 -2.1675
   22SAPC  C313 2950   1.746   0.211   8.859  0.1076 -0.1013 -0.1440
   22SAPC  H13X 2951   1.685   0.286   8.914 -1.1079 -0.8330 -0.4475
   22SAPC  H13Y 2952   1.664   0.150   8.814  0.1689 -0.0121 -0.3772
   22SAPC  C314 2953   1.835   0.267   8.752 -0.5041 -0.1326  0.3515
   22SAPC  H14X 2954   1.903   0.191   8.707  0.7203  0.9882  0.2566
   22SAPC  H14Y 2955   1.907   0.345   8.786  0.5451 -0.5616 -0.8037
   22SAPC  C315 2956   1.759   0.335   8.633  0.0637  0.1081 -0.6837
   22SAPC  H15X 2957   1.674   0.393   8.675 -0.1030 -0.4873 -0.1792
   22SAPC  H15Y 2958   1.710   0.253   8.575 -1.5536  1.6027 -1.5159
   22SAPC  C316 2959   1.849   0.424   8.545  0.6470 -1.0320  0.1137
   22SAPC  H16X 2960   1.817   0.447   8.442 -0.0325  0.3181  0.6059
   22SAPC  H16Y 2961   1.944   0.367   8.538  1.6012  0.3419  1.2086
   22SAPC  C317 2962   1.890   0.564   8.608  0.6138  0.0098  0.1087
   22SAPC  H17X 2963   1.930   0.544   8.709 -0.8477 -2.3918  0.2848
   22SAPC  H17Y 2964   1.795   0.611   8.642  0.2141 -1.5049  1.1605
   22SAPC  C318 2965   1.982   0.653   8.530  0.3297 -0.6095 -0.5789
   22SAPC  H18X 2966   2.015   0.744   8.585 -2.1083 -2.0824  3.8142
   22SAPC  H18Y 2967   1.929   0.693   8.441 -0.6267 -0.6257 -0.0285
   22SAPC  H18Z 2968   2.062   0.591   8.483  0.4681 -1.6760  0.9795
   23SAPC     N 2969   3.315   2.216  11.077 -0.5276  0.3579 -0.6597
   23SAPC   C12 2970   3.305   2.180  10.928 -0.2311  0.0974  0.5691
   23SAPC  H12A 2971   3.202   2.164  10.898  0.1656 -2.0639  0.2268
   23SAPC  H12B 2972   3.352   2.083  10.920  2.0561  1.0830  1.4804
   23SAPC   C13 2973   3.453   2.185  11.120 -0.3038 -0.6086 -0.6294
   23SAPC  H13A 2974   3.482   2.243  11.206 -0.8732 -3.1059  1.3762
   23SAPC  H13B 2975   3.453   2.081  11.151 -3.3063 -0.9092 -1.3428
   23SAPC  H13C 2976   3.524   2.194  11.039  2.4309 -1.5906  1.5054
   23SAPC   C14 2977   3.289   2.361  11.089  0.3598 -0.1339  0.5736
   23SAPC  H14A 2978   3.196   2.380  11.038  0.3173 -1.0222  0.3078
   23SAPC  H14B 2979   3.278   2.386  11.194 -0.2670  2.3438 -0.0186
   23SAPC  H14C 2980   3.357   2.436  11.051  0.2943  0.0567  0.8297
   23SAPC   C15 2981   3.227   2.132  11.163  0.5313 -0.2139  0.0035
   23SAPC  H15A 2982   3.230   2.028  11.134  0.9318 -0.0093 -0.7016
   23SAPC  H15B 2983   3.251   2.141  11.268  0.8015  1.6596 -0.1780
   23SAPC  H15C 2984   3.120   2.145  11.159  0.4650 -0.2313  1.2242
   23SAPC   C11 2985   3.370   2.281  10.824  0.2905 -0.8928  0.4803
   23SAPC  H11A 2986   3.360   2.386  10.858  3.1795 -0.4905  0.2853
   23SAPC  H11B 2987   3.334   2.264  10.720  0.0172  0.4609  0.3392
   23SAPC     P 2988   3.585   2.165  10.732  0.2532  0.1759  0.1013
   23SAPC   O13 2989   3.731   2.176  10.760  0.2050  0.6637 -0.0156
   23SAPC   O14 2990   3.511   2.032  10.743 -0.2923  0.0725  0.2379
   23SAPC   O12 2991   3.510   2.262  10.824  0.0812 -0.1274 -0.4340
   23SAPC   O11 2992   3.558   2.227  10.588 -0.3881 -0.1839  0.1105
   23SAPC    C1 2993   3.600   2.362  10.565  0.2267 -0.2558  0.1560
   23SAPC    HA 2994   3.528   2.438  10.601 -1.4651 -0.7763 -1.9739
   23SAPC    HB 2995   3.694   2.394  10.615 -1.0837  1.6614  1.5248
   23SAPC    C2 2996   3.624   2.383  10.412  0.3109  0.7564 -0.0588
   23SAPC    HS 2997   3.633   2.493  10.407 -0.4038  0.9440  1.8398
   23SAPC   O21 2998   3.510   2.338  10.335 -0.0753 -0.2764  0.7289
   23SAPC   C21 2999   3.405   2.416  10.344 -0.3021 -0.6362  0.4138
   23SAPC   O22 3000   3.388   2.508  10.427  0.2073  0.3620  0.2016
   23SAPC   C22 3001   3.301   2.367  10.249  0.6055 -0.4383 -0.3087
   23SAPC   H2R 3002   3.339   2.292  10.177  1.4154  0.0555 -0.4098
   23SAPC   H2S 3003   3.227   2.315  10.314  0.1703  1.3417  0.7150
   23SAPC    C3 3004   3.760   2.313  10.376 -0.3560  0.1747 -0.4113
   23SAPC    HX 3005   3.750   2.203  10.390 -1.2069  0.2155 -0.6056
   23SAPC    HY 3006   3.829   2.354  10.453  0.0912 -1.1815 -0.0741
   23SAPC   O31 3007   3.814   2.346  10.241  0.1859  0.3523  0.5133
   23SAPC   C31 3008   3.763   2.276  10.145  0.3329 -0.2516 -0.9828
   23SAPC   O32 3009   3.680   2.188  10.157  0.1698 -0.2408 -0.0710
   23SAPC   C32 3010   3.815   2.338  10.015 -0.0098 -0.1161 -0.1781
   23SAPC   H2X 3011   3.920   2.306   9.998  0.6891  0.8353  2.0116
   23SAPC   H2Y 3012   3.815   2.449  10.022 -0.0778 -0.1512  0.4263
   23SAPC   C23 3013   3.237   2.493  10.192 -0.3444 -0.2556 -0.1184
   23SAPC   H3R 3014   3.219   2.560  10.279 -0.2848  2.7659 -2.2610
   23SAPC   H3S 3015   3.137   2.468  10.149 -1.1014  0.0954  1.3612
   23SAPC   C24 3016   3.320   2.577  10.099 -0.6439 -0.2109 -0.3348
   23SAPC   H4R 3017   3.417   2.602  10.149 -1.2808  0.3498  0.6598
   23SAPC   H4S 3018   3.270   2.676  10.090 -0.1828  0.2264  1.4200
   23SAPC   C25 3019   3.323   2.515   9.958  0.7999 -0.0471 -0.8213
   23SAPC   H5R 3020   3.244   2.440   9.939  0.8575 -0.1360 -0.7075
   23SAPC   C26 3021   3.400   2.559   9.860  0.6737  0.1472 -0.0186
   23SAPC   H6R 3022   3.386   2.511   9.762 -0.5275 -2.2683  1.2519
   23SAPC   C27 3023   3.513   2.655   9.858 -0.7974 -0.6635  0.0074
   23SAPC   H7R 3024   3.596   2.593   9.817 -0.4691 -0.1390 -0.1318
   23SAPC   H7S 3025   3.547   2.685   9.960 -0.1211  1.2165 -0.7222
   23SAPC   C28 3026   3.484   2.776   9.769 -0.4160  0.0417 -0.3378
   23SAPC   H8R 3027   3.448   2.863   9.827  0.3700  0.2122 -0.0904
   23SAPC   C29 3028   3.500   2.789   9.632 -0.3077  0.6129 -0.6305
   23SAPC   H9R 3029   3.504   2.890   9.589 -1.3004  1.5124  1.2621
   23SAPC  C210 3030   3.535   2.676   9.543 -0.0001  0.6527  0.3746
   23SAPC  H10R 3031   3.566   2.580   9.590 -2.9681 -1.0643 -0.8685
   23SAPC  H10S 3032   3.632   2.699   9.495  0.9609 -2.6874  0.4284
   23SAPC  C211 3033   3.423   2.645   9.447 -0.3684  1.2612  0.0431
   23SAPC  H11R 3034   3.337   2.592   9.490  0.2947  0.0265 -0.1035
   23SAPC  C212 3035   3.412   2.670   9.317  0.1458 -0.3179  0.2910
   23SAPC  H12R 3036   3.314   2.642   9.274 -0.6343  1.0269  1.1229
   23SAPC  C213 3037   3.493   2.744   9.211 -0.4630 -0.5871  0.1447
   23SAPC  H13R 3038   3.580   2.793   9.261 -0.3814 -0.2325 -0.3339
   23SAPC  H13S 3039   3.435   2.829   9.167  1.2715  0.5726 -0.0044
   23SAPC  C214 3040   3.541   2.649   9.106 -0.1085 -0.5875 -1.5918
   23SAPC  H14R 3041   3.619   2.577   9.134 -1.0580 -0.8347  0.6944
   23SAPC  C215 3042   3.484   2.619   8.990 -0.3071  0.3439 -0.4566
   23SAPC  H15R 3043   3.535   2.549   8.923  0.3640 -1.0600  1.4314
   23SAPC  C216 3044   3.358   2.683   8.932  0.0752  0.3403  0.1853
   23SAPC  H16R 3045   3.284   2.723   9.004 -0.6593  0.9434 -0.8648
   23SAPC  H16S 3046   3.306   2.610   8.866 -0.3416 -1.0373  1.9479
   23SAPC  C217 3047   3.400   2.799   8.837 -0.1927 -0.3766  0.2200
   23SAPC  H17R 3048   3.457   2.881   8.886  0.6039  1.2347 -3.0804
   23SAPC  H17S 3049   3.299   2.844   8.823  0.5575  1.3210 -0.0176
   23SAPC  C218 3050   3.460   2.749   8.706 -0.0100 -0.7158  0.1666
   23SAPC  H18R 3051   3.417   2.651   8.676  0.7640 -1.1302  0.3959
   23SAPC  H18S 3052   3.569   2.735   8.722  0.0447 -0.6710 -0.1632
   23SAPC  C219 3053   3.428   2.836   8.584 -0.1206  0.4945  0.3091
   23SAPC  H19R 3054   3.326   2.881   8.594 -0.3367  0.7926 -2.5788
   23SAPC  H19S 3055   3.434   2.783   8.487  0.1037  0.7954  0.1529
   23SAPC  C220 3056   3.517   2.964   8.570 -0.4029 -0.1017 -0.2049
   23SAPC  H20R 3057   3.462   3.046   8.520 -0.4818 -0.8804 -1.4168
   23SAPC  H20S 3058   3.611   2.940   8.517 -0.6626  1.2430 -1.3246
   23SAPC  H20T 3059   3.547   3.003   8.670 -0.8618  2.5903 -1.0309
   23SAPC   C33 3060   3.728   2.308   9.889 -0.3128 -0.6255 -0.1214
   23SAPC   H3X 3061   3.633   2.361   9.909  1.9163  3.6474  0.3321
   23SAPC   H3Y 3062   3.703   2.202   9.870 -0.0943 -0.4357 -1.6264
   23SAPC   C34 3063   3.783   2.352   9.753 -0.0922  0.5364 -0.2461
   23SAPC   H4X 3064   3.872   2.292   9.727 -1.5726 -1.0302 -1.9694
   23SAPC   H4Y 3065   3.816   2.456   9.777 -2.2676  0.7292  2.5416
   23SAPC   C35 3066   3.671   2.352   9.648 -0.3475  0.4446  0.3923
   23SAPC   H5X 3067   3.688   2.419   9.561 -1.5342 -2.7960 -2.5816
   23SAPC   H5Y 3068   3.577   2.389   9.694 -0.2929  2.4501 -0.9759
   23SAPC   C36 3069   3.653   2.218   9.576 -0.0683  0.1167  0.4623
   23SAPC   H6X 3070   3.648   2.134   9.649 -0.5208 -0.4909 -0.2597
   23SAPC   H6Y 3071   3.740   2.180   9.518 -1.4830 -1.6915 -0.5800
   23SAPC   C37 3072   3.532   2.212   9.477 -0.1024  0.5378 -0.0893
   23SAPC   H7X 3073   3.436   2.250   9.518  1.1083  2.2891  1.3100
   23SAPC   H7Y 3074   3.512   2.103   9.471  0.4498  0.3326  1.3585
   23SAPC   C38 3075   3.560   2.264   9.334  0.4747  0.0935  0.0817
   23SAPC   H8X 3076   3.666   2.252   9.304 -0.1993 -0.1825 -2.4402
   23SAPC   H8Y 3077   3.539   2.373   9.345 -1.4557 -0.4297  2.6160
   23SAPC   C39 3078   3.478   2.196   9.225 -0.3170  0.0740  0.9679
   23SAPC   H9X 3079   3.378   2.178   9.269 -0.6585  0.4733  0.3711
   23SAPC   H9Y 3080   3.522   2.094   9.215 -3.3500 -1.1711 -2.1364
   23SAPC  C310 3081   3.457   2.258   9.084 -0.5101 -0.7196  0.1803
   23SAPC  H10X 3082   3.554   2.256   9.030 -0.3174  0.2813  0.4703
   23SAPC  H10Y 3083   3.433   2.366   9.090  2.7572  0.0769  1.1207
   23SAPC  C311 3084   3.354   2.193   9.003  0.1992 -0.5416 -0.0144
   23SAPC  H11X 3085   3.339   2.265   8.920  0.6343  1.8545  1.8561
   23SAPC  H11Y 3086   3.269   2.188   9.075  0.4827  0.7696  0.4474
   23SAPC  C312 3087   3.392   2.054   8.961 -0.0738  0.0599 -0.1792
   23SAPC  H12X 3088   3.385   1.986   9.048  0.1563 -2.4036 -1.9663
   23SAPC  H12Y 3089   3.499   2.058   8.931 -0.6791 -2.4885 -3.2694
   23SAPC  C313 3090   3.300   1.997   8.849  0.1209 -0.6516 -0.7689
   23SAPC  H13X 3091   3.315   2.054   8.755 -1.1465 -1.5724 -1.5606
   23SAPC  H13Y 3092   3.196   2.021   8.879  0.2911 -1.2309  0.3392
   23SAPC  C314 3093   3.319   1.852   8.812  0.0542  0.0495 -0.7879
   23SAPC  H14X 3094   3.304   1.783   8.898 -0.9534 -0.9745 -1.7405
   23SAPC  H14Y 3095   3.418   1.820   8.774 -0.5016 -3.3494  0.2341
   23SAPC  C315 3096   3.214   1.809   8.700 -0.0620 -0.3200 -0.3278
   23SAPC  H15X 3097   3.274   1.800   8.607 -1.4249 -0.7987 -1.1820
   23SAPC  H15Y 3098   3.146   1.896   8.702 -0.4421 -0.5711 -1.4369
   23SAPC  C316 3099   3.148   1.676   8.734  0.1274 -0.0134 -0.1077
   23SAPC  H16X 3100   3.115   1.696   8.838 -1.3835 -1.6681 -0.2155
   23SAPC  H16Y 3101   3.222   1.593   8.739  0.1718 -0.0719 -1.4718
   23SAPC  C317 3102   3.028   1.645   8.643 -0.1204  0.2179 -0.8622
   23SAPC  H17X 3103   2.966   1.563   8.686  0.2284  0.2983 -0.1826
   23SAPC  H17Y 3104   3.063   1.613   8.543 -0.9820 -2.6160 -0.3683
   23SAPC  C318 3105   2.926   1.759   8.610  0.1956 -0.1488  0.2807
   23SAPC  H18X 3106   2.982   1.816   8.534  0.8736  0.5580  1.2782
   23SAPC  H18Y 3107   2.910   1.821   8.701 -0.3822 -0.3744  0.3331
   23SAPC  H18Z 3108   2.837   1.708   8.569  0.6679  0.9272 -2.2184
   24SAPC     N 3109   4.645   1.415  10.583 -0.5220  0.6580  0.2751
   24SAPC   C12 3110   4.762   1.461  10.657  0.1850 -0.4925  0.1885
   24SAPC  H12A 3111   4.757   1.569  10.664 -1.3142 -0.6248  2.1059
   24SAPC  H12B 3112   4.844   1.424  10.597  0.1042 -0.6951  0.2019
   24SAPC   C13 3113   4.646   1.474  10.446  0.8291 -0.2371 -0.3186
   24SAPC  H13A 3114   4.565   1.443  10.382  1.6468 -0.7964 -1.1060
   24SAPC  H13B 3115   4.655   1.582  10.449 -0.2034 -0.1528  1.5952
   24SAPC  H13C 3116   4.740   1.452  10.399  1.3042  0.8854  0.0702
   24SAPC   C14 3117   4.647   1.264  10.561 -0.0368  0.5599  0.2859
   24SAPC  H14A 3118   4.559   1.239  10.505  0.7948  0.9780 -1.2518
   24SAPC  H14B 3119   4.727   1.225  10.500 -0.2420 -1.6806  1.3505
   24SAPC  H14C 3120   4.651   1.207  10.653 -0.0754 -0.5121 -0.3624
   24SAPC   C15 3121   4.513   1.441  10.641  0.0333 -0.1160 -0.5038
   24SAPC  H15A 3122   4.432   1.399  10.584 -1.7271  2.1227  0.2022
   24SAPC  H15B 3123   4.509   1.401  10.742  0.8264 -2.0258 -1.1906
   24SAPC  H15C 3124   4.503   1.548  10.648  0.9863 -0.0486 -0.0177
   24SAPC   C11 3125   4.764   1.420  10.808  0.0081  0.1608  0.0765
   24SAPC  H11A 3126   4.769   1.309  10.814 -0.6315  0.1065 -0.3734
   24SAPC  H11B 3127   4.668   1.446  10.858  0.0079  0.1108  0.1013
   24SAPC     P 3128   5.019   1.404  10.851  0.1976 -0.1447  0.0056
   24SAPC   O13 3129   5.118   1.462  10.942  0.0556 -0.0135 -0.1646
   24SAPC   O14 3130   4.999   1.256  10.881  0.7553 -0.8913  0.2803
   24SAPC   O12 3131   4.877   1.475  10.872  0.3440  0.5163  0.3179
   24SAPC   O11 3132   5.053   1.436  10.700 -0.2961 -0.1306 -0.3918
   24SAPC    C1 3133   5.084   1.570  10.660  0.2999  0.0312  0.0885
   24SAPC    HA 3134   4.999   1.641  10.665  0.4645  0.1893  0.8577
   24SAPC    HB 3135   5.165   1.614  10.723  0.7876  0.3509 -0.7459
   24SAPC    C2 3136   5.132   1.588  10.508 -0.5937  0.2476 -0.1598
   24SAPC    HS 3137   5.058   1.644  10.447 -1.0357 -0.5311 -0.3553
   24SAPC   O21 3138   5.150   1.465  10.444 -0.0397 -0.3589 -0.4697
   24SAPC   C21 3139   5.045   1.395  10.403 -0.1102 -0.7623 -0.3647
   24SAPC   O22 3140   4.933   1.441  10.389 -0.2628  0.2876 -0.4516
   24SAPC   C22 3141   5.090   1.256  10.375 -0.0078  0.3826 -0.3137
   24SAPC   H2R 3142   5.138   1.250  10.274  0.6564 -1.0634  0.0530
   24SAPC   H2S 3143   5.159   1.221  10.455  0.8963 -0.6587 -1.5037
   24SAPC    C3 3144   5.255   1.677  10.494 -0.4189  0.4524 -0.4274
   24SAPC    HX 3145   5.293   1.680  10.390  0.8028  0.3799  0.0059
   24SAPC    HY 3146   5.334   1.626  10.552 -1.1102  0.5042  0.5963
   24SAPC   O31 3147   5.247   1.810  10.557  0.0095  0.3243  0.2105
   24SAPC   C31 3148   5.186   1.898  10.483  0.4470  0.3286  0.3137
   24SAPC   O32 3149   5.116   1.882  10.382 -0.0699 -0.1349 -0.3803
   24SAPC   C32 3150   5.223   2.037  10.532  0.2467  0.0510  0.7971
   24SAPC   H2X 3151   5.213   2.046  10.642  0.1287  1.9600  0.6741
   24SAPC   H2Y 3152   5.143   2.103  10.491  1.4816  1.0333 -0.1214
   24SAPC   C23 3153   4.972   1.153  10.382  0.3162  0.1560  0.4978
   24SAPC   H3R 3154   4.907   1.158  10.472 -0.9629  1.8088 -0.4523
   24SAPC   H3S 3155   5.028   1.058  10.389 -0.1454 -0.0657  1.2559
   24SAPC   C24 3156   4.887   1.144  10.252 -0.4172  0.5901  0.1507
   24SAPC   H4R 3157   4.949   1.134  10.161  2.1403  0.6037  1.8153
   24SAPC   H4S 3158   4.826   1.238  10.254 -0.1316  0.8422 -1.4403
   24SAPC   C25 3159   4.789   1.031  10.256 -0.1267  0.5903 -0.1114
   24SAPC   H5R 3160   4.769   0.996  10.358  1.0447  0.7912  0.1983
   24SAPC   C26 3161   4.721   0.976  10.150  0.2827  0.2415  0.8365
   24SAPC   H6R 3162   4.665   0.885  10.176  0.0241  0.8805  2.6085
   24SAPC   C27 3163   4.716   1.003  10.008 -0.3090 -0.0180  0.2132
   24SAPC   H7R 3164   4.783   0.935   9.952 -3.0144 -0.1827 -3.1433
   24SAPC   H7S 3165   4.743   1.105   9.977  0.6739  0.0097  1.1094
   24SAPC   C28 3166   4.581   0.977   9.955  0.3688 -0.7593  0.3994
   24SAPC   H8R 3167   4.493   0.995  10.018 -1.4688 -0.1419 -2.1917
   24SAPC   C29 3168   4.545   0.938   9.836 -0.5386  0.8189  0.7900
   24SAPC   H9R 3169   4.439   0.919   9.812  0.5369 -1.2753 -3.4597
   24SAPC  C210 3170   4.640   0.911   9.718  0.0210  0.0006 -0.3663
   24SAPC  H10R 3171   4.585   0.846   9.647  1.4375 -0.6972 -0.8469
   24SAPC  H10S 3172   4.721   0.854   9.769 -2.1965 -1.2142  2.0561
   24SAPC  C211 3173   4.701   1.030   9.662 -0.3148 -0.2524  0.6070
   24SAPC  H11R 3174   4.735   1.114   9.725  0.3607 -0.2326  0.2371
   24SAPC  C212 3175   4.727   1.030   9.527 -0.2156  0.1444  0.7022
   24SAPC  H12R 3176   4.789   1.110   9.483 -0.2817 -0.8566 -1.3123
   24SAPC  C213 3177   4.708   0.920   9.432  0.5353  0.6176 -0.4107
   24SAPC  H13R 3178   4.599   0.902   9.421  0.0737  1.4585  2.0774
   24SAPC  H13S 3179   4.752   0.824   9.468 -0.1518  0.4755  0.0666
   24SAPC  C214 3180   4.774   0.941   9.302 -0.3819  0.1200  0.0590
   24SAPC  H14R 3181   4.780   1.046   9.269 -0.7031  0.1977  0.2359
   24SAPC  C215 3182   4.816   0.850   9.216 -0.2023 -0.4684 -0.6604
   24SAPC  H15R 3183   4.870   0.883   9.126  1.7463  2.3210  1.3412
   24SAPC  C216 3184   4.817   0.697   9.235  0.1296 -0.2269  0.3161
   24SAPC  H16R 3185   4.794   0.641   9.142  1.8715  0.0625 -0.3209
   24SAPC  H16S 3186   4.741   0.664   9.309 -2.3883 -0.1408 -2.0718
   24SAPC  C217 3187   4.946   0.632   9.288 -0.2590 -1.2224 -0.7923
   24SAPC  H17R 3188   5.034   0.654   9.224 -0.0667 -2.4895 -0.9944
   24SAPC  H17S 3189   4.940   0.522   9.302  1.9963 -1.4712 -1.4257
   24SAPC  C218 3190   4.993   0.684   9.429 -0.0335 -0.8196 -0.3829
   24SAPC  H18R 3191   4.920   0.659   9.509  2.5715 -3.0640  1.5075
   24SAPC  H18S 3192   4.993   0.794   9.417  0.0793 -0.9370 -1.6494
   24SAPC  C219 3193   5.139   0.648   9.464  0.5663  0.8396  0.1847
   24SAPC  H19R 3194   5.212   0.664   9.382  0.7283  0.3573  0.2296
   24SAPC  H19S 3195   5.147   0.541   9.491  4.6568  0.1065 -3.0202
   24SAPC  C220 3196   5.186   0.726   9.584  0.4691  0.0336 -0.4234
   24SAPC  H20R 3197   5.289   0.705   9.617  0.2357  0.7578  0.8087
   24SAPC  H20S 3198   5.115   0.699   9.665  2.6957  2.4154  2.5716
   24SAPC  H20T 3199   5.171   0.833   9.556 -0.0137  0.5257  1.5838
   24SAPC   C33 3200   5.369   2.080  10.483  0.3422 -1.2763  0.7670
   24SAPC   H3X 3201   5.446   2.009  10.519  1.2537 -0.1044  1.2047
   24SAPC   H3Y 3202   5.380   2.176  10.538  1.3951 -0.6143 -0.5517
   24SAPC   C34 3203   5.385   2.117  10.337 -0.3447 -0.3515 -0.4448
   24SAPC   H4X 3204   5.453   2.205  10.335 -0.3812 -0.3179 -0.2582
   24SAPC   H4Y 3205   5.288   2.152  10.295 -0.2828  0.9234  0.3885
   24SAPC   C35 3206   5.444   2.011  10.245 -0.1551  0.4770  0.0101
   24SAPC   H5X 3207   5.381   1.921  10.255  1.7080 -0.9766 -0.7409
   24SAPC   H5Y 3208   5.546   1.977  10.274 -0.5842 -1.7524 -0.9590
   24SAPC   C36 3209   5.462   2.046  10.100 -0.5236 -0.0982  0.5298
   24SAPC   H6X 3210   5.517   1.966  10.045  0.1345  1.4632 -1.2042
   24SAPC   H6Y 3211   5.529   2.135  10.094 -2.1035  1.0498 -1.3380
   24SAPC   C37 3212   5.328   2.092  10.025 -0.0655  0.2671 -0.4183
   24SAPC   H7X 3213   5.255   2.140  10.093 -1.1515 -0.0267 -1.3420
   24SAPC   H7Y 3214   5.282   1.999   9.986  1.3056 -1.4469  1.8195
   24SAPC   C38 3215   5.351   2.185   9.907 -0.2088 -0.1622  0.8418
   24SAPC   H8X 3216   5.315   2.288   9.929 -1.9481 -0.7301  0.8485
   24SAPC   H8Y 3217   5.274   2.157   9.832  0.9890 -1.5868  0.1084
   24SAPC   C39 3218   5.486   2.186   9.840 -0.0461  0.0337  0.0073
   24SAPC   H9X 3219   5.534   2.085   9.843 -1.3965 -0.6296  0.0458
   24SAPC   H9Y 3220   5.553   2.260   9.890 -1.7317  1.3314  0.4284
   24SAPC  C310 3221   5.478   2.221   9.689  0.0655 -0.2703 -0.8416
   24SAPC  H10X 3222   5.582   2.254   9.666  1.2291 -2.4866  0.7454
   24SAPC  H10Y 3223   5.412   2.308   9.672  0.5143  0.2429 -0.0332
   24SAPC  C311 3224   5.451   2.096   9.611  0.1017  0.2302 -0.3446
   24SAPC  H11X 3225   5.347   2.067   9.636  0.4499 -0.3811  0.4341
   24SAPC  H11Y 3226   5.519   2.013   9.638 -0.0550 -0.3264 -1.5846
   24SAPC  C312 3227   5.456   2.115   9.462 -0.7958  1.0471 -0.7162
   24SAPC  H12X 3228   5.451   2.224   9.445 -1.1674  1.4203  1.5682
   24SAPC  H12Y 3229   5.368   2.065   9.417 -0.5773  0.7203 -0.7868
   24SAPC  C313 3230   5.580   2.042   9.423 -0.0005 -0.1020 -0.3670
   24SAPC  H13X 3231   5.566   1.932   9.433 -0.1095 -0.0883 -0.3704
   24SAPC  H13Y 3232   5.666   2.078   9.483 -0.1970 -0.1005 -0.0868
   24SAPC  C314 3233   5.617   2.063   9.278 -0.5779 -0.3493  0.2837
   24SAPC  H14X 3234   5.686   1.978   9.260 -0.2713  0.3142 -2.0288
   24SAPC  H14Y 3235   5.674   2.158   9.265  0.2124 -0.9739 -0.9969
   24SAPC  C315 3236   5.493   2.060   9.181  0.0069  0.4409 -0.0810
   24SAPC  H15X 3237   5.468   2.164   9.152 -0.6451  0.5558  0.8665
   24SAPC  H15Y 3238   5.404   2.013   9.226  0.3324  0.6317  0.7731
   24SAPC  C316 3239   5.515   1.973   9.061 -0.3893 -0.9256  0.4724
   24SAPC  H16X 3240   5.514   1.863   9.075 -0.1761 -0.8341  1.2684
   24SAPC  H16Y 3241   5.613   1.994   9.013 -1.6614 -1.5493 -2.6224
   24SAPC  C317 3242   5.398   1.997   8.957 -0.1644  0.4378  0.7172
   24SAPC  H17X 3243   5.404   2.099   8.915 -0.4757 -0.1555 -0.8322
   24SAPC  H17Y 3244   5.308   2.005   9.021 -1.0081 -0.5244 -0.3038
   24SAPC  C318 3245   5.355   1.896   8.857 -0.7259  0.3540 -0.2902
   24SAPC  H18X 3246   5.324   1.806   8.913 -3.3688 -0.1356 -2.3252
   24SAPC  H18Y 3247   5.429   1.867   8.779 -0.8208  0.0675 -0.2745
   24SAPC  H18Z 3248   5.269   1.930   8.794 -0.0645 -1.6810 -2.4049
   25SAPC     N 3249   2.412   0.149   5.843 -0.1326  0.1815 -0.1743
   25SAPC   C12 3250   2.417   0.078   5.978  0.0708 -0.1879 -0.1518
   25SAPC  H12A 3251   2.508   0.020   5.987  1.6530  2.1254 -0.3109
   25SAPC  H12B 3252   2.348  -0.005   5.984  2.0320 -1.8649  0.7069
   25SAPC   C13 3253   2.441   0.058   5.729 -0.2958  0.3745 -0.1420
   25SAPC  H13A 3254   2.419   0.112   5.638 -1.6242  1.4805  0.7978
   25SAPC  H13B 3255   2.540   0.016   5.720 -0.7291 -0.8233  0.4751
   25SAPC  H13C 3256   2.376  -0.027   5.741 -1.2321  1.0206 -0.5626
   25SAPC   C14 3257   2.276   0.206   5.825 -0.5106 -0.3648 -0.1739
   25SAPC  H14A 3258   2.254   0.271   5.907  5.2026  2.0011 -0.0557
   25SAPC  H14B 3259   2.274   0.263   5.733 -0.0284 -2.1264 -1.3354
   25SAPC  H14C 3260   2.198   0.132   5.814  0.5514 -1.2448 -2.9285
   25SAPC   C15 3261   2.508   0.263   5.850 -0.4072  0.4541  1.1601
   25SAPC  H15A 3262   2.607   0.232   5.879 -0.1377 -1.4072 -1.4669
   25SAPC  H15B 3263   2.514   0.320   5.758  0.0839 -0.5451  0.5627
   25SAPC  H15C 3264   2.460   0.334   5.916 -0.8215  0.1898  1.1442
   25SAPC   C11 3265   2.394   0.157   6.109  0.2834 -0.3256  0.5128
   25SAPC  H11A 3266   2.481   0.226   6.106  0.4322 -0.5029  0.7495
   25SAPC  H11B 3267   2.414   0.090   6.195  0.1950 -2.0919 -0.7944
   25SAPC     P 3268   2.135   0.147   6.136  0.0594  0.3167 -0.1087
   25SAPC   O13 3269   2.042   0.243   6.068  0.2133  0.2393  0.1022
   25SAPC   O14 3270   2.140   0.014   6.074  0.2809 -0.0066  0.2348
   25SAPC   O12 3271   2.272   0.222   6.119 -0.0119 -0.6017 -0.1814
   25SAPC   O11 3272   2.106   0.148   6.292  0.4401 -0.0969 -0.3877
   25SAPC    C1 3273   2.056   0.260   6.368 -0.5515  0.5042  0.2322
   25SAPC    HA 3274   1.969   0.304   6.315 -0.8306 -0.8361 -0.4630
   25SAPC    HB 3275   2.011   0.227   6.464 -2.3906  0.6734 -0.5270
   25SAPC    C2 3276   2.167   0.368   6.383  0.6602 -0.6069  0.0497
   25SAPC    HS 3277   2.189   0.400   6.279 -1.2904 -0.6766 -0.4321
   25SAPC   O21 3278   2.279   0.321   6.454  0.1212  0.2252  0.3273
   25SAPC   C21 3279   2.392   0.383   6.421 -0.4008 -0.3370 -0.3519
   25SAPC   O22 3280   2.406   0.469   6.335 -0.2737  0.5795 -0.2608
   25SAPC   C22 3281   2.507   0.338   6.514 -0.3302 -0.2433 -0.0681
   25SAPC   H2R 3282   2.583   0.413   6.485 -0.0420  0.3452  2.0890
   25SAPC   H2S 3283   2.476   0.351   6.620 -0.2752 -0.5351 -0.0161
   25SAPC    C3 3284   2.117   0.501   6.456  0.0080 -0.0381 -0.8262
   25SAPC    HX 3285   2.046   0.559   6.395  0.7463  1.2443 -0.5131
   25SAPC    HY 3286   2.205   0.569   6.469  0.0197 -0.2695  0.5090
   25SAPC   O31 3287   2.055   0.474   6.583 -0.2266  0.2365  0.3547
   25SAPC   C31 3288   2.133   0.497   6.683  0.2045 -0.5236  0.4872
   25SAPC   O32 3289   2.255   0.520   6.684  0.1408  0.5977  0.2546
   25SAPC   C32 3290   2.045   0.497   6.809 -0.5009  0.3700  0.4555
   25SAPC   H2X 3291   1.995   0.399   6.822 -1.4307  0.8946  0.9404
   25SAPC   H2Y 3292   1.971   0.577   6.789 -0.8446  1.1199  4.0727
   25SAPC   C23 3293   2.560   0.198   6.491 -0.0946  0.5327  0.5870
   25SAPC   H3R 3294   2.665   0.218   6.462 -0.0698  0.4832  0.6422
   25SAPC   H3S 3295   2.514   0.146   6.405  1.0757 -0.2102  0.3954
   25SAPC   C24 3296   2.580   0.103   6.608 -0.5935  0.8628 -0.3040
   25SAPC   H4R 3297   2.626   0.014   6.561  0.1090  0.1509  1.6395
   25SAPC   H4S 3298   2.483   0.061   6.641 -0.1358  0.5257  0.6288
   25SAPC   C25 3299   2.681   0.138   6.708 -0.0063  0.4176 -0.0646
   25SAPC   H5R 3300   2.775   0.185   6.676  0.4988  0.9058  1.9771
   25SAPC   C26 3301   2.675   0.096   6.842  0.3805  0.1432  0.2278
   25SAPC   H6R 3302   2.750   0.125   6.917 -2.6160  1.2846  3.0709
   25SAPC   C27 3303   2.557   0.014   6.903  0.3337  0.1901 -0.5685
   25SAPC   H7R 3304   2.592  -0.057   6.981 -0.1682 -0.3755 -0.8510
   25SAPC   H7S 3305   2.510  -0.053   6.828 -3.5126  2.2657 -0.2235
   25SAPC   C28 3306   2.449   0.108   6.955 -0.2545 -0.5085  0.1930
   25SAPC   H8R 3307   2.383   0.146   6.875  1.8473  0.4527 -1.2063
   25SAPC   C29 3308   2.434   0.160   7.078 -0.6154 -0.2025 -0.2727
   25SAPC   H9R 3309   2.363   0.241   7.098  1.2435  1.5629 -0.6033
   25SAPC  C210 3310   2.517   0.124   7.199  0.0956 -0.2463 -0.2403
   25SAPC  H10R 3311   2.595   0.049   7.173  1.5444  1.0786  0.0864
   25SAPC  H10S 3312   2.437   0.079   7.261 -0.6108  1.2716  0.0022
   25SAPC  C211 3313   2.582   0.241   7.269  0.0556  0.1099 -0.4634
   25SAPC  H11R 3314   2.587   0.332   7.208  0.0357  1.6787  1.7399
   25SAPC  C212 3315   2.633   0.240   7.397 -0.2790  0.2705  0.7879
   25SAPC  H12R 3316   2.659   0.335   7.445  3.2175 -0.4863  0.6882
   25SAPC  C213 3317   2.639   0.124   7.492 -0.3647  0.4573 -0.8850
   25SAPC  H13R 3318   2.641   0.024   7.442  4.2201  0.6258 -1.4657
   25SAPC  H13S 3319   2.552   0.114   7.560  0.7134  0.3424  0.5167
   25SAPC  C214 3320   2.758   0.144   7.585  0.0294 -0.1245  0.3663
   25SAPC  H14R 3321   2.852   0.143   7.527  0.5796 -1.0628  1.2446
   25SAPC  C215 3322   2.773   0.153   7.716 -0.5757  0.1169 -0.3296
   25SAPC  H15R 3323   2.874   0.167   7.757 -0.6471 -1.4975  0.4766
   25SAPC  C216 3324   2.665   0.138   7.821  0.2737  0.4524 -0.2236
   25SAPC  H16R 3325   2.686   0.038   7.864  3.0864  0.4429 -1.3848
   25SAPC  H16S 3326   2.564   0.137   7.773 -0.2785 -1.3021  0.9091
   25SAPC  C217 3327   2.679   0.241   7.932 -0.2951 -1.1538 -1.0397
   25SAPC  H17R 3328   2.688   0.339   7.880 -0.4738 -0.4677  0.1876
   25SAPC  H17S 3329   2.763   0.216   8.000 -1.3009 -1.2597  0.2025
   25SAPC  C218 3330   2.543   0.267   8.010 -0.0639 -0.5810  0.2637
   25SAPC  H18R 3331   2.469   0.305   7.936  0.6034 -1.9968 -1.1738
   25SAPC  H18S 3332   2.566   0.345   8.086  0.8927 -0.7233  0.1270
   25SAPC  C219 3333   2.497   0.147   8.089 -0.6370  0.1362 -0.3086
   25SAPC  H19R 3334   2.475   0.066   8.017 -0.8111  1.0021 -1.2608
   25SAPC  H19S 3335   2.398   0.163   8.136 -1.1460 -3.0218 -0.1023
   25SAPC  C220 3336   2.606   0.115   8.196 -0.0536 -0.8149 -0.6752
   25SAPC  H20R 3337   2.697   0.069   8.152  1.3562  0.1243  1.0961
   25SAPC  H20S 3338   2.562   0.038   8.263  1.8940  0.6060  2.4545
   25SAPC  H20T 3339   2.646   0.202   8.253  1.2036 -1.1325 -1.0459
   25SAPC   C33 3340   2.137   0.525   6.928 -0.2387 -0.0971  0.1534
   25SAPC   H3X 3341   2.188   0.623   6.918  0.1453 -0.4197 -1.3178
   25SAPC   H3Y 3342   2.212   0.442   6.925 -1.4605 -1.2259 -0.0200
   25SAPC   C34 3343   2.060   0.511   7.057  0.2216  1.0058  0.2788
   25SAPC   H4X 3344   2.023   0.406   7.060 -0.1279  1.1244  0.1564
   25SAPC   H4Y 3345   1.967   0.571   7.057 -1.6727 -1.6654 -1.5954
   25SAPC   C35 3346   2.133   0.526   7.187  0.8615 -0.1280  0.4746
   25SAPC   H5X 3347   2.160   0.633   7.196 -2.0484  0.6007  1.7826
   25SAPC   H5Y 3348   2.221   0.459   7.195  0.6169 -0.8351 -1.8489
   25SAPC   C36 3349   2.034   0.527   7.307  0.3114 -0.2066 -0.3430
   25SAPC   H6X 3350   1.967   0.443   7.333  1.5499 -1.3012 -0.6231
   25SAPC   H6Y 3351   1.965   0.613   7.289  0.7047  0.3588  0.7262
   25SAPC   C37 3352   2.109   0.553   7.439 -0.3357 -0.1441 -0.8609
   25SAPC   H7X 3353   2.153   0.652   7.412  1.0014 -1.2593 -3.1368
   25SAPC   H7Y 3354   2.198   0.487   7.454 -0.2250  0.4936  1.6148
   25SAPC   C38 3355   2.022   0.566   7.566  0.2873 -0.4475 -0.7540
   25SAPC   H8X 3356   1.980   0.465   7.587  0.2493 -0.2219  0.2956
   25SAPC   H8Y 3357   1.950   0.650   7.554  1.1686  0.3106 -0.8107
   25SAPC   C39 3358   2.113   0.600   7.692 -0.6838  0.0512  0.0818
   25SAPC   H9X 3359   2.156   0.702   7.683  0.4409 -0.5326 -1.8518
   25SAPC   H9Y 3360   2.208   0.543   7.685 -0.5383  0.3289 -0.2502
   25SAPC  C310 3361   2.056   0.582   7.834  0.5139 -0.1488 -0.4697
   25SAPC  H10X 3362   2.027   0.475   7.835 -0.0752  0.0144  0.6363
   25SAPC  H10Y 3363   1.967   0.649   7.840  1.3426  1.1570 -1.7875
   25SAPC  C311 3364   2.169   0.592   7.939  0.9857 -0.4545  0.4485
   25SAPC  H11X 3365   2.196   0.699   7.933  1.0977 -0.5671 -2.8725
   25SAPC  H11Y 3366   2.259   0.530   7.921  2.2902  2.2329 -3.5617
   25SAPC  C312 3367   2.114   0.572   8.084  0.4533  1.4228  0.1374
   25SAPC  H12X 3368   2.109   0.462   8.099 -0.5250  1.3559 -0.5618
   25SAPC  H12Y 3369   2.010   0.610   8.089 -0.9139 -1.9892  0.5813
   25SAPC  C313 3370   2.203   0.622   8.197 -0.9878  0.4879 -0.9438
   25SAPC  H13X 3371   2.168   0.584   8.295 -1.0206  0.1073 -1.1020
   25SAPC  H13Y 3372   2.189   0.732   8.196 -2.0235  0.3814  0.2750
   25SAPC  C314 3373   2.352   0.604   8.180 -0.3678 -0.7518 -0.2810
   25SAPC  H14X 3374   2.386   0.682   8.109  2.1799  0.5370  2.1654
   25SAPC  H14Y 3375   2.375   0.507   8.129 -4.2252 -0.6780 -2.5139
   25SAPC  C315 3376   2.436   0.600   8.312  0.6323 -0.1397  0.0843
   25SAPC  H15X 3377   2.376   0.662   8.382  2.0637  0.5315  0.7652
   25SAPC  H15Y 3378   2.532   0.651   8.288  0.3476  0.3473 -0.0398
   25SAPC  C316 3379   2.464   0.469   8.379 -0.7026 -0.6871 -0.5053
   25SAPC  H16X 3380   2.505   0.485   8.481  0.7079 -3.6709 -0.4910
   25SAPC  H16Y 3381   2.558   0.435   8.331  1.5457 -0.0717  3.0266
   25SAPC  C317 3382   2.356   0.367   8.370 -0.2357 -0.4461 -0.3096
   25SAPC  H17X 3383   2.337   0.338   8.264  2.1711  1.9818 -1.5254
   25SAPC  H17Y 3384   2.265   0.422   8.402  0.2847  1.1924 -1.5000
   25SAPC  C318 3385   2.367   0.251   8.467 -0.5051 -0.6658 -0.1163
   25SAPC  H18X 3386   2.402   0.292   8.564 -1.3384 -1.2875  0.4591
   25SAPC  H18Y 3387   2.438   0.170   8.436  2.6978  1.8441  0.1238
   25SAPC  H18Z 3388   2.269   0.200   8.473 -0.7011 -0.2001  0.7730
   26SAPC     N 3389   2.020   2.468   5.962 -0.4354  0.4991 -1.0991
   26SAPC   C12 3390   1.930   2.431   6.081  0.4429  0.0407  0.4434
   26SAPC  H12A 3391   1.870   2.518   6.106 -1.6244 -0.5262 -2.1364
   26SAPC  H12B 3392   1.993   2.392   6.159 -0.1365 -4.1351 -0.9298
   26SAPC   C13 3393   1.943   2.495   5.841  0.1090 -0.3898  0.0150
   26SAPC  H13A 3394   1.898   2.593   5.847  0.0569 -0.4538  0.8656
   26SAPC  H13B 3395   2.005   2.484   5.754  0.9216  1.9998  0.2142
   26SAPC  H13C 3396   1.865   2.420   5.834 -2.2390  1.6551  1.9731
   26SAPC   C14 3397   2.119   2.582   5.990  0.7322  0.7960  0.3423
   26SAPC  H14A 3398   2.198   2.572   5.918  0.0018 -1.7527 -0.2005
   26SAPC  H14B 3399   2.061   2.672   5.981  0.1450  0.3708 -0.1706
   26SAPC  H14C 3400   2.169   2.587   6.086  1.4878  0.6887 -0.0385
   26SAPC   C15 3401   2.103   2.350   5.940 -0.2883  0.0622 -0.6391
   26SAPC  H15A 3402   2.158   2.363   5.848  0.2429  1.2793 -0.1615
   26SAPC  H15B 3403   2.182   2.332   6.011  0.6147 -0.1135 -1.6683
   26SAPC  H15C 3404   2.047   2.259   5.925  0.1544 -0.3016 -0.1343
   26SAPC   C11 3405   1.837   2.306   6.059  0.5658 -0.2784 -0.3230
   26SAPC  H11A 3406   1.906   2.228   6.020  2.2222  1.1506 -0.3792
   26SAPC  H11B 3407   1.763   2.332   5.980 -1.1130  0.0009  1.2705
   26SAPC     P 3408   1.667   2.327   6.253  0.1149  0.5124  0.4015
   26SAPC   O13 3409   1.719   2.395   6.375  0.3215 -0.1101  0.6545
   26SAPC   O14 3410   1.593   2.408   6.153  0.2135 -0.1980  0.4496
   26SAPC   O12 3411   1.787   2.259   6.178 -0.1673 -0.1812 -0.0961
   26SAPC   O11 3412   1.573   2.212   6.295  0.0416  0.4631  0.5897
   26SAPC    C1 3413   1.632   2.098   6.357  0.5422 -0.0487  0.1265
   26SAPC    HA 3414   1.588   2.005   6.314  1.4115  0.2917 -1.5973
   26SAPC    HB 3415   1.741   2.084   6.341  0.5396 -1.4848  1.1571
   26SAPC    C2 3416   1.594   2.087   6.510 -0.5873  0.2107  0.0245
   26SAPC    HS 3417   1.686   2.114   6.565  0.6036 -1.0038 -1.2746
   26SAPC   O21 3418   1.559   1.956   6.549 -0.7281  0.5771 -0.1916
   26SAPC   C21 3419   1.653   1.860   6.542  0.8921  0.3418 -1.2286
   26SAPC   O22 3420   1.768   1.886   6.496  0.5318 -0.1562 -0.6631
   26SAPC   C22 3421   1.601   1.719   6.580  0.4235 -0.3055 -1.2074
   26SAPC   H2R 3422   1.532   1.681   6.501 -1.0657  0.8050 -0.4914
   26SAPC   H2S 3423   1.691   1.656   6.565  1.6215  1.4308 -1.6354
   26SAPC    C3 3424   1.492   2.191   6.559  0.6482  0.3406  0.5015
   26SAPC    HX 3425   1.408   2.215   6.490  0.0135 -1.1581  0.7240
   26SAPC    HY 3426   1.554   2.284   6.557  0.2853  0.5812  0.2612
   26SAPC   O31 3427   1.450   2.160   6.692  0.0226  0.4282  0.4414
   26SAPC   C31 3428   1.337   2.098   6.709  0.2350 -1.0515 -0.1218
   26SAPC   O32 3429   1.264   2.052   6.619  0.3658 -0.6756 -0.2135
   26SAPC   C32 3430   1.309   2.080   6.858 -1.0009  0.5130 -0.4258
   26SAPC   H2X 3431   1.307   1.971   6.874 -0.6733  0.6561  0.6703
   26SAPC   H2Y 3432   1.203   2.112   6.866 -0.8098  1.7685 -2.1867
   26SAPC   C23 3433   1.520   1.706   6.713  0.7243 -0.6303 -0.4669
   26SAPC   H3R 3434   1.457   1.615   6.703  1.5428 -1.1529 -0.9794
   26SAPC   H3S 3435   1.445   1.786   6.733 -0.4977 -1.8102 -0.1880
   26SAPC   C24 3436   1.609   1.691   6.838 -0.4304  0.4074  0.1356
   26SAPC   H4R 3437   1.677   1.606   6.818 -1.1909  0.0761 -1.1889
   26SAPC   H4S 3438   1.535   1.652   6.911 -0.4114  0.1999  0.0433
   26SAPC   C25 3439   1.678   1.814   6.897  0.0820  0.2870  0.9913
   26SAPC   H5R 3440   1.739   1.870   6.823 -0.2532 -0.7781 -0.1314
   26SAPC   C26 3441   1.676   1.856   7.026 -0.3209 -0.1933  0.9551
   26SAPC   H6R 3442   1.728   1.950   7.047  1.4200 -0.6628 -0.9635
   26SAPC   C27 3443   1.600   1.796   7.142 -0.2689  1.1280  0.6592
   26SAPC   H7R 3444   1.506   1.750   7.103 -1.0116  2.2976  1.0251
   26SAPC   H7S 3445   1.580   1.877   7.216  0.7326 -0.4390  2.7587
   26SAPC   C28 3446   1.688   1.688   7.201  1.1016  0.0308 -0.1861
   26SAPC   H8R 3447   1.741   1.627   7.126 -2.0368 -2.3301 -0.7274
   26SAPC   C29 3448   1.688   1.648   7.328 -0.7039 -0.6952 -0.1014
   26SAPC   H9R 3449   1.756   1.564   7.347 -0.8731 -0.2870  2.7613
   26SAPC  C210 3450   1.619   1.704   7.445  0.3470  0.3303  0.0257
   26SAPC  H10R 3451   1.570   1.617   7.493 -0.4240 -0.5220 -2.1416
   26SAPC  H10S 3452   1.540   1.773   7.408  0.4516 -0.0034 -0.8615
   26SAPC  C211 3453   1.709   1.777   7.540 -0.5235 -0.1427  1.0838
   26SAPC  H11R 3454   1.746   1.877   7.511 -0.2497 -0.5722 -0.0969
   26SAPC  C212 3455   1.755   1.743   7.662 -0.5764 -0.0413 -0.4394
   26SAPC  H12R 3456   1.819   1.823   7.703  0.5370 -0.6211 -1.0037
   26SAPC  C213 3457   1.727   1.624   7.749 -0.0327 -0.3157  0.2426
   26SAPC  H13R 3458   1.822   1.592   7.796  1.3761 -0.9490 -2.7847
   26SAPC  H13S 3459   1.708   1.540   7.679  3.4312  0.0786 -1.3680
   26SAPC  C214 3460   1.623   1.639   7.858 -0.1226  0.1006  0.0424
   26SAPC  H14R 3461   1.527   1.672   7.816 -0.4133 -1.1520 -0.3413
   26SAPC  C215 3462   1.629   1.593   7.987 -0.2250 -0.8662  0.1041
   26SAPC  H15R 3463   1.548   1.625   8.054 -1.5686  0.8033 -2.1620
   26SAPC  C216 3464   1.732   1.505   8.059  0.3399  0.0291  0.4132
   26SAPC  H16R 3465   1.763   1.550   8.155  1.2503  0.9294 -0.2899
   26SAPC  H16S 3466   1.823   1.491   7.997  0.3936 -1.5544  0.8060
   26SAPC  C217 3467   1.658   1.374   8.079 -0.0665 -0.5312  0.1936
   26SAPC  H17R 3468   1.726   1.289   8.102 -1.4609 -1.8154 -0.1987
   26SAPC  H17S 3469   1.602   1.353   7.984 -0.5595  0.0809  0.3446
   26SAPC  C218 3470   1.554   1.367   8.196  0.0855  0.5667 -0.0793
   26SAPC  H18R 3471   1.486   1.454   8.179  0.6188  0.8316 -0.9315
   26SAPC  H18S 3472   1.604   1.378   8.294 -1.0162  0.7562  0.4780
   26SAPC  C219 3473   1.462   1.248   8.200 -0.6611 -0.1397  0.7129
   26SAPC  H19R 3474   1.440   1.248   8.091 -0.6827 -1.5130  0.7072
   26SAPC  H19S 3475   1.377   1.279   8.264 -0.1931  1.5495  0.5600
   26SAPC  C220 3476   1.525   1.124   8.265  0.4814 -0.2435 -0.2952
   26SAPC  H20R 3477   1.442   1.052   8.278  0.2002 -0.1403 -1.4751
   26SAPC  H20S 3478   1.571   1.145   8.365 -0.5417 -1.5451  0.4823
   26SAPC  H20T 3479   1.596   1.079   8.193  1.4501  0.4313  0.2070
   26SAPC   C33 3480   1.403   2.152   6.954 -0.4083 -0.3534 -0.4570
   26SAPC   H3X 3481   1.389   2.262   6.944  2.0126  0.2473  1.6641
   26SAPC   H3Y 3482   1.511   2.129   6.938 -0.0128 -0.4125  1.9399
   26SAPC   C34 3483   1.359   2.140   7.099 -0.1970 -0.5712  0.1570
   26SAPC   H4X 3484   1.355   2.032   7.123 -0.9839 -0.6945 -0.4933
   26SAPC   H4Y 3485   1.254   2.177   7.103  0.0564  0.6053 -2.4798
   26SAPC   C35 3486   1.458   2.212   7.195 -0.4267 -0.5671 -0.5516
   26SAPC   H5X 3487   1.451   2.322   7.209 -0.9559 -0.6886  0.2057
   26SAPC   H5Y 3488   1.562   2.206   7.155  0.4075  3.1628  0.6442
   26SAPC   C36 3489   1.449   2.153   7.339 -0.5803  0.2147 -0.2724
   26SAPC   H6X 3490   1.502   2.055   7.337 -0.6328  0.1951 -0.9382
   26SAPC   H6Y 3491   1.345   2.137   7.374  0.0211  0.2323  1.6385
   26SAPC   C37 3492   1.528   2.232   7.442  0.4245  0.1884 -0.2532
   26SAPC   H7X 3493   1.451   2.306   7.473 -1.7240 -1.4538 -1.4060
   26SAPC   H7Y 3494   1.616   2.279   7.394  0.6136 -2.3383 -2.6339
   26SAPC   C38 3495   1.560   2.146   7.562 -0.2692 -0.2688 -0.6613
   26SAPC   H8X 3496   1.631   2.065   7.535  0.7797 -0.5984  2.7114
   26SAPC   H8Y 3497   1.471   2.095   7.606 -0.2247 -2.1460 -2.5876
   26SAPC   C39 3498   1.617   2.234   7.676  0.5101  0.4818  0.2330
   26SAPC   H9X 3499   1.539   2.299   7.721  0.2517  0.6346 -0.4181
   26SAPC   H9Y 3500   1.691   2.305   7.632 -0.9316  2.5520  0.9702
   26SAPC  C310 3501   1.678   2.156   7.786 -0.0763  0.3396  0.1677
   26SAPC  H10X 3502   1.770   2.113   7.741  0.3339  0.1641  1.1602
   26SAPC  H10Y 3503   1.611   2.080   7.831 -0.3259 -1.1707 -2.5389
   26SAPC  C311 3504   1.729   2.250   7.888  0.1216 -0.0899 -0.4746
   26SAPC  H11X 3505   1.644   2.297   7.941  0.1843  1.7051 -1.8787
   26SAPC  H11Y 3506   1.786   2.338   7.851 -1.1102 -0.0831 -2.5016
   26SAPC  C312 3507   1.815   2.178   7.994  0.3867  0.5596 -0.7651
   26SAPC  H12X 3508   1.869   2.090   7.953  2.3450  2.0689 -1.5562
   26SAPC  H12Y 3509   1.745   2.132   8.068  0.1881 -0.5011 -1.5716
   26SAPC  C313 3510   1.915   2.270   8.072  0.3277  1.0634 -0.7921
   26SAPC  H13X 3511   1.878   2.374   8.081 -0.3640  0.7712 -0.0524
   26SAPC  H13Y 3512   2.007   2.281   8.010  1.3062 -0.3124  0.3458
   26SAPC  C314 3513   1.945   2.231   8.215 -0.1350 -0.4057 -0.3558
   26SAPC  H14X 3514   2.020   2.149   8.224  0.6782  0.3973  0.4866
   26SAPC  H14Y 3515   1.852   2.203   8.268 -0.3426 -0.7191 -0.8922
   26SAPC  C315 3516   2.003   2.356   8.294 -0.0118  0.1520  0.1308
   26SAPC  H15X 3517   1.935   2.443   8.306  1.7688  2.3151 -3.5626
   26SAPC  H15Y 3518   2.092   2.399   8.242 -0.2590  0.3076 -0.1677
   26SAPC  C316 3519   2.059   2.331   8.437 -0.6276 -0.4702  0.5900
   26SAPC  H16X 3520   1.977   2.290   8.500 -1.0246 -0.2076  0.2490
   26SAPC  H16Y 3521   2.094   2.426   8.483  1.8318 -2.2093  2.6004
   26SAPC  C317 3522   2.179   2.237   8.459 -0.4904 -0.3728  0.0980
   26SAPC  H17X 3523   2.270   2.273   8.406  1.3290 -0.9329  2.6326
   26SAPC  H17Y 3524   2.152   2.140   8.413  0.1199 -0.2842 -0.4697
   26SAPC  C318 3525   2.214   2.221   8.613  0.0334  0.1482  0.1702
   26SAPC  H18X 3526   2.287   2.299   8.644 -1.8459  1.1487  2.3668
   26SAPC  H18Y 3527   2.256   2.121   8.636 -0.0444 -0.7742 -3.1938
   26SAPC  H18Z 3528   2.125   2.247   8.673 -1.5073 -0.9157 -1.5610
   27SAPC     N 3529   6.803   1.896   6.330  0.3599 -0.5750  0.4953
   27SAPC   C12 3530   6.647   1.890   6.350  0.1135 -0.0828 -0.1648
   27SAPC  H12A 3531   6.604   1.799   6.311  0.8282 -0.1445 -0.8312
   27SAPC  H12B 3532   6.612   1.971   6.288 -1.5075 -1.2816 -0.9097
   27SAPC   C13 3533   6.844   2.033   6.383  0.6112 -0.5278  0.1262
   27SAPC  H13A 3534   6.765   2.103   6.361 -0.5194 -1.1126  2.0591
   27SAPC  H13B 3535   6.849   2.017   6.490  0.0858 -1.0094  0.0886
   27SAPC  H13C 3536   6.934   2.070   6.337  0.3332 -2.8989 -2.5883
   27SAPC   C14 3537   6.868   1.777   6.393 -0.9446  0.1782  0.2379
   27SAPC  H14A 3538   6.976   1.776   6.386 -0.8725 -3.6919 -0.4665
   27SAPC  H14B 3539   6.837   1.763   6.496  1.8554  2.2282  1.4754
   27SAPC  H14C 3540   6.829   1.689   6.343  1.0900  0.6813 -2.4327
   27SAPC   C15 3541   6.839   1.899   6.178  0.2961 -0.1787 -0.5546
   27SAPC  H15A 3542   6.793   1.812   6.134 -1.8635  0.5326  0.1662
   27SAPC  H15B 3543   6.792   1.985   6.133 -1.9096 -0.8084  0.3939
   27SAPC  H15C 3544   6.946   1.892   6.165  0.3473  0.3600 -0.4345
   27SAPC   C11 3545   6.587   1.910   6.488 -0.8593 -0.5522  0.5518
   27SAPC  H11A 3546   6.476   1.897   6.488 -1.0289  0.7123  0.5142
   27SAPC  H11B 3547   6.617   2.009   6.529  0.4782 -0.5995 -0.2757
   27SAPC     P 3548   6.678   1.848   6.715 -0.1548 -0.1614  0.1803
   27SAPC   O13 3549   6.713   1.721   6.784 -0.7109 -0.3798 -0.1710
   27SAPC   O14 3550   6.778   1.960   6.703 -0.0366  0.0950 -0.0823
   27SAPC   O12 3551   6.625   1.799   6.572  0.4961 -0.7824 -0.0024
   27SAPC   O11 3552   6.548   1.903   6.785  0.3062  0.5143  0.8381
   27SAPC    C1 3553   6.416   1.838   6.765 -0.5038  0.0407  0.8135
   27SAPC    HA 3554   6.351   1.898   6.697 -2.5927 -0.5926  2.1351
   27SAPC    HB 3555   6.419   1.740   6.713  0.5575  1.2669 -1.5863
   27SAPC    C2 3556   6.331   1.829   6.893  0.2019  0.1641  0.0300
   27SAPC    HS 3557   6.242   1.763   6.885 -1.2234  1.9575  0.4803
   27SAPC   O21 3558   6.306   1.964   6.931 -0.0229  0.0854  0.1056
   27SAPC   C21 3559   6.192   2.019   6.883 -0.2979  0.9541 -0.3928
   27SAPC   O22 3560   6.108   1.962   6.820 -0.4316  0.0320  0.0961
   27SAPC   C22 3561   6.187   2.165   6.914  0.7290 -0.1997 -0.7000
   27SAPC   H2R 3562   6.263   2.160   6.994 -0.4086 -2.3051  0.3443
   27SAPC   H2S 3563   6.227   2.218   6.826 -0.5833 -1.5334 -2.1753
   27SAPC    C3 3564   6.413   1.763   7.003  0.4137 -0.1223 -0.2572
   27SAPC    HX 3565   6.500   1.829   7.017  1.0969 -1.0865  0.1153
   27SAPC    HY 3566   6.451   1.665   6.968 -1.1007 -0.4772 -1.0408
   27SAPC   O31 3567   6.323   1.751   7.115 -0.3134 -0.3349 -0.5715
   27SAPC   C31 3568   6.342   1.843   7.222 -0.4982  0.1904  0.4602
   27SAPC   O32 3569   6.419   1.939   7.217 -0.0419 -0.2948 -0.2547
   27SAPC   C32 3570   6.247   1.801   7.332 -0.6145  0.3173  0.5844
   27SAPC   H2X 3571   6.264   1.693   7.355  0.7114  0.7657  1.8474
   27SAPC   H2Y 3572   6.141   1.805   7.299 -0.0580  0.3962 -1.3534
   27SAPC   C23 3573   6.047   2.216   6.968  0.0868  0.7387 -0.0109
   27SAPC   H3R 3574   5.973   2.204   6.885 -1.7918 -0.5026  1.7319
   27SAPC   H3S 3575   6.063   2.322   6.997  3.2048  0.4553 -0.4447
   27SAPC   C24 3576   6.005   2.139   7.096  0.3907  0.5826 -0.1507
   27SAPC   H4R 3577   5.970   2.035   7.080 -2.6697  1.4692 -0.0617
   27SAPC   H4S 3578   5.904   2.183   7.113  0.3044  0.7627 -1.1103
   27SAPC   C25 3579   6.086   2.149   7.228  0.4321  0.1632 -0.0129
   27SAPC   H5R 3580   6.193   2.125   7.220  0.6347  0.8567  0.4979
   27SAPC   C26 3581   6.035   2.193   7.347 -0.3769 -0.4611 -0.5169
   27SAPC   H6R 3582   6.118   2.201   7.419 -0.5255 -0.0134 -0.3955
   27SAPC   C27 3583   5.895   2.227   7.376  0.3636 -0.1763  0.3564
   27SAPC   H7R 3584   5.869   2.163   7.462 -0.1365  0.5181  0.7361
   27SAPC   H7S 3585   5.822   2.199   7.297 -1.2888  1.5273  1.1618
   27SAPC   C28 3586   5.869   2.377   7.411  0.1806 -0.5364 -0.4550
   27SAPC   H8R 3587   5.834   2.436   7.325 -0.1009 -1.2260 -0.8238
   27SAPC   C29 3588   5.877   2.440   7.531  0.1500 -0.0251  0.2021
   27SAPC   H9R 3589   5.849   2.546   7.538 -1.5195 -0.4546  0.5998
   27SAPC  C210 3590   5.907   2.360   7.656 -0.1386  0.2658 -0.1529
   27SAPC  H10R 3591   5.926   2.253   7.633  1.1335  0.4507 -0.0270
   27SAPC  H10S 3592   5.818   2.366   7.723  0.3274 -1.6214  0.7143
   27SAPC  C211 3593   6.025   2.406   7.741  0.0918 -0.5690 -0.2050
   27SAPC  H11R 3594   6.109   2.455   7.690 -1.0839  0.7575 -0.9735
   27SAPC  C212 3595   6.022   2.393   7.874  0.2622  0.6567 -0.4505
   27SAPC  H12R 3596   6.113   2.423   7.929 -0.2864  0.2542  0.7048
   27SAPC  C213 3597   5.908   2.329   7.958 -0.4223  0.8245 -0.9985
   27SAPC  H13R 3598   5.839   2.261   7.903 -1.1424  1.6597 -1.1468
   27SAPC  H13S 3599   5.850   2.412   8.003 -1.5988 -0.5491  0.1030
   27SAPC  C214 3600   5.963   2.239   8.070 -0.4165  0.1413  0.5231
   27SAPC  H14R 3601   6.045   2.175   8.036 -2.3122 -2.0735 -0.1275
   27SAPC  C215 3602   5.907   2.214   8.191 -0.1950 -0.2131 -0.4079
   27SAPC  H15R 3603   5.949   2.144   8.264 -1.6652 -0.4469  0.2599
   27SAPC  C216 3604   5.778   2.279   8.240 -0.1076  0.0652  0.2073
   27SAPC  H16R 3605   5.699   2.275   8.162  0.4953 -0.5897 -0.3841
   27SAPC  H16S 3606   5.801   2.385   8.261 -1.3276  0.0294  1.9402
   27SAPC  C217 3607   5.733   2.228   8.382 -0.4202 -0.2801 -0.0751
   27SAPC  H17R 3608   5.649   2.292   8.416 -0.8877 -1.0128  0.1645
   27SAPC  H17S 3609   5.818   2.242   8.452  1.1434 -2.7442 -1.3313
   27SAPC  C218 3610   5.688   2.082   8.384  0.2667  0.1459 -0.0019
   27SAPC  H18R 3611   5.779   2.019   8.388  0.3498  0.3516  2.1662
   27SAPC  H18S 3612   5.629   2.060   8.292 -0.3965 -0.3853  0.5413
   27SAPC  C219 3613   5.616   2.035   8.508  0.1009  0.4993  0.1926
   27SAPC  H19R 3614   5.585   1.929   8.496 -2.2444  1.2688 -1.1118
   27SAPC  H19S 3615   5.522   2.093   8.509 -0.0823  0.3368  3.5610
   27SAPC  C220 3616   5.681   2.073   8.645  0.4805 -0.1923 -0.7772
   27SAPC  H20R 3617   5.682   2.184   8.655 -2.3042 -0.1177 -0.3986
   27SAPC  H20S 3618   5.783   2.037   8.667  1.4511  2.7847  0.0686
   27SAPC  H20T 3619   5.617   2.038   8.728 -0.3802  0.1953 -1.2545
   27SAPC   C33 3620   6.281   1.879   7.460  0.3943 -0.6361  0.0730
   27SAPC   H3X 3621   6.308   1.987   7.458 -1.0797 -0.1210  2.7360
   27SAPC   H3Y 3622   6.365   1.832   7.514 -0.1958 -1.2553  0.4761
   27SAPC   C34 3623   6.163   1.866   7.561 -0.1035 -0.2756  0.4022
   27SAPC   H4X 3624   6.162   1.759   7.594 -0.1711 -0.6730 -0.8574
   27SAPC   H4Y 3625   6.071   1.889   7.503  0.9812  2.5309 -0.3275
   27SAPC   C35 3626   6.155   1.974   7.675 -0.1639  0.5204 -0.2001
   27SAPC   H5X 3627   6.066   1.969   7.741 -1.5719  3.1875 -1.7719
   27SAPC   H5Y 3628   6.150   2.075   7.631  0.8554  0.4919 -0.4172
   27SAPC   C36 3629   6.274   1.958   7.776  0.1869  0.0531  0.2676
   27SAPC   H6X 3630   6.364   1.996   7.724  0.3426  0.4327  0.8052
   27SAPC   H6Y 3631   6.287   1.851   7.802  0.4361 -0.4958 -1.9793
   27SAPC   C37 3632   6.270   2.055   7.891 -0.1819 -0.4128 -0.2034
   27SAPC   H7X 3633   6.168   2.052   7.937 -0.2777 -3.0012 -0.4359
   27SAPC   H7Y 3634   6.286   2.156   7.847  0.5648 -0.5556 -0.2591
   27SAPC   C38 3635   6.374   2.017   7.987  0.5528  0.1477  0.9062
   27SAPC   H8X 3636   6.471   2.045   7.941 -0.3634 -0.0736 -1.3026
   27SAPC   H8Y 3637   6.395   1.908   7.994 -0.8895 -0.4504 -2.2939
   27SAPC   C39 3638   6.359   2.100   8.117 -0.8413 -0.6126 -0.3553
   27SAPC   H9X 3639   6.349   2.207   8.089  0.9770 -1.0822 -3.2468
   27SAPC   H9Y 3640   6.463   2.091   8.154 -0.4384 -1.7751 -1.6664
   27SAPC  C310 3641   6.265   2.054   8.222 -0.8048  0.2460  0.4302
   27SAPC  H10X 3642   6.292   1.951   8.253 -1.3059  0.0828  0.3349
   27SAPC  H10Y 3643   6.159   2.061   8.188 -0.9588 -2.1051  0.2331
   27SAPC  C311 3644   6.273   2.146   8.346 -0.6382  0.0490  0.2824
   27SAPC  H11X 3645   6.208   2.235   8.331 -1.0915 -0.4908 -1.2012
   27SAPC  H11Y 3646   6.380   2.174   8.353  0.0261 -2.3729  0.6360
   27SAPC  C312 3647   6.227   2.072   8.470  0.0170  0.0098 -0.4415
   27SAPC  H12X 3648   6.285   1.977   8.473  1.0454  0.6340  0.5480
   27SAPC  H12Y 3649   6.117   2.058   8.468 -0.2440  1.4330  1.3343
   27SAPC  C313 3650   6.249   2.144   8.604  0.3235 -0.1305  0.2441
   27SAPC  H13X 3651   6.233   2.079   8.693  1.6038  2.8797  2.8744
   27SAPC  H13Y 3652   6.176   2.228   8.614 -2.4351 -2.2787 -0.5617
   27SAPC  C314 3653   6.393   2.191   8.642 -0.6216  0.3534 -0.2373
   27SAPC  H14X 3654   6.431   2.272   8.576  0.0689  0.3222  0.1164
   27SAPC  H14Y 3655   6.459   2.104   8.623 -1.1296  0.2691 -1.7635
   27SAPC  C315 3656   6.406   2.231   8.793 -0.2374 -0.8424 -0.0753
   27SAPC  H15X 3657   6.378   2.143   8.854 -0.7850 -0.6126  0.0157
   27SAPC  H15Y 3658   6.326   2.308   8.803  0.5669 -0.0809  0.6099
   27SAPC  C316 3659   6.542   2.296   8.823 -0.4419  0.1500  0.6740
   27SAPC  H16X 3660   6.525   2.350   8.919 -1.3458  1.6981 -0.3193
   27SAPC  H16Y 3661   6.564   2.364   8.738 -0.6091 -0.2709  0.2916
   27SAPC  C317 3662   6.659   2.194   8.846  0.1058  0.0534 -0.0875
   27SAPC  H17X 3663   6.701   2.158   8.750  1.6047  0.6199  0.3105
   27SAPC  H17Y 3664   6.635   2.104   8.906 -0.9504  0.9908  0.9592
   27SAPC  C318 3665   6.779   2.269   8.915  0.8269 -0.2656  0.7368
   27SAPC  H18X 3666   6.874   2.214   8.905  0.8338  0.0488 -1.1732
   27SAPC  H18Y 3667   6.753   2.276   9.023 -1.7616  1.3931  0.1064
   27SAPC  H18Z 3668   6.793   2.371   8.874 -1.4757 -0.3635 -0.4851
   28SAPC     N 3669   5.490   4.150   5.901 -0.7697 -0.3265 -0.4237
   28SAPC   C12 3670   5.501   4.141   6.051 -0.0372  0.9454  0.0605
   28SAPC  H12A 3671   5.438   4.222   6.086 -1.5250 -0.6034  1.1136
   28SAPC  H12B 3672   5.607   4.158   6.069  0.5256 -1.8298 -0.2036
   28SAPC   C13 3673   5.350   4.145   5.861 -0.3620  0.0508 -0.2948
   28SAPC  H13A 3674   5.307   4.229   5.913  0.2168 -1.1540  2.3253
   28SAPC  H13B 3675   5.340   4.152   5.754  1.7656  4.2093 -0.4272
   28SAPC  H13C 3676   5.302   4.057   5.901 -3.4508  2.4367  1.7002
   28SAPC   C14 3677   5.555   4.273   5.846 -0.7077 -0.3780  0.2241
   28SAPC  H14A 3678   5.661   4.266   5.865 -0.2184 -0.7432 -2.3051
   28SAPC  H14B 3679   5.547   4.273   5.738 -1.3470  1.9949  0.2317
   28SAPC  H14C 3680   5.517   4.363   5.891  0.7468  0.5470 -0.3401
   28SAPC   C15 3681   5.547   4.028   5.845 -0.3225  0.9204  0.9004
   28SAPC  H15A 3682   5.532   4.026   5.738  2.5163  2.7659  0.3601
   28SAPC  H15B 3683   5.654   4.030   5.859 -0.2323 -0.0669  0.4074
   28SAPC  H15C 3684   5.514   3.940   5.899 -0.6623 -1.2761 -2.5936
   28SAPC   C11 3685   5.452   4.021   6.126  0.3202 -0.3276  0.4690
   28SAPC  H11A 3686   5.352   4.000   6.081  0.8463 -0.2683 -0.7755
   28SAPC  H11B 3687   5.434   4.048   6.232  0.7714  3.3794 -0.2657
   28SAPC     P 3688   5.652   3.870   6.198  0.1509  0.2456  0.1341
   28SAPC   O13 3689   5.659   3.726   6.201 -0.2529 -0.3480  0.2926
   28SAPC   O14 3690   5.769   3.954   6.172  0.3618 -0.2104  0.0169
   28SAPC   O12 3691   5.529   3.903   6.101  0.0361  0.0091  0.7660
   28SAPC   O11 3692   5.588   3.915   6.337 -0.1509  0.0363 -0.5225
   28SAPC    C1 3693   5.659   3.971   6.445 -0.5431 -0.1900 -0.0567
   28SAPC    HA 3694   5.638   3.922   6.543 -0.2092 -0.2111  0.0062
   28SAPC    HB 3695   5.768   3.957   6.431 -0.2155  3.5804 -2.5540
   28SAPC    C2 3696   5.626   4.118   6.458  0.0476 -0.0777  0.2972
   28SAPC    HS 3697   5.621   4.173   6.362 -0.1731 -0.0827  0.3056
   28SAPC   O21 3698   5.722   4.180   6.549 -0.3438 -0.9269  0.2628
   28SAPC   C21 3699   5.720   4.311   6.550 -0.6122  0.1779 -0.7088
   28SAPC   O22 3700   5.651   4.379   6.476 -0.1814  0.1263  0.0312
   28SAPC   C22 3701   5.816   4.361   6.660  0.4896  0.2846  0.0056
   28SAPC   H2R 3702   5.848   4.269   6.715  0.7215 -0.2796 -1.0466
   28SAPC   H2S 3703   5.901   4.420   6.621  0.2608  0.6053 -0.0107
   28SAPC    C3 3704   5.478   4.133   6.513  0.1498  0.6816  0.0132
   28SAPC    HX 3705   5.417   4.076   6.441 -3.9495  3.9109  0.5500
   28SAPC    HY 3706   5.435   4.234   6.496  1.0384  0.8770 -1.1589
   28SAPC   O31 3707   5.458   4.082   6.647  0.0132  0.2202 -0.0286
   28SAPC   C31 3708   5.419   4.157   6.743  0.7686 -0.4846 -0.0351
   28SAPC   O32 3709   5.379   4.278   6.732  0.1846 -0.3982  0.2277
   28SAPC   C32 3710   5.439   4.085   6.877  0.2359  0.0642  0.5097
   28SAPC   H2X 3711   5.439   3.976   6.858 -1.8668  0.3316 -1.3977
   28SAPC   H2Y 3712   5.351   4.096   6.944  0.7793  1.5202  1.0356
   28SAPC   C23 3713   5.727   4.451   6.754 -0.2453  0.4868 -0.6497
   28SAPC   H3R 3714   5.653   4.384   6.802 -0.5981  1.8748  0.8311
   28SAPC   H3S 3715   5.669   4.517   6.686 -1.4846 -1.9969 -2.1212
   28SAPC   C24 3716   5.802   4.522   6.872  0.2545 -0.2918  0.2091
   28SAPC   H4R 3717   5.824   4.453   6.957 -0.8547 -1.0038 -0.0681
   28SAPC   H4S 3718   5.899   4.563   6.837  0.0458  0.7958  0.8514
   28SAPC   C25 3719   5.717   4.634   6.922 -0.2928 -0.5445 -0.8129
   28SAPC   H5R 3720   5.611   4.608   6.909 -0.1701 -2.0992  0.8279
   28SAPC   C26 3721   5.759   4.754   6.963  0.0987  0.5043  0.3779
   28SAPC   H6R 3722   5.680   4.818   7.004  0.1697 -0.7169  2.5425
   28SAPC   C27 3723   5.900   4.792   6.977 -1.0589 -0.1162  0.3205
   28SAPC   H7R 3724   5.939   4.828   6.880  0.4415 -2.2196  0.0552
   28SAPC   H7S 3725   5.972   4.707   6.988  0.6455  0.9805 -1.6265
   28SAPC   C28 3726   5.913   4.897   7.086  0.3971  0.6813 -0.1007
   28SAPC   H8R 3727   5.886   4.998   7.051 -2.7764  1.1137  3.0621
   28SAPC   C29 3728   5.955   4.875   7.210 -0.0050 -0.2866  0.6632
   28SAPC   H9R 3729   5.954   4.960   7.281 -2.2868  0.2905  0.0334
   28SAPC  C210 3730   6.006   4.747   7.262 -0.3644  0.9097 -0.2915
   28SAPC  H10R 3731   6.067   4.697   7.183  0.7592  1.8465 -0.0440
   28SAPC  H10S 3732   5.925   4.678   7.294  2.0747 -1.1928  1.7501
   28SAPC  C211 3733   6.097   4.779   7.380 -0.8454  0.5523  0.3550
   28SAPC  H11R 3734   6.205   4.797   7.363  0.1964 -2.2083  3.0506
   28SAPC  C212 3735   6.066   4.793   7.511  0.7636  0.2406 -0.5409
   28SAPC  H12R 3736   6.142   4.810   7.589  2.2711  2.4101 -2.3605
   28SAPC  C213 3737   5.923   4.785   7.572  0.7376 -0.8611 -0.0088
   28SAPC  H13R 3738   5.850   4.809   7.492  0.9264 -0.2725 -0.0111
   28SAPC  H13S 3739   5.912   4.871   7.642  0.5151 -1.0496  0.1889
   28SAPC  C214 3740   5.889   4.654   7.637  0.0099 -0.5030  0.0818
   28SAPC  H14R 3741   5.920   4.566   7.579 -2.3146 -1.4405  0.1480
   28SAPC  C215 3742   5.837   4.640   7.756  0.1770  0.1914 -0.4048
   28SAPC  H15R 3743   5.814   4.541   7.797  2.3464  0.2393  1.0605
   28SAPC  C216 3744   5.797   4.737   7.860 -0.7387  0.0874 -0.2269
   28SAPC  H16R 3745   5.706   4.694   7.906  0.6204 -2.0768  0.5720
   28SAPC  H16S 3746   5.758   4.833   7.820  1.2658  0.9178 -0.3304
   28SAPC  C217 3747   5.895   4.749   7.988 -0.5146 -0.4224  0.4703
   28SAPC  H17R 3748   5.916   4.649   8.031 -1.2211 -0.1970  1.3531
   28SAPC  H17S 3749   5.838   4.809   8.062 -0.8729  1.4216 -1.1773
   28SAPC  C218 3750   6.024   4.827   7.949  0.1720  0.1393  0.3639
   28SAPC  H18R 3751   6.009   4.937   7.948 -1.0969 -0.0217  0.1178
   28SAPC  H18S 3752   6.064   4.787   7.854 -2.6998 -1.2990 -0.3673
   28SAPC  C219 3753   6.132   4.818   8.057  0.3773  0.6225  0.3056
   28SAPC  H19R 3754   6.149   4.713   8.088  0.3323  0.1800 -1.0983
   28SAPC  H19S 3755   6.105   4.875   8.148  3.1976 -0.7854  2.1587
   28SAPC  C220 3756   6.263   4.875   8.017  0.3617 -0.2191  0.3329
   28SAPC  H20R 3757   6.337   4.870   8.099  0.2914 -0.4722  0.3816
   28SAPC  H20S 3758   6.254   4.981   7.985 -1.1150  0.3813  2.5272
   28SAPC  H20T 3759   6.302   4.827   7.924 -1.5137  0.8785 -1.1109
   28SAPC   C33 3760   5.571   4.122   6.952  0.2773 -0.1660 -0.6081
   28SAPC   H3X 3761   5.652   4.153   6.882 -1.1086  0.5150 -1.9579
   28SAPC   H3Y 3762   5.609   4.035   7.009 -0.1704  0.7028  1.0828
   28SAPC   C34 3763   5.540   4.243   7.049  0.3941  0.1562  0.1316
   28SAPC   H4X 3764   5.442   4.223   7.096  0.5052  0.4069  0.4718
   28SAPC   H4Y 3765   5.521   4.337   6.992 -0.4411 -0.6543 -0.9699
   28SAPC   C35 3766   5.654   4.260   7.152 -0.5127  0.9464  0.1118
   28SAPC   H5X 3767   5.758   4.249   7.115  0.3819 -0.8754  2.8956
   28SAPC   H5Y 3768   5.647   4.173   7.220 -0.9834 -0.1435 -1.2719
   28SAPC   C36 3769   5.647   4.389   7.220 -0.2898 -0.6689 -0.3084
   28SAPC   H6X 3770   5.558   4.390   7.288 -1.0164  2.2328 -1.1689
   28SAPC   H6Y 3771   5.620   4.471   7.150 -1.2475 -1.1448 -0.5171
   28SAPC   C37 3772   5.766   4.412   7.316 -0.7888  0.1255  0.1087
   28SAPC   H7X 3773   5.766   4.520   7.346 -1.8224 -0.4883  2.6282
   28SAPC   H7Y 3774   5.855   4.379   7.258 -1.0914 -1.8395  0.6913
   28SAPC   C38 3775   5.758   4.332   7.448 -0.1057  0.6360  0.0820
   28SAPC   H8X 3776   5.852   4.342   7.507  0.1329  0.4049 -0.2533
   28SAPC   H8Y 3777   5.756   4.224   7.421  0.4820  0.9048 -1.0686
   28SAPC   C39 3778   5.645   4.373   7.545 -0.5663  0.1029  0.4389
   28SAPC   H9X 3779   5.546   4.371   7.493  0.3251 -0.7015 -1.2975
   28SAPC   H9Y 3780   5.667   4.480   7.567 -1.0301  0.5695 -1.1869
   28SAPC  C310 3781   5.650   4.286   7.671 -0.8082 -0.4827  0.4600
   28SAPC  H10X 3782   5.746   4.312   7.722 -0.3619  0.0154 -0.5934
   28SAPC  H10Y 3783   5.635   4.180   7.643  1.1260 -1.3192  2.3006
   28SAPC  C311 3784   5.536   4.319   7.773  0.3825 -0.0649  0.0455
   28SAPC  H11X 3785   5.434   4.326   7.730  1.2553  1.5508 -1.8756
   28SAPC  H11Y 3786   5.559   4.412   7.829 -1.0175  0.1967  0.2348
   28SAPC  C312 3787   5.529   4.209   7.881 -0.1991  0.4473  0.6845
   28SAPC  H12X 3788   5.634   4.181   7.905 -0.8406 -2.2373  0.6351
   28SAPC  H12Y 3789   5.473   4.119   7.848 -0.8200  0.9089  0.4435
   28SAPC  C313 3790   5.466   4.256   8.012 -0.1832 -0.1184 -0.2041
   28SAPC  H13X 3791   5.372   4.312   7.997 -0.1796  0.0974  0.5375
   28SAPC  H13Y 3792   5.529   4.335   8.057  0.8848 -0.8984 -0.2939
   28SAPC  C314 3793   5.446   4.142   8.114  0.0168  0.4812 -0.2131
   28SAPC  H14X 3794   5.534   4.097   8.164  0.5902  1.3026 -0.4637
   28SAPC  H14Y 3795   5.405   4.054   8.059  0.2668 -1.0696  1.9629
   28SAPC  C315 3796   5.336   4.169   8.220  0.1799 -0.5277 -0.9041
   28SAPC  H15X 3797   5.290   4.079   8.266  1.8373 -0.6319  0.6372
   28SAPC  H15Y 3798   5.258   4.232   8.171  1.7142  2.0422 -0.2283
   28SAPC  C316 3799   5.396   4.254   8.334  0.9996  0.5937  0.0127
   28SAPC  H16X 3800   5.362   4.358   8.317 -2.2895 -0.4332 -0.5729
   28SAPC  H16Y 3801   5.506   4.252   8.324  1.4720  3.7601  2.7826
   28SAPC  C317 3802   5.364   4.194   8.471  0.5476 -0.2344  0.1531
   28SAPC  H17X 3803   5.419   4.097   8.471 -0.2165 -0.7506 -2.2919
   28SAPC  H17Y 3804   5.257   4.171   8.489  0.2598  0.6999 -0.2837
   28SAPC  C318 3805   5.409   4.278   8.593  0.4345 -0.5432  0.0491
   28SAPC  H18X 3806   5.408   4.220   8.688  0.0521  0.8807  0.9516
   28SAPC  H18Y 3807   5.340   4.365   8.592 -0.0452 -0.8624 -2.8271
   28SAPC  H18Z 3808   5.513   4.313   8.573  0.5689 -0.8851  0.1457
   29SAPC     N 3809   0.952   2.204   5.950  0.2479 -0.0024 -0.4612
   29SAPC   C12 3810   0.921   2.344   5.894  0.6226 -0.0827  0.5952
   29SAPC  H12A 3811   0.818   2.368   5.915  0.4474 -0.4133  0.1568
   29SAPC  H12B 3812   0.916   2.334   5.786  2.2460  0.3864  0.4529
   29SAPC   C13 3813   1.095   2.168   5.921 -0.1989 -0.3517  0.0948
   29SAPC  H13A 3814   1.123   2.070   5.954  0.6235 -0.3939 -0.6924
   29SAPC  H13B 3815   1.127   2.178   5.818 -0.0793  0.3093  0.1906
   29SAPC  H13C 3816   1.156   2.239   5.975  0.3496 -1.5190  1.0569
   29SAPC   C14 3817   0.944   2.196   6.101  0.5888  0.0153  0.1111
   29SAPC  H14A 3818   1.010   2.264   6.153  0.7389  3.1318 -3.6946
   29SAPC  H14B 3819   0.840   2.208   6.129  0.7696  0.8541  0.4605
   29SAPC  H14C 3820   0.966   2.094   6.129  0.4214 -0.4044 -1.2368
   29SAPC   C15 3821   0.863   2.105   5.888 -0.2077  0.0354 -0.0391
   29SAPC  H15A 3822   0.891   2.107   5.784  0.1365 -0.7336  0.0350
   29SAPC  H15B 3823   0.884   2.003   5.917 -0.7699  0.1549  0.8315
   29SAPC  H15C 3824   0.757   2.128   5.890 -0.2604 -0.0598 -1.1793
   29SAPC   C11 3825   1.010   2.467   5.918  0.8259 -0.4829 -0.4781
   29SAPC  H11A 3826   0.977   2.564   5.874  1.8933 -0.8706 -2.2282
   29SAPC  H11B 3827   1.104   2.446   5.864 -0.3203 -1.3066 -2.2529
   29SAPC     P 3828   1.083   2.600   6.136  0.0404 -0.1614 -0.0401
   29SAPC   O13 3829   1.225   2.620   6.104  0.1226  0.0284  0.2135
   29SAPC   O14 3830   0.999   2.719   6.112  0.3204  0.4073  0.3433
   29SAPC   O12 3831   1.034   2.478   6.058 -0.7557 -0.3652 -0.2912
   29SAPC   O11 3832   1.068   2.573   6.290 -0.4196  0.4662 -0.4011
   29SAPC    C1 3833   1.072   2.440   6.345 -0.0434 -0.2829 -0.1835
   29SAPC    HA 3834   0.978   2.408   6.394  1.0839 -1.9700  1.0147
   29SAPC    HB 3835   1.109   2.364   6.272 -0.3612 -0.1348 -0.4977
   29SAPC    C2 3836   1.169   2.441   6.465 -0.0914  0.1950 -0.2757
   29SAPC    HS 3837   1.193   2.337   6.496  1.3968  0.1566 -1.3902
   29SAPC   O21 3838   1.100   2.518   6.564 -0.4266  0.2326  0.0831
   29SAPC   C21 3839   1.094   2.469   6.686 -0.3813  0.3334 -0.3860
   29SAPC   O22 3840   1.157   2.369   6.722  0.3767  0.4053  0.0985
   29SAPC   C22 3841   1.021   2.569   6.769  0.4046  0.4128  0.1212
   29SAPC   H2R 3842   1.076   2.663   6.748  0.1465 -0.1742 -4.0748
   29SAPC   H2S 3843   0.916   2.577   6.732  1.2000 -0.1856 -2.4260
   29SAPC    C3 3844   1.299   2.520   6.443 -0.4598 -0.3941 -0.1216
   29SAPC    HX 3845   1.267   2.627   6.444 -0.4792 -0.3985 -0.2547
   29SAPC    HY 3846   1.343   2.487   6.347  0.9318  1.1889 -0.0656
   29SAPC   O31 3847   1.394   2.495   6.547 -0.3324  0.0145 -0.1124
   29SAPC   C31 3848   1.396   2.584   6.641  0.6437  0.2706 -0.3819
   29SAPC   O32 3849   1.332   2.692   6.643 -0.4312  0.0319  0.1996
   29SAPC   C32 3850   1.492   2.538   6.749  0.1489 -0.0730 -0.0948
   29SAPC   H2X 3851   1.595   2.569   6.722  0.1532  0.6609  0.7002
   29SAPC   H2Y 3852   1.485   2.428   6.764 -0.9365  0.1660  1.4063
   29SAPC   C23 3853   1.019   2.533   6.918  0.4531  0.3634  0.0898
   29SAPC   H3R 3854   1.116   2.552   6.969 -1.0305  1.5289  2.6207
   29SAPC   H3S 3855   1.006   2.423   6.919  1.0657  0.2939  0.9074
   29SAPC   C24 3856   0.901   2.588   6.994  0.1889 -0.5285  1.5937
   29SAPC   H4R 3857   0.868   2.510   7.066 -0.4732 -0.4218  1.4099
   29SAPC   H4S 3858   0.815   2.595   6.923  0.3717 -2.9098  1.0666
   29SAPC   C25 3859   0.935   2.715   7.064  0.7185 -0.9913  0.4411
   29SAPC   H5R 3860   0.951   2.795   6.991  2.2996 -0.5099  1.2702
   29SAPC   C26 3861   0.929   2.737   7.196 -0.0268  0.0568 -0.1067
   29SAPC   H6R 3862   0.952   2.838   7.233  0.3555 -1.2218  3.6529
   29SAPC   C27 3863   0.885   2.642   7.306  0.6281 -0.8567 -0.1276
   29SAPC   H7R 3864   0.811   2.574   7.258 -2.0783  1.4900  0.4247
   29SAPC   H7S 3865   0.808   2.695   7.367 -1.1161 -0.0496 -2.8533
   29SAPC   C28 3866   0.989   2.571   7.387  0.6944 -0.4689  0.2419
   29SAPC   H8R 3867   1.046   2.496   7.332  2.4454 -1.6489  3.3826
   29SAPC   C29 3868   1.032   2.603   7.507  0.1152  0.4578 -0.3082
   29SAPC   H9R 3869   1.125   2.555   7.541  0.3160 -0.0123 -1.4699
   29SAPC  C210 3870   0.973   2.705   7.597 -0.5149  0.6736 -0.3310
   29SAPC  H10R 3871   0.913   2.784   7.546 -1.1405 -0.1874 -0.9556
   29SAPC  H10S 3872   1.061   2.764   7.630  0.4384 -0.5235 -0.6706
   29SAPC  C211 3873   0.890   2.624   7.697  0.8716 -0.3824  0.2905
   29SAPC  H11R 3874   0.822   2.548   7.655  1.2129  0.4547 -1.8753
   29SAPC  C212 3875   0.874   2.656   7.827  0.2059  0.0778  1.0382
   29SAPC  H12R 3876   0.798   2.604   7.886  0.5705 -0.3976  1.0971
   29SAPC  C213 3877   0.936   2.777   7.894 -0.4253  0.2156 -0.1458
   29SAPC  H13R 3878   0.941   2.867   7.829 -2.9274  0.7163  0.2456
   29SAPC  H13S 3879   1.040   2.741   7.912  0.2728  2.0290 -0.2320
   29SAPC  C214 3880   0.876   2.829   8.023 -0.4025  0.2542 -0.4255
   29SAPC  H14R 3881   0.789   2.895   8.009 -1.2744 -0.7575  0.0939
   29SAPC  C215 3882   0.918   2.815   8.150 -0.2704  0.2837  0.2227
   29SAPC  H15R 3883   0.854   2.861   8.226  0.3749  2.7271 -0.6227
   29SAPC  C216 3884   1.035   2.735   8.202 -0.0999  0.7513  0.4904
   29SAPC  H16R 3885   1.059   2.759   8.308 -1.6239  1.5257  0.6829
   29SAPC  H16S 3886   1.126   2.750   8.140 -0.3722 -2.7548 -1.0405
   29SAPC  C217 3887   1.014   2.575   8.211 -0.0551 -0.3732  0.2742
   29SAPC  H17R 3888   1.109   2.528   8.244  0.0179  0.0479  0.6605
   29SAPC  H17S 3889   0.994   2.552   8.104 -1.4415  1.7648  0.0250
   29SAPC  C218 3890   0.895   2.530   8.310 -0.3064  0.6430  0.1355
   29SAPC  H18R 3891   0.881   2.421   8.294  0.6989  0.4491  0.5502
   29SAPC  H18S 3892   0.805   2.581   8.268  0.0149  2.0156  1.0491
   29SAPC  C219 3893   0.927   2.556   8.454 -1.0134 -0.5155 -0.3235
   29SAPC  H19R 3894   0.936   2.664   8.475 -0.3562 -0.6067 -0.1087
   29SAPC  H19S 3895   1.026   2.514   8.482 -0.2543  1.0347 -0.5684
   29SAPC  C220 3896   0.814   2.513   8.544 -0.0943 -0.3963 -0.6847
   29SAPC  H20R 3897   0.721   2.548   8.492  0.2736 -0.4118 -1.3649
   29SAPC  H20S 3898   0.818   2.558   8.645 -2.0645  3.0508 -1.9470
   29SAPC  H20T 3899   0.812   2.402   8.546 -2.0585 -0.3959  1.6462
   29SAPC   C33 3900   1.473   2.614   6.882 -0.1655 -0.0181  0.9127
   29SAPC   H3X 3901   1.366   2.607   6.909 -0.1590 -2.5667  0.4921
   29SAPC   H3Y 3902   1.494   2.723   6.876  0.6645 -0.1481  1.3705
   29SAPC   C34 3903   1.559   2.552   6.989 -0.3398  0.1223 -0.7468
   29SAPC   H4X 3904   1.665   2.580   6.972 -0.1345  0.6736  1.2565
   29SAPC   H4Y 3905   1.559   2.441   6.990  1.5748  0.0916 -0.2185
   29SAPC   C35 3906   1.535   2.594   7.138 -0.4911 -0.7453  0.0901
   29SAPC   H5X 3907   1.440   2.552   7.177 -0.3282 -1.2416 -0.0401
   29SAPC   H5Y 3908   1.546   2.704   7.135 -1.2331 -0.6364  0.8920
   29SAPC   C36 3909   1.645   2.545   7.233  0.3369 -0.4523  0.5928
   29SAPC   H6X 3910   1.746   2.580   7.203 -0.7299  0.2652 -2.5644
   29SAPC   H6Y 3911   1.650   2.435   7.216  0.3207 -0.2263 -1.1476
   29SAPC   C37 3912   1.613   2.579   7.376  0.4974  0.8926 -0.2327
   29SAPC   H7X 3913   1.512   2.541   7.405  0.1570  1.5030 -0.6022
   29SAPC   H7Y 3914   1.609   2.690   7.376 -0.9878  0.8899  1.1079
   29SAPC   C38 3915   1.722   2.539   7.473 -0.3725  0.1828 -0.1192
   29SAPC   H8X 3916   1.777   2.448   7.438 -2.5291 -0.8104 -1.1154
   29SAPC   H8Y 3917   1.676   2.523   7.572 -0.2746  2.2643  0.3003
   29SAPC   C39 3918   1.832   2.647   7.500 -0.4564  0.6886 -0.1288
   29SAPC   H9X 3919   1.793   2.742   7.543  0.8184  1.1194  0.1060
   29SAPC   H9Y 3920   1.887   2.670   7.407  0.0944  0.0723  0.0312
   29SAPC  C310 3921   1.925   2.601   7.610 -0.4659 -0.2884  0.0096
   29SAPC  H10X 3922   1.981   2.509   7.583  0.7740 -0.1592  1.9238
   29SAPC  H10Y 3923   1.862   2.594   7.702 -1.2409  1.0713 -0.3917
   29SAPC  C311 3924   2.018   2.717   7.648  0.2087  0.3320 -0.2348
   29SAPC  H11X 3925   1.953   2.800   7.684 -1.0795 -0.4611 -0.6893
   29SAPC  H11Y 3926   2.066   2.739   7.551 -1.6715  0.8345 -1.0958
   29SAPC  C312 3927   2.134   2.679   7.756  0.8542  0.7245 -0.5840
   29SAPC  H12X 3928   2.200   2.765   7.781 -0.2817  1.5113 -0.2020
   29SAPC  H12Y 3929   2.204   2.611   7.702 -0.1206 -1.8877  1.2398
   29SAPC  C313 3930   2.084   2.601   7.879  0.0954 -0.3464  0.4221
   29SAPC  H13X 3931   2.179   2.573   7.929  0.9844  0.4374 -0.7957
   29SAPC  H13Y 3932   2.032   2.505   7.855 -2.1902  1.5841 -3.2654
   29SAPC  C314 3933   1.979   2.681   7.959 -0.3384  0.2088  0.1326
   29SAPC  H14X 3934   1.883   2.626   7.953  0.5263 -1.4044  0.5003
   29SAPC  H14Y 3935   1.975   2.782   7.912  0.0968  0.2261  0.1266
   29SAPC  C315 3936   2.017   2.673   8.110  0.0883 -0.4191  0.3125
   29SAPC  H15X 3937   2.106   2.738   8.123 -0.0964 -0.0840 -0.0756
   29SAPC  H15Y 3938   2.029   2.567   8.140 -0.2827  0.1313  2.6181
   29SAPC  C316 3939   1.908   2.733   8.197 -1.1091 -0.1779 -0.0536
   29SAPC  H16X 3940   1.829   2.657   8.210  0.6596 -2.4673 -1.8158
   29SAPC  H16Y 3941   1.869   2.822   8.142 -1.3582 -0.8811 -1.0379
   29SAPC  C317 3942   1.963   2.785   8.335  0.2516 -0.1386 -0.7163
   29SAPC  H17X 3943   2.048   2.853   8.314  2.1558 -1.9226  0.8442
   29SAPC  H17Y 3944   1.984   2.704   8.407 -1.0311 -0.3401 -0.5446
   29SAPC  C318 3945   1.854   2.864   8.410 -0.3200  0.7331 -1.1917
   29SAPC  H18X 3946   1.895   2.901   8.506 -0.5049 -2.9121  0.4720
   29SAPC  H18Y 3947   1.773   2.791   8.433  1.0297 -0.1811  0.9629
   29SAPC  H18Z 3948   1.816   2.948   8.348 -0.9999  1.1774 -0.1956
   30SAPC     N 3949   3.377   1.636   5.926  0.1411  0.4508  0.5732
   30SAPC   C12 3950   3.514   1.692   5.906  0.3033 -0.1126 -0.1320
   30SAPC  H12A 3951   3.569   1.634   5.833  4.5765  1.7324  1.3245
   30SAPC  H12B 3952   3.581   1.677   5.990  0.8678 -0.3982 -0.6254
   30SAPC   C13 3953   3.386   1.491   5.962 -0.3008  0.5516 -0.1942
   30SAPC  H13A 3954   3.290   1.448   5.986 -0.0224 -0.1880 -0.4059
   30SAPC  H13B 3955   3.431   1.429   5.886 -0.9865  1.6261 -1.5407
   30SAPC  H13C 3956   3.449   1.479   6.049  3.3317 -0.4474 -2.7395
   30SAPC   C14 3957   3.298   1.719   6.029  1.0438  0.2451 -0.7082
   30SAPC  H14A 3958   3.197   1.683   6.043  1.9104 -1.2359  2.6300
   30SAPC  H14B 3959   3.340   1.698   6.126  4.3671  0.5766 -1.9742
   30SAPC  H14C 3960   3.306   1.825   6.010  2.4019  0.8681  2.6644
   30SAPC   C15 3961   3.302   1.655   5.796 -0.1332  1.1572 -0.5647
   30SAPC  H15A 3962   3.210   1.598   5.795 -0.6836  1.8651  1.8155
   30SAPC  H15B 3963   3.267   1.757   5.788  0.2506  1.1357 -3.3464
   30SAPC  H15C 3964   3.365   1.629   5.712  0.5729  1.4020 -0.1207
   30SAPC   C11 3965   3.527   1.840   5.878  0.2957 -0.7353 -0.3601
   30SAPC  H11A 3966   3.439   1.863   5.814 -0.6876 -1.4803  0.6847
   30SAPC  H11B 3967   3.618   1.848   5.814  0.6767 -1.1346  0.1235
   30SAPC     P 3968   3.632   1.975   6.080  0.4142 -0.5936 -0.0066
   30SAPC   O13 3969   3.729   1.867   6.101 -0.8599 -0.1502  0.2316
   30SAPC   O14 3970   3.682   2.111   6.034  0.1737  0.2436  0.0408
   30SAPC   O12 3971   3.507   1.928   5.989 -0.4094  0.2912  0.9527
   30SAPC   O11 3972   3.555   2.010   6.217  0.4626 -0.0268 -0.0806
   30SAPC    C1 3973   3.504   1.899   6.285  0.4396  0.1217  0.0505
   30SAPC    HA 3974   3.404   1.886   6.238  0.9307  2.5355 -1.9164
   30SAPC    HB 3975   3.563   1.805   6.283 -0.7181 -0.6415 -1.2528
   30SAPC    C2 3976   3.489   1.928   6.436  0.0584 -0.4034 -0.8617
   30SAPC    HS 3977   3.585   1.923   6.490  0.1260  1.9005 -0.6898
   30SAPC   O21 3978   3.389   1.851   6.502  0.0882  0.0079 -0.7042
   30SAPC   C21 3979   3.411   1.728   6.526 -0.6585  0.2100  0.0607
   30SAPC   O22 3980   3.509   1.667   6.489  0.5111 -0.5980 -0.1670
   30SAPC   C22 3981   3.297   1.663   6.609 -1.3632 -0.1609 -0.0929
   30SAPC   H2R 3982   3.253   1.746   6.669  0.6783  3.2953 -2.9748
   30SAPC   H2S 3983   3.226   1.626   6.533 -1.2308 -0.0359 -0.2774
   30SAPC    C3 3984   3.448   2.073   6.455 -0.1020  0.0155 -0.1636
   30SAPC    HX 3985   3.342   2.080   6.423 -0.8694  1.0775  2.2923
   30SAPC    HY 3986   3.515   2.144   6.403  0.0432  0.7257  0.9476
   30SAPC   O31 3987   3.451   2.110   6.597  0.0219  0.6108  0.2040
   30SAPC   C31 3988   3.391   2.225   6.622  0.3109 -0.0751  0.1782
   30SAPC   O32 3989   3.335   2.297   6.539 -0.1843  0.3130 -0.4848
   30SAPC   C32 3990   3.405   2.242   6.781  0.2818 -0.3215  0.1430
   30SAPC   H2X 3991   3.511   2.268   6.800  0.5743  0.2891 -2.0463
   30SAPC   H2Y 3992   3.390   2.139   6.822  2.8003 -0.8831 -0.2028
   30SAPC   C23 3993   3.334   1.537   6.701  0.2464 -1.0924 -0.0708
   30SAPC   H3R 3994   3.372   1.566   6.801  2.7937  0.8446 -1.4704
   30SAPC   H3S 3995   3.424   1.493   6.652  1.3883 -0.6494  1.5406
   30SAPC   C24 3996   3.213   1.436   6.706 -0.4260 -0.3838 -0.3140
   30SAPC   H4R 3997   3.247   1.359   6.778 -1.4026  0.2334  0.8418
   30SAPC   H4S 3998   3.198   1.403   6.601 -0.8903 -2.8525  0.4673
   30SAPC   C25 3999   3.096   1.512   6.744  0.7494 -0.4790 -0.3743
   30SAPC   H5R 4000   3.054   1.580   6.668  0.0783 -0.8552 -0.3469
   30SAPC   C26 4001   3.059   1.524   6.874 -0.1918  0.3889  0.1585
   30SAPC   H6R 4002   2.974   1.589   6.901 -1.1420 -1.1618  1.0970
   30SAPC   C27 4003   3.133   1.471   6.993 -0.4167  1.0270  0.6536
   30SAPC   H7R 4004   3.192   1.380   6.966  0.4256  0.5477  3.6835
   30SAPC   H7S 4005   3.067   1.446   7.078 -0.6363  0.2478  0.2639
   30SAPC   C28 4006   3.237   1.571   7.037  0.3657 -0.1326 -0.3066
   30SAPC   H8R 4007   3.282   1.639   6.963 -1.2108 -0.0666 -1.2422
   30SAPC   C29 4008   3.283   1.583   7.168  0.3671  0.3053 -0.1500
   30SAPC   H9R 4009   3.345   1.668   7.201 -1.9951  3.1375 -2.3948
   30SAPC  C210 4010   3.233   1.504   7.291 -0.3453  0.1596  0.3924
   30SAPC  H10R 4011   3.311   1.490   7.368  1.4628  2.4208 -0.8767
   30SAPC  H10S 4012   3.207   1.401   7.258  0.4634 -0.0808  0.4988
   30SAPC  C211 4013   3.111   1.562   7.351 -0.1282 -0.1512 -0.9976
   30SAPC  H11R 4014   3.034   1.590   7.278 -1.2479  1.0247  0.5650
   30SAPC  C212 4015   3.100   1.608   7.481 -0.4071  0.3783  1.0481
   30SAPC  H12R 4016   3.001   1.652   7.500 -0.4177  0.7328  0.2251
   30SAPC  C213 4017   3.204   1.612   7.588 -0.0117  0.5128 -0.1667
   30SAPC  H13R 4018   3.300   1.655   7.552 -0.6361  1.4486 -0.7787
   30SAPC  H13S 4019   3.222   1.507   7.618  0.5233  0.8460  0.7020
   30SAPC  C214 4020   3.160   1.690   7.712  0.5596  0.3836  0.6582
   30SAPC  H14R 4021   3.070   1.752   7.697  1.5765  1.6013 -0.7223
   30SAPC  C215 4022   3.227   1.693   7.829  0.0131 -0.3652  0.2104
   30SAPC  H15R 4023   3.188   1.759   7.909 -2.5286 -1.0158 -0.3952
   30SAPC  C216 4024   3.349   1.621   7.867  0.4121  0.3395 -0.0760
   30SAPC  H16R 4025   3.431   1.693   7.887 -1.2606  2.2805  0.1770
   30SAPC  H16S 4026   3.389   1.554   7.788  1.2135  1.1086 -0.3434
   30SAPC  C217 4027   3.334   1.537   7.994  0.4133  0.4944 -0.6745
   30SAPC  H17R 4028   3.299   1.603   8.077 -0.1026 -0.1823 -0.3376
   30SAPC  H17S 4029   3.437   1.507   8.024  0.0344 -0.3160 -0.1343
   30SAPC  C218 4030   3.249   1.417   7.967 -0.6710  0.5103  0.3435
   30SAPC  H18R 4031   3.304   1.341   7.908  1.5345  0.7170  2.0157
   30SAPC  H18S 4032   3.152   1.431   7.914  0.6075  0.4398 -2.1865
   30SAPC  C219 4033   3.215   1.350   8.097  0.1434 -0.6093 -0.1116
   30SAPC  H19R 4034   3.144   1.272   8.062 -0.9743  0.3427 -0.0307
   30SAPC  H19S 4035   3.174   1.415   8.178  1.3418 -1.5746  1.3293
   30SAPC  C220 4036   3.324   1.258   8.158  0.3352 -0.4517  0.0809
   30SAPC  H20R 4037   3.410   1.319   8.192 -0.5680  0.5708  0.6019
   30SAPC  H20S 4038   3.348   1.183   8.080 -2.7680 -1.6759  0.1285
   30SAPC  H20T 4039   3.287   1.206   8.249  2.8762 -3.5248 -0.4707
   30SAPC   C33 4040   3.317   2.354   6.833  0.2559  0.1491 -0.4408
   30SAPC   H3X 4041   3.212   2.319   6.844  0.5405 -0.5445  0.1548
   30SAPC   H3Y 4042   3.309   2.438   6.761  1.0616 -1.5928 -2.7080
   30SAPC   C34 4043   3.372   2.400   6.972  1.0604 -0.9964  0.2822
   30SAPC   H4X 4044   3.298   2.468   7.019  0.3890  0.1908 -2.3588
   30SAPC   H4Y 4045   3.464   2.458   6.947 -1.0173  1.6017 -1.9255
   30SAPC   C35 4046   3.417   2.291   7.073 -0.0371  0.3501 -0.5852
   30SAPC   H5X 4047   3.496   2.220   7.041 -1.5444 -1.7817  0.1948
   30SAPC   H5Y 4048   3.323   2.231   7.077  0.3000 -0.1091  1.3731
   30SAPC   C36 4049   3.439   2.336   7.220  0.3630  0.8236  0.2031
   30SAPC   H6X 4050   3.450   2.250   7.290 -0.4339 -0.3794 -1.0728
   30SAPC   H6Y 4051   3.352   2.398   7.249  1.1790  1.6313  0.9427
   30SAPC   C37 4052   3.566   2.421   7.227 -0.5801  0.1328 -0.4086
   30SAPC   H7X 4053   3.560   2.497   7.147  1.1443  0.2715 -0.4511
   30SAPC   H7Y 4054   3.651   2.360   7.189  0.5458  0.5800  1.2706
   30SAPC   C38 4055   3.587   2.490   7.360  0.4140  0.3580  0.3040
   30SAPC   H8X 4056   3.492   2.507   7.416  1.9106  2.2505  2.4111
   30SAPC   H8Y 4057   3.623   2.594   7.351 -0.8177  0.9160  1.4239
   30SAPC   C39 4058   3.685   2.408   7.447 -0.4180  0.0674 -0.1539
   30SAPC   H9X 4059   3.780   2.408   7.390 -1.0392  0.5427 -1.2067
   30SAPC   H9Y 4060   3.638   2.307   7.448 -1.6787  0.6367  0.8440
   30SAPC  C310 4061   3.701   2.464   7.581  0.0949  0.6090 -0.4975
   30SAPC  H10X 4062   3.606   2.449   7.637  0.2182 -0.7431 -0.6175
   30SAPC  H10Y 4063   3.738   2.568   7.577  1.7723  0.0896  0.3235
   30SAPC  C311 4064   3.804   2.381   7.662  0.3141  0.1643  0.8845
   30SAPC  H11X 4065   3.884   2.350   7.592 -1.1314 -0.4096 -0.5859
   30SAPC  H11Y 4066   3.761   2.282   7.688 -2.6681  0.7507 -1.2423
   30SAPC  C312 4067   3.885   2.456   7.765 -0.5213 -0.5745 -0.8428
   30SAPC  H12X 4068   3.822   2.488   7.851  2.8960  1.6488  1.1124
   30SAPC  H12Y 4069   3.941   2.548   7.738 -0.4225 -0.2261  0.4589
   30SAPC  C313 4070   3.983   2.365   7.826  0.2184  0.7934  0.5948
   30SAPC  H13X 4071   4.090   2.396   7.821  0.4634 -0.1892 -2.0175
   30SAPC  H13Y 4072   3.974   2.266   7.777 -1.9922  1.2748 -0.0831
   30SAPC  C314 4073   3.966   2.343   7.980 -0.4121  0.2325  0.2981
   30SAPC  H14X 4074   3.860   2.315   7.997  0.2562 -2.1552  0.9465
   30SAPC  H14Y 4075   3.995   2.437   8.030  0.9965 -0.1136  0.1831
   30SAPC  C315 4076   4.038   2.218   8.037  0.1155 -0.6734  0.5854
   30SAPC  H15X 4077   4.008   2.127   7.981  0.9456 -1.0745  0.7695
   30SAPC  H15Y 4078   3.999   2.206   8.141  0.0035  0.7475  0.7292
   30SAPC  C316 4079   4.189   2.231   8.038 -0.6953 -0.4151  0.3180
   30SAPC  H16X 4080   4.214   2.315   8.107  0.0613  1.0245 -1.6448
   30SAPC  H16Y 4081   4.226   2.266   7.940  0.3485  1.1305  1.2202
   30SAPC  C317 4082   4.259   2.105   8.086 -0.8553  0.0163 -0.1702
   30SAPC  H17X 4083   4.226   2.020   8.024  3.1261  0.1789 -2.8562
   30SAPC  H17Y 4084   4.240   2.083   8.193  0.0914 -2.1290 -0.3986
   30SAPC  C318 4085   4.408   2.119   8.068  0.5185  0.4329  0.1066
   30SAPC  H18X 4086   4.461   2.022   8.073  0.7482  0.6217  2.1784
   30SAPC  H18Y 4087   4.453   2.183   8.147 -0.0370  0.9100  0.0437
   30SAPC  H18Z 4088   4.422   2.164   7.968  0.4721  1.4464  0.5413
   31SAPC     N 4089   4.662   1.070   6.303  0.1745  0.6982  0.7816
   31SAPC   C12 4090   4.526   1.051   6.239  0.6394  0.4642 -0.0977
   31SAPC  H12A 4091   4.494   1.145   6.196 -0.2473  0.8311  1.3092
   31SAPC  H12B 4092   4.464   1.014   6.319  0.3293 -2.1062 -1.4229
   31SAPC   C13 4093   4.642   1.172   6.405  0.0013 -0.7200 -0.4420
   31SAPC  H13A 4094   4.643   1.275   6.373  1.8602 -0.8760 -0.9797
   31SAPC  H13B 4095   4.555   1.146   6.464  1.5325 -0.3718  2.1490
   31SAPC  H13C 4096   4.721   1.165   6.478  0.1289 -1.7634 -0.6674
   31SAPC   C14 4097   4.712   0.943   6.373 -0.3767 -0.2823  0.5567
   31SAPC  H14A 4098   4.685   0.858   6.312  1.2374 -2.0274  2.1617
   31SAPC  H14B 4099   4.819   0.938   6.387 -0.2381 -0.0171 -0.3717
   31SAPC  H14C 4100   4.657   0.931   6.465 -0.3506 -0.4336  0.5525
   31SAPC   C15 4101   4.762   1.127   6.207  0.2285  0.2977  0.5147
   31SAPC  H15A 4102   4.723   1.212   6.154  0.8287  0.4311  0.2775
   31SAPC  H15B 4103   4.851   1.163   6.257 -0.7955 -0.3308  2.9162
   31SAPC  H15C 4104   4.778   1.055   6.127 -3.8111 -0.9112  0.5869
   31SAPC   C11 4105   4.520   0.952   6.119 -0.5662  0.1461  0.1521
   31SAPC  H11A 4106   4.582   1.001   6.041 -0.4582 -0.0746  0.0975
   31SAPC  H11B 4107   4.415   0.958   6.084 -1.7281 -4.2723  2.1607
   31SAPC     P 4108   4.448   0.725   6.227 -0.3960  0.1951 -0.3048
   31SAPC   O13 4109   4.356   0.676   6.120 -0.4490 -0.6175 -0.0911
   31SAPC   O14 4110   4.508   0.617   6.309  0.2007 -0.1671 -0.5677
   31SAPC   O12 4111   4.557   0.817   6.161  0.1477 -0.0218 -0.2487
   31SAPC   O11 4112   4.373   0.818   6.330  0.0301  0.3183 -0.5935
   31SAPC    C1 4113   4.228   0.802   6.338  0.4563 -0.0469  0.9022
   31SAPC    HA 4114   4.174   0.892   6.303  2.1248  1.9838  3.1794
   31SAPC    HB 4115   4.188   0.714   6.284  2.0609  0.5994 -1.4537
   31SAPC    C2 4116   4.191   0.785   6.490  0.0328  0.1744  0.0894
   31SAPC    HS 4117   4.081   0.771   6.501  0.0829  0.7135  1.3508
   31SAPC   O21 4118   4.233   0.905   6.556  0.4776 -0.0334 -0.2010
   31SAPC   C21 4119   4.142   0.996   6.565 -0.1172 -0.4997  0.2283
   31SAPC   O22 4120   4.028   0.991   6.519 -0.2142  0.3181 -0.1526
   31SAPC   C22 4121   4.191   1.111   6.652 -0.3162 -0.2618 -0.1798
   31SAPC   H2R 4122   4.259   1.070   6.730 -0.7537 -1.0044 -0.1761
   31SAPC   H2S 4123   4.249   1.183   6.589  1.2816 -0.3942  1.0671
   31SAPC    C3 4124   4.248   0.656   6.550 -0.5027  0.2373 -0.3962
   31SAPC    HX 4125   4.358   0.658   6.535 -0.4606  0.5659 -0.0513
   31SAPC    HY 4126   4.197   0.573   6.496 -0.6871 -0.5427  0.9405
   31SAPC   O31 4127   4.212   0.648   6.694  0.0865 -0.0149 -0.6385
   31SAPC   C31 4128   4.293   0.705   6.784 -0.0577  0.2192 -0.3049
   31SAPC   O32 4129   4.405   0.748   6.757  0.2790  0.1856 -0.1475
   31SAPC   C32 4130   4.232   0.699   6.920  0.1583  0.6547  0.1702
   31SAPC   H2X 4131   4.272   0.613   6.977  0.2166  0.5047 -0.0921
   31SAPC   H2Y 4132   4.128   0.669   6.896  1.2232 -2.7597 -0.8058
   31SAPC   C23 4133   4.074   1.193   6.718  0.3586  0.7193 -0.7354
   31SAPC   H3R 4134   3.975   1.167   6.674 -0.5187 -1.7107  2.3259
   31SAPC   H3S 4135   4.121   1.292   6.702  3.2572 -0.3802  0.3416
   31SAPC   C24 4136   4.066   1.159   6.869 -0.5375 -0.2697  0.0133
   31SAPC   H4R 4137   4.162   1.152   6.925 -2.6381 -1.8341  3.7918
   31SAPC   H4S 4138   4.024   1.057   6.883 -1.9889  0.4808  1.5288
   31SAPC   C25 4139   3.982   1.272   6.931 -0.5026  0.1088  0.6003
   31SAPC   H5R 4140   3.892   1.284   6.869 -0.6704 -2.1162  0.3199
   31SAPC   C26 4141   4.004   1.361   7.034 -0.1091  0.0059  0.0299
   31SAPC   H6R 4142   3.923   1.430   7.062 -2.2224 -1.3845 -2.1973
   31SAPC   C27 4143   4.129   1.351   7.122  0.3423  0.2082 -0.5218
   31SAPC   H7R 4144   4.206   1.273   7.098  1.5060  1.2205 -0.1675
   31SAPC   H7S 4145   4.101   1.323   7.226  3.3845 -0.8885  0.1232
   31SAPC   C28 4146   4.198   1.480   7.138 -0.3235 -0.0570 -0.4692
   31SAPC   H8R 4147   4.254   1.524   7.054  0.9321  1.9364  1.2951
   31SAPC   C29 4148   4.205   1.566   7.237  0.6003 -0.4974 -0.5641
   31SAPC   H9R 4149   4.265   1.656   7.215 -1.6388  0.8711 -1.4194
   31SAPC  C210 4150   4.139   1.552   7.372  0.5841 -0.4571  0.9400
   31SAPC  H10R 4151   4.053   1.483   7.381 -0.5449  0.5285 -1.3746
   31SAPC  H10S 4152   4.104   1.655   7.395 -0.0558 -0.1820 -1.1409
   31SAPC  C211 4153   4.246   1.526   7.477  0.2946  0.0970  0.1885
   31SAPC  H11R 4154   4.345   1.563   7.448  0.4951  0.1369  0.9006
   31SAPC  C212 4155   4.236   1.471   7.592  0.0844 -0.0385 -0.3515
   31SAPC  H12R 4156   4.325   1.464   7.656  0.3221  1.6483 -0.4562
   31SAPC  C213 4157   4.112   1.412   7.642  0.0046  0.4876 -0.4260
   31SAPC  H13R 4158   4.029   1.420   7.568 -1.6383  0.5072  1.3610
   31SAPC  H13S 4159   4.074   1.458   7.735  1.7837 -1.3273  1.2962
   31SAPC  C214 4160   4.140   1.263   7.662  1.0322 -0.0826 -0.4749
   31SAPC  H14R 4161   4.115   1.199   7.576  0.9840 -0.2430 -0.3431
   31SAPC  C215 4162   4.190   1.204   7.773 -0.5735  1.3210  0.0864
   31SAPC  H15R 4163   4.205   1.095   7.777 -1.3121  1.2393  1.1372
   31SAPC  C216 4164   4.226   1.274   7.905  0.4754  0.0670 -0.1116
   31SAPC  H16R 4165   4.182   1.376   7.898 -1.2358 -0.6014  0.4348
   31SAPC  H16S 4166   4.336   1.284   7.920  0.5505 -2.7522  2.1378
   31SAPC  C217 4167   4.188   1.209   8.042 -0.0274 -0.1117  0.6404
   31SAPC  H17R 4168   4.080   1.232   8.038  0.4012  2.0163 -0.3072
   31SAPC  H17S 4169   4.231   1.272   8.123  0.0486  0.9975 -0.2176
   31SAPC  C218 4170   4.221   1.065   8.056  0.2463  0.2803  0.3497
   31SAPC  H18R 4171   4.331   1.050   8.050  0.5897  2.3801  0.7469
   31SAPC  H18S 4172   4.189   0.998   7.973  0.7916 -3.3728  2.8045
   31SAPC  C219 4173   4.177   0.995   8.190 -0.3263  0.0997  0.1743
   31SAPC  H19R 4174   4.085   0.936   8.171  1.0519 -2.5293  1.1385
   31SAPC  H19S 4175   4.159   1.069   8.271  2.6139 -0.4786  1.4937
   31SAPC  C220 4176   4.281   0.900   8.255 -0.0903 -0.4737  0.2450
   31SAPC  H20R 4177   4.242   0.875   8.356 -1.5479 -0.7303 -0.3493
   31SAPC  H20S 4178   4.381   0.945   8.273  0.3546 -1.5761  0.6266
   31SAPC  H20T 4179   4.291   0.812   8.187  0.0338 -0.9570  0.8760
   31SAPC   C33 4180   4.240   0.835   6.981  0.0300 -0.5544 -0.3206
   31SAPC   H3X 4181   4.223   0.911   6.901 -1.3514 -2.3539 -1.8253
   31SAPC   H3Y 4182   4.342   0.855   7.020 -0.9159  1.8481  1.1251
   31SAPC   C34 4183   4.138   0.842   7.091 -0.1133 -0.0046 -0.3740
   31SAPC   H4X 4184   4.150   0.757   7.162 -1.3624  1.6462  1.9593
   31SAPC   H4Y 4185   4.035   0.829   7.052 -0.7633 -0.2045  1.3146
   31SAPC   C35 4186   4.138   0.973   7.167 -0.6600  0.3052 -0.5740
   31SAPC   H5X 4187   4.082   1.050   7.110  0.3483  0.6081 -1.1621
   31SAPC   H5Y 4188   4.232   1.026   7.192 -1.1999  0.3341  1.5801
   31SAPC   C36 4189   4.070   0.952   7.307  0.1358 -0.0498 -0.2553
   31SAPC   H6X 4190   3.988   0.882   7.280 -1.9215  1.4848  1.6196
   31SAPC   H6Y 4191   4.026   1.047   7.343 -0.9189 -1.3542  2.1494
   31SAPC   C37 4192   4.160   0.895   7.415 -0.4333 -0.2912  0.0437
   31SAPC   H7X 4193   4.225   0.976   7.454  1.9018 -2.0665  0.0614
   31SAPC   H7Y 4194   4.226   0.812   7.381 -1.4009 -1.4838  0.9781
   31SAPC   C38 4195   4.089   0.829   7.528  0.5858 -0.0113 -0.1811
   31SAPC   H8X 4196   4.027   0.744   7.493 -0.3350  0.2514  0.7241
   31SAPC   H8Y 4197   4.015   0.907   7.559  0.2032 -0.7520  0.8229
   31SAPC   C39 4198   4.164   0.799   7.659  0.1099 -0.3437  0.3356
   31SAPC   H9X 4199   4.209   0.894   7.695 -2.3733  1.0467  0.0357
   31SAPC   H9Y 4200   4.249   0.729   7.644 -0.1896 -0.7204  0.3582
   31SAPC  C310 4201   4.079   0.757   7.778 -0.4935  0.3123  0.1313
   31SAPC  H10X 4202   4.011   0.674   7.751 -0.0267  0.0709 -0.3285
   31SAPC  H10Y 4203   4.018   0.846   7.806 -0.5799  0.9772 -2.0057
   31SAPC  C311 4204   4.162   0.715   7.904  0.4017  0.3572  0.2261
   31SAPC  H11X 4205   4.086   0.717   7.986 -0.8376 -0.8151 -0.8553
   31SAPC  H11Y 4206   4.249   0.781   7.921  2.0077 -1.4014 -0.7436
   31SAPC  C312 4207   4.199   0.570   7.888 -0.7634 -0.2425 -0.2437
   31SAPC  H12X 4208   4.237   0.553   7.785 -0.6587 -0.7634 -0.1240
   31SAPC  H12Y 4209   4.117   0.495   7.897  0.3505 -1.3548  1.2800
   31SAPC  C313 4210   4.314   0.526   7.984  0.1080  0.5595  0.6844
   31SAPC  H13X 4211   4.394   0.603   7.982  2.0002 -1.3268  0.3206
   31SAPC  H13Y 4212   4.355   0.424   7.968 -1.3739  0.0638 -0.1260
   31SAPC  C314 4213   4.277   0.518   8.138  0.3866  0.0590 -0.1271
   31SAPC  H14X 4214   4.189   0.454   8.159  0.0625 -0.4740 -2.8000
   31SAPC  H14Y 4215   4.250   0.618   8.178 -0.2862  0.4835 -1.5964
   31SAPC  C315 4216   4.401   0.459   8.214  0.1447  0.2696  0.1595
   31SAPC  H15X 4217   4.482   0.528   8.185 -0.9746  0.9386 -1.5458
   31SAPC  H15Y 4218   4.423   0.360   8.169  1.5720 -0.2764  1.9374
   31SAPC  C316 4219   4.375   0.425   8.363 -0.0209 -0.9580  1.0863
   31SAPC  H16X 4220   4.338   0.320   8.363  0.9032 -1.3207 -0.8893
   31SAPC  H16Y 4221   4.295   0.489   8.406  0.9739 -0.3209  2.0352
   31SAPC  C317 4222   4.495   0.417   8.457 -0.6493  0.4560 -0.2793
   31SAPC  H17X 4223   4.564   0.347   8.406 -3.4604 -2.3140 -0.6096
   31SAPC  H17Y 4224   4.463   0.376   8.556  0.4457 -0.8662 -0.4475
   31SAPC  C318 4225   4.568   0.550   8.482  0.4020  0.5002  0.3310
   31SAPC  H18X 4226   4.609   0.588   8.386 -0.5702  3.2955  0.9251
   31SAPC  H18Y 4227   4.652   0.535   8.553  1.3543 -1.1454 -1.0615
   31SAPC  H18Z 4228   4.488   0.616   8.520  0.1777  0.1855  0.4139
   32SAPC     N 4229   0.146   4.964   6.186  0.1836 -0.3176 -0.3415
   32SAPC   C12 4230   0.105   5.033   6.053 -0.8387 -0.8548  0.4068
   32SAPC  H12A 4231   0.029   4.978   5.999 -1.1336  0.7494 -0.8710
   32SAPC  H12B 4232   0.190   5.021   5.988 -2.3140  0.1006 -1.8097
   32SAPC   C13 4233   0.240   5.039   6.270 -0.6005  0.3326  0.4968
   32SAPC  H13A 4234   0.287   4.983   6.350  2.0444  0.1094 -1.0874
   32SAPC  H13B 4235   0.322   5.077   6.211  0.3940 -1.1339  0.8793
   32SAPC  H13C 4236   0.195   5.127   6.313 -1.4177 -0.5863  1.5543
   32SAPC   C14 4237   0.024   4.923   6.269  0.5768 -0.1624 -0.2676
   32SAPC  H14A 4238   0.063   4.861   6.348  0.8389 -0.0093 -0.2760
   32SAPC  H14B 4239  -0.021   5.013   6.308 -0.5117 -0.5899 -0.5204
   32SAPC  H14C 4240  -0.044   4.865   6.209  0.9224  0.1158 -0.9516
   32SAPC   C15 4241   0.207   4.834   6.150 -1.1000  0.2192  0.8621
   32SAPC  H15A 4242   0.286   4.863   6.083 -1.9603  1.0203  0.1528
   32SAPC  H15B 4243   0.240   4.784   6.239 -2.9064 -1.0986  0.8474
   32SAPC  H15C 4244   0.144   4.771   6.089  0.1263  0.7552 -1.0535
   32SAPC   C11 4245   0.084   5.181   6.068  0.5695 -0.3592 -0.0589
   32SAPC  H11A 4246   0.060   5.220   5.967 -1.1886 -0.6389  0.2226
   32SAPC  H11B 4247   0.173   5.233   6.109 -0.7566  0.7024  1.5907
   32SAPC     P 4248  -0.025   5.316   6.264 -0.0810  0.3281 -0.0667
   32SAPC   O13 4249   0.054   5.433   6.216  0.6922  0.6120 -0.2210
   32SAPC   O14 4250  -0.162   5.340   6.311  0.2349  0.3621  0.1301
   32SAPC   O12 4251  -0.027   5.206   6.154  0.6238  0.3783  0.5321
   32SAPC   O11 4252   0.054   5.262   6.392  0.5642  0.5697 -0.4522
   32SAPC    C1 4253  -0.006   5.188   6.499 -0.0229  0.1327  0.3038
   32SAPC    HA 4254  -0.114   5.171   6.485  0.0013  0.1230  0.1355
   32SAPC    HB 4255   0.039   5.086   6.505  1.8076  0.8190 -0.7997
   32SAPC    C2 4256   0.007   5.262   6.638 -0.1121  0.0730 -1.0269
   32SAPC    HS 4257  -0.062   5.202   6.700  3.0707 -2.2129  0.6003
   32SAPC   O21 4258  -0.016   5.391   6.610  0.8184 -0.0279 -0.0016
   32SAPC   C21 4259  -0.138   5.444   6.621  0.1032 -0.5835 -0.5644
   32SAPC   O22 4260  -0.224   5.396   6.683  0.1528 -0.1028  0.0230
   32SAPC   C22 4261  -0.132   5.584   6.568 -0.5123  0.1994  0.1671
   32SAPC   H2R 4262  -0.051   5.639   6.620 -1.8061  1.7005  0.6938
   32SAPC   H2S 4263  -0.118   5.572   6.458  1.6130 -2.0160  0.5998
   32SAPC    C3 4264   0.147   5.253   6.697  0.5665  0.2569  0.0613
   32SAPC    HX 4265   0.157   5.321   6.784  0.7964  1.9410 -1.2211
   32SAPC    HY 4266   0.225   5.278   6.622 -0.5547  0.0913 -1.1878
   32SAPC   O31 4267   0.161   5.125   6.744  0.4473  0.1231 -0.3299
   32SAPC   C31 4268   0.252   5.042   6.713  0.2492  0.9269  0.5459
   32SAPC   O32 4269   0.345   5.061   6.637  0.3731  0.5102  0.0148
   32SAPC   C32 4270   0.223   4.934   6.815 -0.2331  0.5439  0.1259
   32SAPC   H2X 4271   0.297   4.853   6.795 -2.7851 -1.6620 -1.0118
   32SAPC   H2Y 4272   0.118   4.898   6.804  0.3451 -0.7169 -1.8108
   32SAPC   C23 4273  -0.261   5.666   6.584 -0.2556  0.2144  0.0082
   32SAPC   H3R 4274  -0.351   5.601   6.575  0.5619 -0.7060 -3.0632
   32SAPC   H3S 4275  -0.283   5.747   6.511 -1.1735 -0.0032  0.0236
   32SAPC   C24 4276  -0.257   5.732   6.724 -0.2431 -0.6729 -0.2099
   32SAPC   H4R 4277  -0.234   5.659   6.806 -3.2424 -1.6763 -0.1470
   32SAPC   H4S 4278  -0.362   5.765   6.737 -0.4502 -0.8974 -1.2268
   32SAPC   C25 4279  -0.165   5.847   6.723 -0.2547  0.6041  1.2840
   32SAPC   H5R 4280  -0.181   5.912   6.636  1.6233 -0.9028 -0.2821
   32SAPC   C26 4281  -0.068   5.870   6.807 -0.1695  0.2148 -0.5570
   32SAPC   H6R 4282  -0.017   5.968   6.809  1.4522 -0.5705 -1.4823
   32SAPC   C27 4283  -0.034   5.786   6.927  0.4781 -0.0955 -0.6217
   32SAPC   H7R 4284  -0.127   5.744   6.972  0.0000  1.5190 -0.0273
   32SAPC   H7S 4285   0.003   5.858   7.003  0.3631 -1.0472  0.3672
   32SAPC   C28 4286   0.064   5.673   6.896  1.0335  0.3242  0.2671
   32SAPC   H8R 4287   0.147   5.698   6.829  0.4329 -0.6483 -0.8786
   32SAPC   C29 4288   0.050   5.548   6.943 -0.2248 -0.4588 -0.5228
   32SAPC   H9R 4289   0.123   5.468   6.922  0.4191  0.0099 -0.1139
   32SAPC  C210 4290  -0.052   5.491   7.037  0.4634  0.2096 -0.2840
   32SAPC  H10R 4291  -0.146   5.491   6.978 -1.7420 -0.3300  2.9759
   32SAPC  H10S 4292  -0.069   5.564   7.119 -1.9056  1.5642 -1.8653
   32SAPC  C211 4293  -0.036   5.344   7.074  0.5790  0.7705 -0.3602
   32SAPC  H11R 4294  -0.036   5.267   6.996 -0.0582 -0.5107  0.8597
   32SAPC  C212 4295  -0.040   5.290   7.199 -0.2997  0.2307  0.3660
   32SAPC  H12R 4296  -0.044   5.180   7.204  0.3279  0.1990  0.2494
   32SAPC  C213 4297  -0.059   5.371   7.329 -0.2149 -0.3380 -0.2677
   32SAPC  H13R 4298  -0.127   5.311   7.394 -0.2536 -1.4016 -1.2610
   32SAPC  H13S 4299  -0.102   5.472   7.308 -1.0030 -0.4727  0.6234
   32SAPC  C214 4300   0.073   5.397   7.388 -0.5721 -0.2808 -0.6740
   32SAPC  H14R 4301   0.131   5.479   7.342  2.1398 -2.0033 -0.5477
   32SAPC  C215 4302   0.127   5.339   7.499  0.1693 -0.3501  0.0701
   32SAPC  H15R 4303   0.227   5.377   7.524  0.9023 -1.1274 -1.5343
   32SAPC  C216 4304   0.068   5.226   7.590  0.5756 -0.4168 -0.2870
   32SAPC  H16R 4305   0.145   5.148   7.607 -0.2180 -1.1862 -0.1033
   32SAPC  H16S 4306  -0.028   5.188   7.547 -0.4957  1.2192  0.5550
   32SAPC  C217 4307   0.046   5.289   7.735  0.1053 -0.1073  0.1942
   32SAPC  H17R 4308   0.147   5.320   7.771 -0.0331  0.8592 -0.2281
   32SAPC  H17S 4309   0.023   5.202   7.799  1.8141  0.3699  1.5432
   32SAPC  C218 4310  -0.057   5.398   7.749 -0.0520 -0.1367 -0.1814
   32SAPC  H18R 4311  -0.146   5.376   7.687 -0.1907 -1.9713  0.5841
   32SAPC  H18S 4312  -0.026   5.497   7.711 -0.6519 -0.1817 -0.7900
   32SAPC  C219 4313  -0.107   5.431   7.889  0.3556  0.1641 -0.1300
   32SAPC  H19R 4314  -0.131   5.336   7.942 -2.2022  0.9267  0.2009
   32SAPC  H19S 4315  -0.203   5.487   7.883 -1.0265 -2.0339  0.1160
   32SAPC  C220 4316  -0.001   5.508   7.972 -0.5794 -0.1300  0.5869
   32SAPC  H20R 4317   0.044   5.594   7.919  0.2395  0.4664  2.1665
   32SAPC  H20S 4318   0.085   5.440   7.991  1.0664  1.1666 -1.8398
   32SAPC  H20T 4319  -0.046   5.554   8.063 -0.2420 -1.9204  1.7170
   32SAPC   C33 4320   0.249   4.986   6.956 -0.4433 -0.1047  0.3670
   32SAPC   H3X 4321   0.188   5.075   6.984 -0.3947 -0.5635  2.0344
   32SAPC   H3Y 4322   0.358   5.007   6.967 -0.5950  1.8314 -1.2361
   32SAPC   C34 4323   0.222   4.878   7.063 -0.3460 -0.6218  0.3846
   32SAPC   H4X 4324   0.292   4.793   7.050 -0.7566 -0.8746 -0.2739
   32SAPC   H4Y 4325   0.119   4.838   7.049 -0.9451  1.0488 -0.2687
   32SAPC   C35 4326   0.248   4.938   7.206  0.5270  0.2596  0.3998
   32SAPC   H5X 4327   0.198   5.037   7.213 -1.2601 -0.5068 -0.8713
   32SAPC   H5Y 4328   0.358   4.951   7.207  0.5311  0.2195  0.7999
   32SAPC   C36 4329   0.217   4.834   7.320  0.2505 -0.9545 -0.1472
   32SAPC   H6X 4330   0.300   4.760   7.315  1.4905  0.4050 -0.2152
   32SAPC   H6Y 4331   0.120   4.782   7.304  0.3159 -1.5557  1.2942
   32SAPC   C37 4332   0.234   4.896   7.462 -0.8099 -0.1141 -1.4063
   32SAPC   H7X 4333   0.179   4.991   7.477 -1.0950 -0.6959  2.1099
   32SAPC   H7Y 4334   0.338   4.934   7.467 -0.6687  0.2838 -4.7885
   32SAPC   C38 4335   0.201   4.800   7.585 -0.2143 -0.2975  0.8648
   32SAPC   H8X 4336   0.248   4.701   7.567  0.3834 -0.3186  2.3896
   32SAPC   H8Y 4337   0.091   4.790   7.596 -0.3386  0.3817  0.2481
   32SAPC   C39 4338   0.248   4.848   7.716  0.0086 -0.1775  0.1676
   32SAPC   H9X 4339   0.193   4.934   7.759 -0.1406  0.8359 -1.9248
   32SAPC   H9Y 4340   0.350   4.891   7.717  0.0048 -0.1761  0.9454
   32SAPC  C310 4341   0.253   4.751   7.836  1.0672  0.3387 -0.0757
   32SAPC  H10X 4342   0.293   4.650   7.815 -0.4541  0.3108 -3.5019
   32SAPC  H10Y 4343   0.152   4.719   7.867  1.8550 -1.1619  1.0501
   32SAPC  C311 4344   0.335   4.802   7.955 -0.0522  0.0618  0.2925
   32SAPC  H11X 4345   0.297   4.899   7.994 -0.4540  0.5247 -1.1828
   32SAPC  H11Y 4346   0.438   4.812   7.916  0.4985 -0.9059  1.4297
   32SAPC  C312 4347   0.340   4.701   8.074  0.5820  0.3687  0.6193
   32SAPC  H12X 4348   0.375   4.599   8.048  3.7061  1.6725 -0.8071
   32SAPC  H12Y 4349   0.232   4.695   8.099  0.4332  0.3413 -0.0125
   32SAPC  C313 4350   0.411   4.758   8.198 -0.3155 -0.0974  0.7066
   32SAPC  H13X 4351   0.429   4.866   8.182 -0.6470  0.0698  1.4165
   32SAPC  H13Y 4352   0.511   4.709   8.202  1.5772  3.1234 -2.1018
   32SAPC  C314 4353   0.330   4.755   8.322 -0.0666 -0.1136 -0.0598
   32SAPC  H14X 4354   0.411   4.758   8.398  0.3673 -1.0572 -0.4727
   32SAPC  H14Y 4355   0.273   4.660   8.329 -1.6055  0.7178 -0.8227
   32SAPC  C315 4356   0.238   4.868   8.343 -0.1339 -0.3302 -0.6592
   32SAPC  H15X 4357   0.152   4.866   8.272 -1.9446 -0.7540  1.4155
   32SAPC  H15Y 4358   0.284   4.964   8.312 -2.7412  0.6324 -1.9015
   32SAPC  C316 4359   0.203   4.885   8.486  0.0816  0.9414  0.0816
   32SAPC  H16X 4360   0.141   4.973   8.513 -1.6822 -0.3802  0.5503
   32SAPC  H16Y 4361   0.296   4.891   8.545 -0.2605 -0.0300  0.7486
   32SAPC  C317 4362   0.140   4.758   8.554 -0.0957  0.6402 -0.2795
   32SAPC  H17X 4363   0.216   4.678   8.553 -0.6356  0.1175 -0.6516
   32SAPC  H17Y 4364   0.061   4.709   8.493  1.0903 -4.5132  1.8287
   32SAPC  C318 4365   0.082   4.785   8.692 -0.2730 -0.4059 -0.5836
   32SAPC  H18X 4366   0.068   4.697   8.758  0.1740 -0.2879 -0.3266
   32SAPC  H18Y 4367  -0.014   4.839   8.683 -0.7037 -1.3146 -1.7225
   32SAPC  H18Z 4368   0.163   4.846   8.736  0.1476 -0.1345 -1.7007
   33POPC     N 4369   6.214   4.667  10.550 -0.4733 -0.5060 -0.0480
   33POPC   C12 4370   6.159   4.575  10.662 -0.2030 -0.5346 -0.2731
   33POPC  H12A 4371   6.096   4.500  10.616  0.4941 -0.5452 -1.2255
   33POPC  H12B 4372   6.101   4.635  10.732  1.2615  0.5706  0.0509
   33POPC   C13 4373   6.297   4.774  10.614  0.2078  0.1683 -0.4267
   33POPC  H13A 4374   6.236   4.816  10.692 -0.8090 -2.2249  0.1595
   33POPC  H13B 4375   6.382   4.718  10.648 -0.3189 -2.3383 -2.8959
   33POPC  H13C 4376   6.317   4.856  10.547  1.9076 -0.6861 -1.0102
   33POPC   C14 4377   6.293   4.597  10.441 -0.1421 -0.6242 -0.3438
   33POPC  H14A 4378   6.344   4.664  10.374  1.1430 -1.9169 -0.7106
   33POPC  H14B 4379   6.375   4.535  10.475 -0.0985 -0.0784  0.5884
   33POPC  H14C 4380   6.227   4.530  10.389 -0.8397 -0.1272 -0.1193
   33POPC   C15 4381   6.108   4.737  10.477 -0.2612  0.3998  0.1400
   33POPC  H15A 4382   6.147   4.786  10.389  1.2991 -1.4126 -0.2393
   33POPC  H15B 4383   6.063   4.807  10.545  0.2343 -0.1025  1.0007
   33POPC  H15C 4384   6.035   4.668  10.437  0.5997 -0.6186  0.2713
   33POPC   C11 4385   6.266   4.500  10.747  0.4276  0.1067 -0.2336
   33POPC  H11A 4386   6.220   4.445  10.832  1.5138 -0.3659  0.0671
   33POPC  H11B 4387   6.333   4.575  10.794 -1.3209  1.7220 -0.2022
   33POPC     P 4388   6.311   4.263  10.655  0.3314  0.1783 -0.1778
   33POPC   O13 4389   6.184   4.242  10.587 -0.3331  0.0021 -0.6468
   33POPC   O14 4390   6.323   4.217  10.796 -0.0496 -0.4536 -0.0218
   33POPC   O12 4391   6.343   4.414  10.660  0.4386 -0.5158  0.2346
   33POPC   O11 4392   6.432   4.207  10.569  0.1500  0.1910 -0.3295
   33POPC    C1 4393   6.440   4.067  10.538  0.1067  0.3127  0.0503
   33POPC    HA 4394   6.544   4.030  10.554 -0.4360 -1.2062  0.2263
   33POPC    HB 4395   6.371   4.007  10.600 -1.7349  0.8027 -1.4460
   33POPC    C2 4396   6.408   4.042  10.387  0.4703 -0.3190  0.5622
   33POPC    HS 4397   6.403   3.932  10.371 -1.3147 -0.6559  2.8803
   33POPC   O21 4398   6.511   4.099  10.308 -0.4098 -0.6941  0.4501
   33POPC   C21 4399   6.633   4.039  10.311  0.2663 -0.1728  0.2200
   33POPC   O22 4400   6.657   3.942  10.381  0.4100 -0.1662 -0.3078
   33POPC   C22 4401   6.731   4.126  10.239  0.3396 -0.0686  0.8417
   33POPC   H2R 4402   6.823   4.068  10.216  0.1209  0.1745 -0.7347
   33POPC   H2S 4403   6.758   4.210  10.307  1.7220 -0.0834  0.3536
   33POPC    C3 4404   6.269   4.095  10.343  0.0547 -0.3246 -0.9264
   33POPC    HX 4405   6.253   4.202  10.369  0.7680 -0.6346  0.9117
   33POPC    HY 4406   6.202   4.028  10.401  0.8021  0.6664  1.2058
   33POPC   O31 4407   6.247   4.070  10.206  0.7554 -0.1074  0.2009
   33POPC   C31 4408   6.236   4.174  10.125  0.0897 -0.4339  0.0127
   33POPC   O32 4409   6.227   4.291  10.160  0.4542 -0.7449 -0.2981
   33POPC   C32 4410   6.250   4.113   9.987 -0.3204  0.5936  0.2419
   33POPC   H2X 4411   6.170   4.036   9.988 -1.2717  1.5541  0.6714
   33POPC   H2Y 4412   6.342   4.052   9.973 -0.1551  0.8590  0.1628
   33POPC   C23 4413   6.677   4.181  10.100 -0.0736 -0.0001  0.5070
   33POPC   H3R 4414   6.743   4.270  10.091  1.1715 -0.9470 -0.0198
   33POPC   H3S 4415   6.577   4.229  10.103  0.3538  0.9896 -0.1812
   33POPC   C24 4416   6.688   4.084   9.982 -0.2436 -0.3214 -0.5242
   33POPC   H4R 4417   6.610   4.008  10.004 -2.3041  2.4401  2.7393
   33POPC   H4S 4418   6.789   4.039   9.967  1.4515  2.6123  1.0944
   33POPC   C25 4419   6.663   4.154   9.850 -0.7248 -0.1522 -0.1753
   33POPC   H5R 4420   6.740   4.233   9.841  0.8395 -1.7438 -1.6416
   33POPC   H5S 4421   6.570   4.212   9.863 -0.8715 -0.5548  0.7023
   33POPC   C26 4422   6.675   4.065   9.726  0.1031 -0.3799 -0.5666
   33POPC   H6R 4423   6.610   3.975   9.736  1.8630 -1.5844  0.5323
   33POPC   H6S 4424   6.780   4.029   9.723  0.1506 -0.2056 -1.2490
   33POPC   C27 4425   6.646   4.147   9.604 -0.2218  0.4777  0.1809
   33POPC   H7R 4426   6.550   4.200   9.623 -0.4712  0.5596 -1.2050
   33POPC   H7S 4427   6.628   4.070   9.526  0.4141 -0.4842  0.9520
   33POPC   C28 4428   6.741   4.262   9.565  0.3646 -0.2110 -0.1837
   33POPC   H8R 4429   6.846   4.226   9.559  0.0571 -1.0770 -0.4687
   33POPC   H8S 4430   6.743   4.338   9.646 -1.5659 -1.4107  1.0803
   33POPC   C29 4431   6.697   4.332   9.432  1.1955 -0.6997  0.3603
   33POPC   H91 4432   6.618   4.405   9.454  2.1958  0.4903  0.1414
   33POPC  C210 4433   6.744   4.315   9.306  0.1369  0.4380 -0.5552
   33POPC  H101 4434   6.700   4.381   9.231 -2.5181  2.5442  2.5789
   33POPC  C211 4435   6.847   4.212   9.264  1.2845  0.3694  0.5083
   33POPC  H11R 4436   6.859   4.129   9.337  3.1618 -2.9593 -3.1906
   33POPC  H11S 4437   6.946   4.255   9.239  1.1573 -0.0819 -0.8527
   33POPC  C212 4438   6.800   4.151   9.130  0.6490 -0.0296 -0.3581
   33POPC  H12R 4439   6.782   4.222   9.047 -0.2949  1.9626  1.4572
   33POPC  H12S 4440   6.707   4.098   9.160  0.1881  1.3183  0.6834
   33POPC  C213 4441   6.894   4.043   9.076  0.2832  0.2750  0.6332
   33POPC  H13R 4442   6.895   3.954   9.143 -1.6049 -0.5484 -0.3582
   33POPC  H13S 4443   6.997   4.083   9.090  0.9468 -0.7290 -0.9838
   33POPC  C214 4444   6.888   4.002   8.928  0.5737 -0.0498  0.3822
   33POPC  H14R 4445   6.900   4.093   8.866 -2.5755  0.6593  0.6526
   33POPC  H14S 4446   6.783   3.970   8.912  0.4155  0.2799  0.7542
   33POPC  C215 4447   6.976   3.886   8.884 -0.3491 -0.1214  0.3867
   33POPC  H15R 4448   7.079   3.904   8.921 -1.0686  3.0841  1.1408
   33POPC  H15S 4449   6.999   3.887   8.775  0.7401 -0.1336  0.6016
   33POPC  C216 4450   6.933   3.751   8.932  0.9130  0.4284  0.0857
   33POPC  H16R 4451   6.869   3.775   9.020  2.1884 -0.4073  1.2692
   33POPC  H16S 4452   7.023   3.693   8.961  1.8904  2.6822  1.8308
   33POPC  C217 4453   6.864   3.677   8.817  0.2603 -0.2954  0.2943
   33POPC  H17R 4454   6.928   3.677   8.727  1.0674  1.4053  0.8360
   33POPC  H17S 4455   6.781   3.745   8.787  0.7392  0.0939 -0.1466
   33POPC  C218 4456   6.811   3.544   8.854 -0.1641  0.2656  0.6934
   33POPC  H18R 4457   6.888   3.468   8.878 -0.8479 -0.2593  1.2687
   33POPC  H18S 4458   6.761   3.504   8.763  1.1431 -0.9493  0.4740
   33POPC  H18T 4459   6.746   3.549   8.945 -0.1213 -0.6751  0.7946
   33POPC   C33 4460   6.220   4.204   9.865 -0.0862  0.1813  0.5300
   33POPC   H3X 4461   6.270   4.302   9.881 -1.8828  0.8368  2.5605
   33POPC   H3Y 4462   6.110   4.218   9.864 -0.5607 -2.9450  0.5152
   33POPC   C34 4463   6.269   4.129   9.739 -0.1128 -0.2411 -0.1128
   33POPC   H4X 4464   6.233   4.024   9.741  1.5890 -0.8778 -1.0737
   33POPC   H4Y 4465   6.380   4.131   9.743 -0.1445  0.8477  0.7448
   33POPC   C35 4466   6.232   4.204   9.612  0.4752 -0.5581 -0.5144
   33POPC   H5X 4467   6.243   4.315   9.613 -1.3401 -0.3226 -1.5682
   33POPC   H5Y 4468   6.123   4.183   9.607  0.4244 -0.2306 -0.8010
   33POPC   C36 4469   6.284   4.130   9.486  0.0282 -0.1321  0.1938
   33POPC   H6X 4470   6.261   4.022   9.499 -0.5819  0.1307  1.3930
   33POPC   H6Y 4471   6.394   4.140   9.481 -0.0761  1.6541  0.6856
   33POPC   C37 4472   6.227   4.188   9.355 -0.0700  0.7068  0.1323
   33POPC   H7X 4473   6.231   4.299   9.358 -1.3229  0.7724 -0.0820
   33POPC   H7Y 4474   6.120   4.157   9.355 -0.5530  2.2597 -0.5794
   33POPC   C38 4475   6.305   4.148   9.224 -0.0147  0.0531 -0.5325
   33POPC   H8X 4476   6.286   4.042   9.195  1.0288 -0.2198 -0.2390
   33POPC   H8Y 4477   6.412   4.151   9.251 -0.4912  3.1677  1.4917
   33POPC   C39 4478   6.269   4.234   9.100 -0.4371  0.0232 -0.2806
   33POPC   H9X 4479   6.159   4.244   9.090 -0.3911  0.5951 -0.2685
   33POPC   H9Y 4480   6.310   4.186   9.008  0.9234  1.1783 -0.3206
   33POPC  C310 4481   6.335   4.380   9.089  0.0941  0.0450 -0.1509
   33POPC  H10X 4482   6.445   4.364   9.094  0.1121  0.6151  2.5491
   33POPC  H10Y 4483   6.302   4.437   9.178 -1.4271 -1.4291  0.2841
   33POPC  C311 4484   6.305   4.467   8.963  0.1631 -0.7100 -0.2723
   33POPC  H11X 4485   6.333   4.571   8.992  0.0059 -1.2816  2.1980
   33POPC  H11Y 4486   6.195   4.475   8.952  0.1540  1.0033  0.7659
   33POPC  C312 4487   6.380   4.429   8.833 -0.3519 -0.5640 -0.3535
   33POPC  H12X 4488   6.351   4.325   8.809 -0.0349 -0.6245 -0.4785
   33POPC  H12Y 4489   6.491   4.439   8.837 -0.4860  0.9729  1.2794
   33POPC  C313 4490   6.330   4.511   8.708  0.1120 -0.4968 -0.5166
   33POPC  H13X 4491   6.402   4.485   8.627 -0.7955  0.1225 -1.5644
   33POPC  H13Y 4492   6.346   4.619   8.728  0.8502 -0.6209 -0.4160
   33POPC  C314 4493   6.187   4.479   8.675  0.1281 -0.4190 -0.0718
   33POPC  H14X 4494   6.119   4.525   8.749 -1.9781  0.7282 -2.5682
   33POPC  H14Y 4495   6.185   4.368   8.680  1.8969 -0.4821 -0.2331
   33POPC  C315 4496   6.146   4.516   8.532 -0.5549  0.0350  0.1822
   33POPC  H15X 4497   6.169   4.624   8.518  0.6385 -0.1505  0.5871
   33POPC  H15Y 4498   6.037   4.494   8.531 -0.5507  0.0222 -0.1614
   33POPC  C316 4499   6.206   4.430   8.422 -0.1222 -0.2808 -0.6106
   33POPC  H16X 4500   6.200   4.323   8.451  1.3550 -0.2778 -0.1895
   33POPC  H16Y 4501   6.311   4.461   8.402  0.0535 -0.1525  0.4573
   33POPC  H16Z 4502   6.148   4.448   8.329 -0.0022  0.5340 -0.5384
   34POPC     N 4503   0.742   5.012  10.862 -0.3076  0.0209  0.1335
   34POPC   C12 4504   0.772   4.905  10.753 -0.1039 -0.1721  0.2387
   34POPC  H12A 4505   0.684   4.884  10.695  0.1978 -4.0415  0.9011
   34POPC  H12B 4506   0.812   4.815  10.799 -1.3090 -1.1370 -0.5415
   34POPC   C13 4507   0.628   4.968  10.946 -0.4334  0.4842 -0.1085
   34POPC  H13A 4508   0.539   5.000  10.895 -0.7486 -0.4600 -0.1678
   34POPC  H13B 4509   0.629   4.860  10.956 -0.0771  0.5494  0.6476
   34POPC  H13C 4510   0.633   5.020  11.040 -0.1343 -0.7988  0.6221
   34POPC   C14 4511   0.856   5.043  10.951 -0.1348 -0.3311 -0.3154
   34POPC  H14A 4512   0.832   5.124  11.018 -1.3827  0.0756 -1.2090
   34POPC  H14B 4513   0.876   4.953  11.006 -1.7013 -0.2828  0.4088
   34POPC  H14C 4514   0.943   5.061  10.890  0.7506 -0.0163  1.0053
   34POPC   C15 4515   0.692   5.134  10.784  0.2628 -0.5488 -0.5562
   34POPC  H15A 4516   0.679   5.216  10.852  1.5857 -0.8391  0.0856
   34POPC  H15B 4517   0.600   5.108  10.732  0.4216 -1.0837 -0.5808
   34POPC  H15C 4518   0.760   5.158  10.704 -0.8734  2.0047 -0.8362
   34POPC   C11 4519   0.879   4.938  10.649 -0.2605 -0.2736  0.6458
   34POPC  H11A 4520   0.854   5.029  10.590 -1.1484 -0.9986 -0.1391
   34POPC  H11B 4521   0.874   4.858  10.572  2.4571  0.2730 -0.1864
   34POPC     P 4522   1.089   4.816  10.759  0.4580  0.0371  0.0862
   34POPC   O13 4523   0.992   4.705  10.778  0.2591  0.0709  0.5592
   34POPC   O14 4524   1.176   4.846  10.875  0.6547  0.4576  0.1263
   34POPC   O12 4525   1.009   4.949  10.713 -0.2576 -0.7761  0.2873
   34POPC   O11 4526   1.179   4.780  10.639 -0.6337 -0.2105 -0.1641
   34POPC    C1 4527   1.283   4.860  10.579 -0.0486 -0.0839  0.4671
   34POPC    HA 4528   1.354   4.793  10.526 -0.6303  0.2176 -0.7369
   34POPC    HB 4529   1.337   4.921  10.655  0.9338 -1.9848  1.3719
   34POPC    C2 4530   1.232   4.961  10.471  0.6200 -0.8312  0.2247
   34POPC    HS 4531   1.169   5.034  10.527 -0.9220 -1.9268 -0.0219
   34POPC   O21 4532   1.149   4.890  10.377  0.1222  0.4843 -0.1558
   34POPC   C21 4533   1.057   4.971  10.317 -0.6067 -0.4200  0.5549
   34POPC   O22 4534   1.037   5.086  10.345 -0.8044  0.8465  0.5970
   34POPC   C22 4535   0.997   4.894  10.206 -0.3302  0.5066 -0.0224
   34POPC   H2R 4536   0.974   4.793  10.245  0.6759 -1.1782 -3.3964
   34POPC   H2S 4537   1.072   4.891  10.123  2.4340  2.1792  2.2360
   34POPC    C3 4538   1.349   5.045  10.403  0.2940 -0.3256 -0.1440
   34POPC    HX 4539   1.412   4.978  10.341  2.7484  0.9281  0.8962
   34POPC    HY 4540   1.412   5.095  10.479 -0.9318 -1.3728  1.6479
   34POPC   O31 4541   1.292   5.155  10.316  0.3237  0.2816  0.2739
   34POPC   C31 4542   1.360   5.264  10.288 -0.4850  0.2884  0.2271
   34POPC   O32 4543   1.477   5.279  10.325 -0.3104 -0.3795 -0.0931
   34POPC   C32 4544   1.277   5.363  10.210 -0.2723  0.2071  0.4052
   34POPC   H2X 4545   1.185   5.388  10.267 -0.9048 -2.2347  0.5889
   34POPC   H2Y 4546   1.253   5.315  10.112  1.2107 -0.6128  0.4177
   34POPC   C23 4547   0.866   4.954  10.148 -0.2874  0.4205  0.2829
   34POPC   H3R 4548   0.890   5.043  10.084  0.7672  1.0756  1.5343
   34POPC   H3S 4549   0.801   5.001  10.224  1.4093  3.2302  0.1632
   34POPC   C24 4550   0.779   4.864  10.054  0.5809 -0.0284 -0.0659
   34POPC   H4R 4551   0.720   4.930   9.987 -1.8010 -0.4463  1.4886
   34POPC   H4S 4552   0.697   4.815  10.112 -1.4814  2.1260 -0.9914
   34POPC   C25 4553   0.865   4.775   9.962 -0.0512 -0.2254 -0.0446
   34POPC   H5R 4554   0.928   4.707  10.023  0.4523  0.1884 -0.0861
   34POPC   H5S 4555   0.936   4.843   9.909  1.6904  0.5412  3.0115
   34POPC   C26 4556   0.766   4.697   9.872 -0.3236 -0.0250  0.5717
   34POPC   H6R 4557   0.691   4.766   9.826 -0.5177 -0.8593 -0.4096
   34POPC   H6S 4558   0.698   4.628   9.927 -0.6683 -0.3754 -0.2750
   34POPC   C27 4559   0.827   4.623   9.751 -0.0805 -0.3249  0.1167
   34POPC   H7R 4560   0.883   4.532   9.780  0.1087  0.0357  0.9112
   34POPC   H7S 4561   0.893   4.691   9.692 -0.0619  0.3977  0.9547
   34POPC   C28 4562   0.727   4.560   9.650  0.6687  0.1562  0.1048
   34POPC   H8R 4563   0.643   4.510   9.703  0.8314 -0.2614 -0.0265
   34POPC   H8S 4564   0.788   4.490   9.590  0.2608  0.3492 -0.5514
   34POPC   C29 4565   0.670   4.677   9.570 -0.0037 -0.2730  0.2533
   34POPC   H91 4566   0.605   4.750   9.621 -0.8632 -0.3870 -0.6553
   34POPC  C210 4567   0.683   4.690   9.434  0.1615 -0.9965  0.3842
   34POPC  H101 4568   0.639   4.780   9.387 -0.8017 -1.0532  1.1498
   34POPC  C211 4569   0.758   4.596   9.346 -0.2387  0.1766  0.2661
   34POPC  H11R 4570   0.688   4.514   9.320  2.5685 -2.6666  1.0699
   34POPC  H11S 4571   0.850   4.555   9.393 -0.5692  0.1238  0.8772
   34POPC  C212 4572   0.799   4.661   9.203 -0.3215  0.2343  0.1839
   34POPC  H12R 4573   0.906   4.639   9.182 -0.8537 -0.7425 -1.7253
   34POPC  H12S 4574   0.792   4.770   9.223 -0.1396  0.3237 -0.2241
   34POPC  C213 4575   0.710   4.607   9.086  0.0422  0.0753  0.6053
   34POPC  H13R 4576   0.602   4.625   9.107 -0.2395  0.2934 -0.9018
   34POPC  H13S 4577   0.716   4.496   9.079 -1.2151  0.0875 -1.6144
   34POPC  C214 4578   0.750   4.676   8.950 -0.0184 -0.0903  0.4014
   34POPC  H14R 4579   0.861   4.681   8.942 -0.1862  1.7599 -1.9216
   34POPC  H14S 4580   0.722   4.783   8.952 -0.3786 -0.1908  1.4216
   34POPC  C215 4581   0.686   4.602   8.834 -0.1333 -0.0453 -0.1373
   34POPC  H15R 4582   0.578   4.626   8.839 -0.1709 -0.2786  0.1868
   34POPC  H15S 4583   0.703   4.493   8.847 -0.9577 -0.2820 -0.9764
   34POPC  C216 4584   0.725   4.654   8.692  0.1106  0.4454  0.6469
   34POPC  H16R 4585   0.830   4.628   8.667 -0.8717 -1.5786 -1.8033
   34POPC  H16S 4586   0.714   4.765   8.694  1.9477  0.6563  0.8489
   34POPC  C217 4587   0.641   4.585   8.575 -0.8499 -0.5002 -0.4394
   34POPC  H17R 4588   0.533   4.589   8.599 -0.6354  1.9860  0.4660
   34POPC  H17S 4589   0.678   4.481   8.577 -0.1531 -0.3040  2.3138
   34POPC  C218 4590   0.665   4.658   8.447  0.3636  0.0654  0.2588
   34POPC  H18R 4591   0.596   4.622   8.368  0.7218 -0.3975  0.1516
   34POPC  H18S 4592   0.771   4.665   8.415 -0.3615  5.1095 -2.1214
   34POPC  H18T 4593   0.633   4.763   8.464 -0.7418 -0.2126  0.0074
   34POPC   C33 4594   1.342   5.499  10.174  0.8857 -0.3479  0.1207
   34POPC   H3X 4595   1.412   5.528  10.255  0.1325  1.3043  0.2302
   34POPC   H3Y 4596   1.259   5.572  10.159  1.5742  0.1688 -1.3982
   34POPC   C34 4597   1.427   5.483  10.042  0.3853  0.4467 -0.2092
   34POPC   H4X 4598   1.363   5.463   9.954  0.2076 -3.2168  0.6019
   34POPC   H4Y 4599   1.506   5.404  10.049 -0.6890 -1.0668 -3.3527
   34POPC   C35 4600   1.482   5.622  10.006 -0.2833  0.0845  0.1022
   34POPC   H5X 4601   1.395   5.690  10.020  1.4898  2.1477  1.9169
   34POPC   H5Y 4602   1.513   5.620   9.899  1.3792 -1.8995  0.5547
   34POPC   C36 4603   1.597   5.674  10.103  0.1183 -0.2787 -0.3535
   34POPC   H6X 4604   1.676   5.598  10.118 -0.3237 -0.4231  1.4525
   34POPC   H6Y 4605   1.555   5.696  10.204  1.2580 -0.7594  0.2472
   34POPC   C37 4606   1.682   5.792  10.050 -0.1823 -1.0413 -0.4383
   34POPC   H7X 4607   1.719   5.764   9.949  0.7718 -1.4921  0.0199
   34POPC   H7Y 4608   1.767   5.812  10.120  0.1118 -2.2912 -0.4019
   34POPC   C38 4609   1.610   5.932  10.048 -0.7188  0.0078 -0.4926
   34POPC   H8X 4610   1.609   5.969  10.153  3.5064  2.6338 -1.1644
   34POPC   H8Y 4611   1.505   5.918  10.013 -1.2261  1.9948  0.1314
   34POPC   C39 4612   1.683   6.039   9.965 -0.2224  0.2817  0.5407
   34POPC   H9X 4613   1.792   6.029   9.978 -0.0460  0.5939 -0.5721
   34POPC   H9Y 4614   1.659   6.139  10.007  0.7333  1.1242 -0.8395
   34POPC  C310 4615   1.656   6.021   9.818  0.1591  0.6194 -0.2586
   34POPC  H10X 4616   1.571   6.085   9.787  0.5576  2.0798  1.4675
   34POPC  H10Y 4617   1.627   5.917   9.792 -0.3156  1.3207 -2.8105
   34POPC  C311 4618   1.777   6.063   9.734 -0.3148 -0.4613  0.4054
   34POPC  H11X 4619   1.872   6.011   9.758 -0.6327 -1.2247  0.0783
   34POPC  H11Y 4620   1.786   6.173   9.738  0.8825 -0.4795 -0.9583
   34POPC  C312 4621   1.759   6.037   9.586  0.3479 -0.0236 -0.2507
   34POPC  H12X 4622   1.673   6.097   9.549  0.7934  0.4322 -0.5624
   34POPC  H12Y 4623   1.734   5.930   9.571 -3.8575  0.8592 -0.9018
   34POPC  C313 4624   1.878   6.086   9.510  0.0011 -0.1748  0.0375
   34POPC  H13X 4625   1.967   6.036   9.554 -0.7388 -0.1371  1.6676
   34POPC  H13Y 4626   1.890   6.196   9.520 -1.9500 -0.1390  3.5230
   34POPC  C314 4627   1.870   6.039   9.360  0.1518 -1.4154 -0.5014
   34POPC  H14X 4628   1.866   5.929   9.344 -1.3591 -1.3663 -0.6040
   34POPC  H14Y 4629   1.964   6.071   9.310 -1.0067 -0.0790 -1.9212
   34POPC  C315 4630   1.756   6.105   9.286 -0.0216  0.1415  0.0821
   34POPC  H15X 4631   1.756   6.214   9.303  1.3285  0.7254 -2.9595
   34POPC  H15Y 4632   1.657   6.065   9.316  0.4662 -0.4452  0.9534
   34POPC  C316 4633   1.768   6.056   9.137  0.5941 -0.2524  0.3938
   34POPC  H16X 4634   1.866   6.091   9.099  0.8974  2.3554  3.1528
   34POPC  H16Y 4635   1.683   6.096   9.078  0.7203  2.1652  1.7216
   34POPC  H16Z 4636   1.755   5.946   9.141 -3.2405  0.0841  1.4998
   35POPC     N 4637   0.081   3.885  11.029 -0.0386 -0.1943 -0.4701
   35POPC   C12 4638   0.216   3.907  11.094  0.0849  0.0529  0.1272
   35POPC  H12A 4639   0.205   3.979  11.174 -2.4772 -0.2450  0.1044
   35POPC  H12B 4640   0.287   3.951  11.025 -0.1046 -1.2884 -0.9717
   35POPC   C13 4641   0.014   4.018  11.006 -0.1292 -0.2394  0.3012
   35POPC  H13A 4642   0.078   4.086  10.953 -0.2615 -0.4328 -0.1094
   35POPC  H13B 4643  -0.071   4.001  10.942 -1.1777  0.4036  1.4752
   35POPC  H13C 4644  -0.028   4.066  11.094 -0.4808  1.1548 -0.5974
   35POPC   C14 4645   0.098   3.812  10.902  0.3428 -0.0118 -0.3940
   35POPC  H14A 4646   0.152   3.877  10.834  0.8378  0.3007  0.2878
   35POPC  H14B 4647   0.151   3.719  10.907  0.2432 -0.2755 -2.7612
   35POPC  H14C 4648   0.002   3.799  10.853  0.6316 -0.3713 -0.8624
   35POPC   C15 4649  -0.020   3.810  11.117  0.2161  0.0105  0.7016
   35POPC  H15A 4650  -0.029   3.853  11.216 -0.7941 -0.7691  0.9610
   35POPC  H15B 4651  -0.002   3.705  11.135  1.8480  0.0806 -0.2898
   35POPC  H15C 4652  -0.115   3.797  11.067  0.9924 -0.5890 -0.6629
   35POPC   C11 4653   0.284   3.784  11.169 -0.0699 -0.2037  0.2786
   35POPC  H11A 4654   0.204   3.760  11.242  0.1557  0.5944  0.7965
   35POPC  H11B 4655   0.376   3.833  11.208 -1.0711 -0.1011  2.6298
   35POPC     P 4656   0.274   3.531  11.110 -0.4088  0.1682  0.5490
   35POPC   O13 4657   0.164   3.485  11.024 -0.0017 -0.1008 -0.5230
   35POPC   O14 4658   0.237   3.517  11.249  0.5735 -0.2650  0.0837
   35POPC   O12 4659   0.321   3.681  11.078 -0.9735 -0.3806 -0.4392
   35POPC   O11 4660   0.401   3.437  11.078 -0.3446 -0.9428 -0.3221
   35POPC    C1 4661   0.508   3.482  10.992  0.1514  0.7641 -0.6945
   35POPC    HA 4662   0.593   3.411  10.993 -2.0880 -2.1463 -0.9655
   35POPC    HB 4663   0.552   3.572  11.040 -0.0971 -0.6084  2.3582
   35POPC    C2 4664   0.471   3.497  10.846  0.8240 -0.8240  0.3495
   35POPC    HS 4665   0.389   3.571  10.841  0.0363 -1.6912  0.1936
   35POPC   O21 4666   0.422   3.361  10.811  0.5354 -1.0267 -0.2967
   35POPC   C21 4667   0.311   3.350  10.746 -0.1159 -0.6016 -0.0353
   35POPC   O22 4668   0.250   3.444  10.691 -0.1052 -0.3097 -0.1406
   35POPC   C22 4669   0.277   3.201  10.738  0.4394  0.1201  0.4913
   35POPC   H2R 4670   0.236   3.160  10.832  1.2293  2.6669  2.0203
   35POPC   H2S 4671   0.366   3.149  10.695  0.8312  1.0803  0.0944
   35POPC    C3 4672   0.597   3.549  10.761  0.4558 -0.6719 -0.6896
   35POPC    HX 4673   0.688   3.497  10.797 -0.5047 -2.7240 -1.0912
   35POPC    HY 4674   0.617   3.653  10.795  1.3686 -0.9124 -0.4752
   35POPC   O31 4675   0.584   3.543  10.615  0.2496  0.3201  0.2545
   35POPC   C31 4676   0.602   3.417  10.561 -0.2236 -0.7022  0.1795
   35POPC   O32 4677   0.625   3.324  10.631  0.1431 -0.4991 -0.0013
   35POPC   C32 4678   0.588   3.423  10.410 -0.0480  1.3175  0.2321
   35POPC   H2X 4679   0.666   3.482  10.358  2.1113 -1.0751  0.5511
   35POPC   H2Y 4680   0.489   3.473  10.404 -0.7282 -0.0808 -1.0759
   35POPC   C23 4681   0.155   3.170  10.639  0.3797 -0.9725  0.6130
   35POPC   H3R 4682   0.077   3.248  10.627  1.3545 -0.3474 -2.7703
   35POPC   H3S 4683   0.105   3.080  10.680 -2.1142 -0.1779 -0.4160
   35POPC   C24 4684   0.188   3.140  10.487 -0.4694 -0.3444 -0.6313
   35POPC   H4R 4685   0.252   3.049  10.485 -0.1825 -0.3021  2.3227
   35POPC   H4S 4686   0.233   3.226  10.433 -1.2218  0.3879 -0.1165
   35POPC   C25 4687   0.052   3.102  10.417 -0.4504  0.3829  0.3130
   35POPC   H5R 4688  -0.032   3.169  10.446 -0.3712  1.0262 -0.8955
   35POPC   H5S 4689   0.027   2.998  10.446  0.5184 -0.2348 -0.9855
   35POPC   C26 4690   0.063   3.104  10.266 -0.2436  0.8047  0.0382
   35POPC   H6R 4691   0.074   3.211  10.239 -2.9527  1.2058  0.2293
   35POPC   H6S 4692  -0.041   3.076  10.239 -1.2409  2.4382  1.9336
   35POPC   C27 4693   0.160   3.011  10.209 -0.2089  0.1616  0.4897
   35POPC   H7R 4694   0.172   2.909  10.251  2.0420  0.6219  1.1063
   35POPC   H7S 4695   0.262   3.047  10.236 -1.5056  2.8980  2.1245
   35POPC   C28 4696   0.137   2.993  10.060  0.2424 -0.6686  0.2679
   35POPC   H8R 4697   0.141   3.099  10.025  1.9634 -0.1708  1.8678
   35POPC   H8S 4698   0.031   2.961  10.047  0.4571 -0.7790 -1.4535
   35POPC   C29 4699   0.240   2.902   9.988 -1.4366  0.1206  0.3792
   35POPC   H91 4700   0.335   2.884  10.040 -0.2051 -1.5232 -2.2592
   35POPC  C210 4701   0.230   2.832   9.878  0.2415  0.3062 -0.2578
   35POPC  H101 4702   0.307   2.757   9.854  0.2265 -0.7507  2.5894
   35POPC  C211 4703   0.107   2.827   9.799  0.3096 -0.2076  0.3295
   35POPC  H11R 4704   0.035   2.911   9.810  1.0920  0.3355  1.4157
   35POPC  H11S 4705   0.048   2.734   9.814 -0.0699 -0.6215 -2.9146
   35POPC  C212 4706   0.143   2.842   9.648 -0.0788  0.6245  0.1129
   35POPC  H12R 4707   0.055   2.871   9.586  1.4462  2.6174 -1.2914
   35POPC  H12S 4708   0.174   2.749   9.597 -0.7875  1.2306 -1.5070
   35POPC  C213 4709   0.248   2.945   9.617  0.5230  0.3387  0.1851
   35POPC  H13R 4710   0.349   2.914   9.650  0.5271  2.6585  2.6939
   35POPC  H13S 4711   0.222   3.036   9.675 -0.4609 -0.3305  0.8111
   35POPC  C214 4712   0.249   2.983   9.469 -0.1983  0.6754  0.3426
   35POPC  H14R 4713   0.325   3.064   9.464  2.1520 -1.2618  2.0545
   35POPC  H14S 4714   0.152   3.025   9.437 -0.3116 -0.2755 -0.6090
   35POPC  C215 4715   0.307   2.881   9.375 -0.1863  0.0625  1.0372
   35POPC  H15R 4716   0.227   2.822   9.324  0.9741 -0.5485 -0.1171
   35POPC  H15S 4717   0.369   2.804   9.426  2.4606  2.0124  0.9706
   35POPC  C216 4718   0.397   2.944   9.264  0.4475 -0.3244  0.5925
   35POPC  H16R 4719   0.489   2.979   9.316  0.0969 -0.5762  1.4111
   35POPC  H16S 4720   0.367   3.045   9.230  1.9327 -0.1633 -0.3025
   35POPC  C217 4721   0.432   2.845   9.152 -0.5772 -0.0480  0.2081
   35POPC  H17R 4722   0.338   2.810   9.103  0.1564 -2.6804  0.4990
   35POPC  H17S 4723   0.471   2.754   9.203 -1.4644 -0.3278  0.4067
   35POPC  C218 4724   0.533   2.891   9.051  0.0757  0.2851  0.7648
   35POPC  H18R 4725   0.628   2.912   9.105  1.0517  3.1912 -1.8175
   35POPC  H18S 4726   0.517   2.989   9.001  3.7023  0.5589 -0.0728
   35POPC  H18T 4727   0.543   2.814   8.971  0.2584  0.3102  0.7626
   35POPC   C33 4728   0.588   3.278  10.346 -0.2499 -0.4479  0.0358
   35POPC   H3X 4729   0.508   3.216  10.392 -1.3630  0.8697 -0.0598
   35POPC   H3Y 4730   0.685   3.228  10.362  2.1949  3.0682 -2.4069
   35POPC   C34 4731   0.552   3.279  10.200  0.3382 -1.1873 -0.3536
   35POPC   H4X 4732   0.563   3.176  10.161  0.0238 -1.2827 -0.1876
   35POPC   H4Y 4733   0.636   3.331  10.149  0.3346 -1.4336 -0.6110
   35POPC   C35 4734   0.418   3.336  10.161 -0.8208  0.4205 -0.1982
   35POPC   H5X 4735   0.414   3.446  10.173 -2.3481  0.5912 -1.8155
   35POPC   H5Y 4736   0.340   3.295  10.230 -0.4421 -1.7175 -0.9738
   35POPC   C36 4737   0.368   3.317  10.014 -0.2355  0.3390  0.0040
   35POPC   H6X 4738   0.261   3.343  10.009 -1.1099 -2.7066  0.7208
   35POPC   H6Y 4739   0.351   3.209   9.991  1.3619 -0.0243  0.3792
   35POPC   C37 4740   0.441   3.386   9.899 -0.2855  0.3921  0.7758
   35POPC   H7X 4741   0.550   3.369   9.909 -0.6609 -1.6505  1.8464
   35POPC   H7Y 4742   0.414   3.494   9.901  0.0749  0.5944 -1.7359
   35POPC   C38 4743   0.403   3.335   9.758 -0.2337  1.0159  0.5501
   35POPC   H8X 4744   0.298   3.351   9.727 -0.6167 -0.0063  1.2591
   35POPC   H8Y 4745   0.412   3.226   9.778 -0.4570  1.3637  2.7808
   35POPC   C39 4746   0.497   3.391   9.649  0.5241  0.7157  1.2549
   35POPC   H9X 4747   0.607   3.388   9.663  1.3154  4.1573 -2.4919
   35POPC   H9Y 4748   0.470   3.499   9.643 -1.2847  0.2252 -0.4779
   35POPC  C310 4749   0.468   3.342   9.507  0.1151 -0.8822 -0.1172
   35POPC  H10X 4750   0.368   3.362   9.463  0.5283  1.7217 -0.0508
   35POPC  H10Y 4751   0.471   3.232   9.518 -0.2293 -0.7605  1.5810
   35POPC  C311 4752   0.575   3.388   9.413 -0.1984 -0.2772 -0.2127
   35POPC  H11X 4753   0.657   3.322   9.448 -0.1829 -0.7863 -1.1735
   35POPC  H11Y 4754   0.609   3.492   9.428  0.9346 -0.7034  0.2830
   35POPC  C312 4755   0.546   3.353   9.263  0.5765 -0.1712 -0.0860
   35POPC  H12X 4756   0.449   3.391   9.225  0.9350  0.7538 -0.0832
   35POPC  H12Y 4757   0.543   3.242   9.258  0.6508 -0.2796  1.5191
   35POPC  C313 4758   0.658   3.395   9.158 -0.2284 -0.2959  0.1597
   35POPC  H13X 4759   0.754   3.370   9.208  0.0159  1.2905  0.5362
   35POPC  H13Y 4760   0.666   3.504   9.138 -2.0448 -0.3889 -1.3304
   35POPC  C314 4761   0.639   3.324   9.025  0.3751 -0.4852 -0.4704
   35POPC  H14X 4762   0.531   3.327   8.999  0.6241 -0.6282 -1.5761
   35POPC  H14Y 4763   0.656   3.215   9.037 -0.4648 -0.6495 -0.7179
   35POPC  C315 4764   0.707   3.380   8.903  0.0865  0.5624 -0.9566
   35POPC  H15X 4765   0.813   3.389   8.934 -0.5653 -1.6771  2.3571
   35POPC  H15Y 4766   0.671   3.481   8.873 -3.3837  0.3379  1.8478
   35POPC  C316 4767   0.696   3.293   8.785 -0.5815  0.3940  0.0688
   35POPC  H16X 4768   0.730   3.189   8.807  1.1060  0.6409 -1.1102
   35POPC  H16Y 4769   0.769   3.323   8.706  0.4050 -1.0787  0.3789
   35POPC  H16Z 4770   0.595   3.285   8.741 -0.1990  1.6644 -1.1087
   36POPC     N 4771   0.108   5.592  10.951 -0.1219  0.1973 -0.2044
   36POPC   C12 4772   0.247   5.542  10.971 -0.3683 -0.0302  0.3973
   36POPC  H12A 4773   0.283   5.576  11.067  3.1537 -2.6753  0.2457
   36POPC  H12B 4774   0.315   5.583  10.897 -1.1509  0.7960  0.1124
   36POPC   C13 4775   0.008   5.509  11.028 -0.0193 -0.2839 -0.1360
   36POPC  H13A 4776   0.006   5.406  10.995  0.2257 -0.3096 -0.0763
   36POPC  H13B 4777   0.033   5.497  11.132 -3.0318 -0.4342  0.6499
   36POPC  H13C 4778  -0.086   5.560  11.018  1.4362  2.4264 -0.7785
   36POPC   C14 4779   0.098   5.733  10.994  0.1830 -0.3043 -0.0611
   36POPC  H14A 4780   0.117   5.739  11.100 -0.6043  0.7191  0.0311
   36POPC  H14B 4781   0.175   5.797  10.954 -1.0522  0.1492 -1.8412
   36POPC  H14C 4782   0.007   5.781  10.962 -0.5358 -0.9662  0.9159
   36POPC   C15 4783   0.058   5.580  10.807  0.1339 -0.8940 -0.3128
   36POPC  H15A 4784   0.040   5.476  10.783 -2.3393  0.0746 -3.4824
   36POPC  H15B 4785   0.127   5.621  10.735 -0.1539  2.7612  1.3104
   36POPC  H15C 4786  -0.036   5.634  10.804  1.1278  0.9140 -0.4243
   36POPC   C11 4787   0.267   5.386  10.974  0.1855 -0.0226  0.2974
   36POPC  H11A 4788   0.194   5.355  11.052  0.4210 -0.0329  0.5166
   36POPC  H11B 4789   0.371   5.370  11.010  0.1997 -0.9441 -0.1355
   36POPC     P 4790   0.340   5.339  10.720 -0.2406 -0.0076 -0.1267
   36POPC   O13 4791   0.393   5.209  10.685 -0.1209  0.4853  0.2746
   36POPC   O14 4792   0.447   5.438  10.748 -0.3044  0.1560  0.0686
   36POPC   O12 4793   0.244   5.328  10.845  0.4750 -0.1147 -0.1273
   36POPC   O11 4794   0.250   5.399  10.603  0.0462  0.1618  0.0414
   36POPC    C1 4795   0.143   5.320  10.559  1.3016 -0.2307 -0.1837
   36POPC    HA 4796   0.064   5.387  10.520 -0.4542 -0.4321  2.6942
   36POPC    HB 4797   0.097   5.260  10.641  0.8524  1.2522  0.6872
   36POPC    C2 4798   0.190   5.222  10.441 -0.1837  0.3511 -0.1257
   36POPC    HS 4799   0.249   5.149  10.500 -1.1777  1.1900  2.0320
   36POPC   O21 4800   0.269   5.297  10.343 -0.1864 -0.5681 -0.1471
   36POPC   C21 4801   0.356   5.227  10.278 -0.2005  0.5233  0.1099
   36POPC   O22 4802   0.385   5.109  10.303 -0.2746  0.1738  0.1684
   36POPC   C22 4803   0.419   5.301  10.158 -0.2486 -0.0733 -0.1565
   36POPC   H2R 4804   0.463   5.396  10.196  0.7268 -1.0286  1.1815
   36POPC   H2S 4805   0.346   5.313  10.075  0.9335 -0.8265 -1.3229
   36POPC    C3 4806   0.061   5.153  10.371 -0.0079 -0.3819 -0.1617
   36POPC    HX 4807   0.001   5.095  10.445  0.6882 -1.1500 -0.1853
   36POPC    HY 4808   0.109   5.082  10.299  2.0140  1.0357 -0.2837
   36POPC   O31 4809  -0.025   5.264  10.311  0.1448 -0.0704 -0.2559
   36POPC   C31 4810   0.001   5.276  10.186 -0.0723 -0.2943  0.0070
   36POPC   O32 4811   0.097   5.228  10.125 -0.8599  0.5016  0.9769
   36POPC   C32 4812  -0.113   5.352  10.116  0.6643 -0.3373 -0.2489
   36POPC   H2X 4813  -0.083   5.457  10.139  1.5300 -0.5767 -0.2436
   36POPC   H2Y 4814  -0.209   5.335  10.169  1.0182 -0.1044  0.4847
   36POPC   C23 4815   0.539   5.221  10.100 -0.1023  0.0995 -0.3919
   36POPC   H3R 4816   0.494   5.131  10.053 -3.8784  1.4804  0.2833
   36POPC   H3S 4817   0.606   5.187  10.183 -0.4061 -0.0069 -0.1917
   36POPC   C24 4818   0.615   5.300   9.997  0.3418 -0.4149  0.7487
   36POPC   H4R 4819   0.677   5.384  10.034 -0.3029 -0.1425  1.2308
   36POPC   H4S 4820   0.540   5.355   9.936  0.0851 -1.9900 -0.4353
   36POPC   C25 4821   0.713   5.233   9.903  0.5106  0.2429 -0.5428
   36POPC   H5R 4822   0.752   5.143   9.955 -0.6644 -0.3063 -0.5930
   36POPC   H5S 4823   0.801   5.298   9.882 -0.4384  1.8658  0.3203
   36POPC   C26 4824   0.655   5.205   9.764  0.0330 -0.1022  0.5623
   36POPC   H6R 4825   0.658   5.301   9.708 -1.1703 -0.7795 -0.7015
   36POPC   H6S 4826   0.553   5.163   9.771  0.6600 -1.4361  2.5884
   36POPC   C27 4827   0.747   5.108   9.687  0.2029  0.6754 -0.0835
   36POPC   H7R 4828   0.752   5.017   9.751 -0.4209  0.4069 -0.4093
   36POPC   H7S 4829   0.851   5.144   9.677 -0.0051  2.6723  3.5073
   36POPC   C28 4830   0.684   5.058   9.554  0.4182  0.4922 -0.0405
   36POPC   H8R 4831   0.573   5.063   9.555  0.2441 -1.4134 -2.3075
   36POPC   H8S 4832   0.722   4.955   9.538  0.7438  0.6949 -0.6007
   36POPC   C29 4833   0.727   5.132   9.425  0.6694  0.0439 -0.6206
   36POPC   H91 4834   0.833   5.159   9.431  0.2692  1.6995 -0.5467
   36POPC  C210 4835   0.652   5.165   9.310 -0.2768 -0.3154 -0.2365
   36POPC  H101 4836   0.704   5.211   9.224 -2.3555  0.8239 -0.9399
   36POPC  C211 4837   0.509   5.137   9.283  0.0897 -0.1077 -0.4192
   36POPC  H11R 4838   0.492   5.206   9.198  0.6524 -0.9515 -1.2333
   36POPC  H11S 4839   0.448   5.180   9.365  1.0590 -0.3335  0.4501
   36POPC  C212 4840   0.478   4.986   9.257 -0.0755  0.2064 -0.5788
   36POPC  H12R 4841   0.368   4.971   9.249 -0.4398  2.6923 -0.8025
   36POPC  H12S 4842   0.515   4.921   9.340 -0.0622  0.2963 -0.5152
   36POPC  C213 4843   0.544   4.941   9.125  0.2808  0.3989 -0.2320
   36POPC  H13R 4844   0.506   4.839   9.104 -3.6504  1.0653  2.6659
   36POPC  H13S 4845   0.654   4.926   9.137 -0.0196 -1.0039  0.9842
   36POPC  C214 4846   0.514   5.025   9.005  0.7871  0.2382 -0.0344
   36POPC  H14R 4847   0.581   5.112   8.992  2.3985 -0.9075  0.3791
   36POPC  H14S 4848   0.414   5.067   9.029  0.1482 -0.4877 -1.2972
   36POPC  C215 4849   0.498   4.947   8.872  0.2018 -0.0489 -0.0457
   36POPC  H15R 4850   0.434   4.858   8.888 -1.7107  0.3998 -4.0093
   36POPC  H15S 4851   0.602   4.914   8.848 -0.9652 -2.0775 -2.8969
   36POPC  C216 4852   0.416   5.021   8.763  0.8749 -0.0215  0.1884
   36POPC  H16R 4853   0.308   5.019   8.790  0.8502  0.2966  0.1205
   36POPC  H16S 4854   0.432   4.964   8.669  3.2184 -0.4655  0.8091
   36POPC  C217 4855   0.456   5.172   8.739  0.5990 -0.0762  0.4317
   36POPC  H17R 4856   0.566   5.187   8.738  0.4650  0.9403 -0.0172
   36POPC  H17S 4857   0.427   5.232   8.828  0.2416  0.3500  0.0295
   36POPC  C218 4858   0.420   5.230   8.607  0.3886  0.4249 -0.1659
   36POPC  H18R 4859   0.491   5.309   8.573  1.2849 -0.1240  0.3819
   36POPC  H18S 4860   0.313   5.261   8.604 -0.2040 -1.4307  0.6406
   36POPC  H18T 4861   0.424   5.147   8.535  1.8862  0.1227  0.2308
   36POPC   C33 4862  -0.121   5.331   9.967  0.5225 -0.2236 -0.1986
   36POPC   H3X 4863  -0.029   5.303   9.912  0.1580 -2.2862  0.1419
   36POPC   H3Y 4864  -0.170   5.421   9.924 -1.7876 -0.3012  2.0457
   36POPC   C34 4865  -0.226   5.220   9.920 -0.4592  0.0542 -0.5246
   36POPC   H4X 4866  -0.332   5.253   9.911 -1.1196 -1.7159  0.2958
   36POPC   H4Y 4867  -0.237   5.141   9.997  3.3512 -0.6638 -0.5474
   36POPC   C35 4868  -0.198   5.158   9.775 -0.2095  0.3361 -0.4448
   36POPC   H5X 4869  -0.272   5.076   9.764  1.0136 -0.7877 -0.6666
   36POPC   H5Y 4870  -0.099   5.107   9.789  1.0362  2.3293 -1.5359
   36POPC   C36 4871  -0.215   5.255   9.668 -0.3943  0.0940 -0.2527
   36POPC   H6X 4872  -0.127   5.321   9.653 -2.0376  2.7563  1.2175
   36POPC   H6Y 4873  -0.296   5.319   9.708  0.4956  0.2126  1.4360
   36POPC   C37 4874  -0.255   5.206   9.529  0.1452 -0.3646  0.6367
   36POPC   H7X 4875  -0.342   5.137   9.540 -0.6010  0.6909  1.5305
   36POPC   H7Y 4876  -0.178   5.144   9.480 -3.2547 -1.7097 -3.6368
   36POPC   C38 4877  -0.295   5.316   9.432  0.7285 -0.7998 -0.0629
   36POPC   H8X 4878  -0.211   5.389   9.441  1.4968 -1.4700 -1.5119
   36POPC   H8Y 4879  -0.377   5.385   9.462  1.6865  0.8084 -0.9816
   36POPC   C39 4880  -0.331   5.262   9.290  0.0245 -0.1814  0.1465
   36POPC   H9X 4881  -0.426   5.206   9.302 -0.3564 -0.0224 -1.7667
   36POPC   H9Y 4882  -0.249   5.199   9.251 -1.5708 -2.8995  0.9549
   36POPC  C310 4883  -0.350   5.371   9.184  0.8462  0.2075  0.2158
   36POPC  H10X 4884  -0.256   5.424   9.156  1.2807 -0.7006 -0.0891
   36POPC  H10Y 4885  -0.415   5.454   9.220 -0.3776 -1.1577  1.2556
   36POPC  C311 4886  -0.400   5.315   9.058  0.2087  0.6046 -0.1893
   36POPC  H11X 4887  -0.498   5.263   9.064  1.0473 -0.8706  1.6435
   36POPC  H11Y 4888  -0.328   5.237   9.024 -0.2407  0.7143 -1.4544
   36POPC  C312 4889  -0.413   5.416   8.944 -0.2219 -0.7248  0.0795
   36POPC  H12X 4890  -0.318   5.473   8.931  0.0326 -1.1458  0.0673
   36POPC  H12Y 4891  -0.482   5.489   8.992  1.3867 -0.7349  2.6111
   36POPC  C313 4892  -0.466   5.363   8.809  0.4449 -0.1568  0.3753
   36POPC  H13X 4893  -0.561   5.312   8.837  1.0711 -0.8850  1.2533
   36POPC  H13Y 4894  -0.396   5.287   8.768  0.3842 -0.5802  1.0391
   36POPC  C314 4895  -0.496   5.476   8.709  0.6034 -0.0322 -0.4032
   36POPC  H14X 4896  -0.509   5.441   8.605 -0.2911 -1.3092  0.1150
   36POPC  H14Y 4897  -0.407   5.543   8.717  1.1060 -0.7900  0.6924
   36POPC  C315 4898  -0.625   5.563   8.755 -0.1169 -1.0854 -0.4916
   36POPC  H15X 4899  -0.621   5.667   8.717  0.0817  0.6313  3.7311
   36POPC  H15Y 4900  -0.616   5.584   8.863 -0.2841  0.9426 -0.8336
   36POPC  C316 4901  -0.766   5.522   8.725  0.5149  0.4360 -0.1556
   36POPC  H16X 4902  -0.793   5.419   8.757  0.3044  1.2535  2.5474
   36POPC  H16Y 4903  -0.784   5.515   8.615 -2.5102 -0.7988  0.3305
   36POPC  H16Z 4904  -0.831   5.599   8.771  0.0975  0.8613 -1.3930
   37POPC     N 4905   0.235   3.811   6.381  0.4108 -0.0714  0.3183
   37POPC   C12 4906   0.206   3.872   6.517  0.4827  0.2737 -0.9455
   37POPC  H12A 4907   0.207   3.784   6.580  0.6047  0.7502 -0.2700
   37POPC  H12B 4908   0.102   3.901   6.515 -0.1171 -1.7197 -0.9866
   37POPC   C13 4909   0.113   3.734   6.338 -0.0498 -0.1784 -0.4080
   37POPC  H13A 4910   0.095   3.655   6.409 -0.9115 -0.5133 -0.9828
   37POPC  H13B 4911   0.027   3.800   6.346 -0.9543 -1.1158 -1.9400
   37POPC  H13C 4912   0.121   3.702   6.235 -0.5445 -0.8989 -0.2316
   37POPC   C14 4913   0.251   3.919   6.278 -0.2611  0.7858  0.3464
   37POPC  H14A 4914   0.170   3.990   6.276 -0.8503  0.2653  2.8106
   37POPC  H14B 4915   0.335   3.978   6.314 -0.0521  0.8320 -0.2048
   37POPC  H14C 4916   0.271   3.881   6.179 -0.3814 -0.8238  0.9227
   37POPC   C15 4917   0.359   3.732   6.381 -0.8380 -0.0696 -0.5716
   37POPC  H15A 4918   0.443   3.794   6.410 -2.1117  0.5528  2.1094
   37POPC  H15B 4919   0.387   3.686   6.287 -0.1171 -0.3744 -0.2205
   37POPC  H15C 4920   0.356   3.648   6.448  1.7297  0.1012 -0.1274
   37POPC   C11 4921   0.286   3.983   6.579 -0.2898 -0.8853  0.0583
   37POPC  H11A 4922   0.268   3.986   6.689  0.2400 -0.6044  0.1383
   37POPC  H11B 4923   0.255   4.078   6.530  3.7491  0.3845 -0.3927
   37POPC     P 4924   0.532   4.075   6.569 -0.3491  0.2146  0.0063
   37POPC   O13 4925   0.503   4.170   6.463  0.6079 -0.6114  0.0212
   37POPC   O14 4926   0.669   4.011   6.567 -0.6199  0.7701 -0.0954
   37POPC   O12 4927   0.421   3.965   6.566 -0.3216  0.2044 -0.3458
   37POPC   O11 4928   0.511   4.142   6.706  0.0696 -0.5261 -0.5226
   37POPC    C1 4929   0.441   4.267   6.713 -0.1158 -0.2136 -0.1813
   37POPC    HA 4930   0.337   4.268   6.675 -0.3137 -0.4249  0.3420
   37POPC    HB 4931   0.497   4.355   6.676 -0.3615 -0.2498 -0.6352
   37POPC    C2 4932   0.411   4.274   6.870 -0.6959  0.7807 -0.3297
   37POPC    HS 4933   0.507   4.269   6.926 -1.0774 -0.9278  0.1995
   37POPC   O21 4934   0.318   4.169   6.908 -0.8086 -0.4634 -0.3895
   37POPC   C21 4935   0.375   4.067   6.954  0.0181 -0.2066 -0.9415
   37POPC   O22 4936   0.492   4.047   6.987  0.3399 -0.1202  0.5203
   37POPC   C22 4937   0.257   3.969   6.991 -1.1631  0.7365  0.1411
   37POPC   H2R 4938   0.219   3.922   6.898  0.7342 -2.6952  0.9261
   37POPC   H2S 4939   0.177   4.023   7.045 -3.4075  0.7053 -2.8852
   37POPC    C3 4940   0.350   4.411   6.908  0.6917  0.1607 -0.5506
   37POPC    HX 4941   0.251   4.430   6.862 -0.5099 -1.8193  1.0254
   37POPC    HY 4942   0.422   4.487   6.871  1.6377 -0.2486  0.3978
   37POPC   O31 4943   0.340   4.428   7.056  0.0648 -0.0715 -0.0543
   37POPC   C31 4944   0.227   4.388   7.115 -0.2869 -0.3731  0.3715
   37POPC   O32 4945   0.133   4.337   7.060 -0.0787 -0.4413  0.4103
   37POPC   C32 4946   0.237   4.430   7.258 -0.6449  0.1559  0.0155
   37POPC   H2X 4947   0.202   4.535   7.264 -0.2852  0.2090  1.6610
   37POPC   H2Y 4948   0.343   4.419   7.289 -0.8438 -1.4289  0.2210
   37POPC   C23 4949   0.306   3.855   7.085 -0.0362  0.2486 -0.3016
   37POPC   H3R 4950   0.397   3.811   7.039 -0.6843 -0.7672 -0.6495
   37POPC   H3S 4951   0.228   3.775   7.087 -0.7870  0.9210 -1.4296
   37POPC   C24 4952   0.337   3.899   7.231 -0.7105 -0.3317  0.4436
   37POPC   H4R 4953   0.404   3.988   7.228 -0.4051 -0.3574  3.3939
   37POPC   H4S 4954   0.404   3.825   7.280 -3.1719 -1.8788  1.6305
   37POPC   C25 4955   0.208   3.914   7.323  0.9668  0.3798 -0.8398
   37POPC   H5R 4956   0.137   3.833   7.298  0.1764  0.3889  1.1402
   37POPC   H5S 4957   0.164   4.015   7.309  0.4468  0.0833 -1.4052
   37POPC   C26 4958   0.218   3.885   7.475 -0.3044 -0.0032  0.8490
   37POPC   H6R 4959   0.233   3.777   7.498 -3.3181 -0.8709 -0.6994
   37POPC   H6S 4960   0.121   3.903   7.527  0.3164 -0.7255  2.3304
   37POPC   C27 4961   0.327   3.972   7.539  0.2013 -0.2633  0.6888
   37POPC   H7R 4962   0.280   4.065   7.500 -2.0052 -2.2459 -1.7410
   37POPC   H7S 4963   0.426   3.958   7.492  0.4169  1.5567  0.5151
   37POPC   C28 4964   0.327   3.973   7.695  0.3687  0.1780  0.2799
   37POPC   H8R 4965   0.384   4.063   7.726  0.5834  0.3502 -0.5912
   37POPC   H8S 4966   0.372   3.877   7.729  0.1999 -0.6821 -1.7952
   37POPC   C29 4967   0.192   3.969   7.758 -0.0997  0.5005 -0.7058
   37POPC   H91 4968   0.109   4.014   7.702  0.0638  1.5479 -0.1205
   37POPC  C210 4969   0.169   3.949   7.892  0.0391  0.4466 -0.0678
   37POPC  H101 4970   0.065   3.943   7.927 -0.0155 -1.2831 -0.4278
   37POPC  C211 4971   0.268   3.911   8.000 -0.1887  1.2433  0.7875
   37POPC  H11R 4972   0.372   3.912   7.963 -0.7287  0.2320 -0.8692
   37POPC  H11S 4973   0.247   3.806   8.031  1.6678 -0.2558 -2.4847
   37POPC  C212 4974   0.254   3.998   8.124 -0.0057  0.2420 -0.0596
   37POPC  H12R 4975   0.277   4.106   8.107  3.5909 -0.3211  0.3559
   37POPC  H12S 4976   0.327   3.961   8.199 -0.6386 -2.1692 -0.5655
   37POPC  C213 4977   0.110   3.993   8.192  0.5515 -0.2160 -0.5111
   37POPC  H13R 4978   0.088   3.888   8.222  0.0928 -0.2902 -1.0933
   37POPC  H13S 4979   0.031   4.030   8.123 -1.2087  0.1441  1.6048
   37POPC  C214 4980   0.107   4.068   8.323 -0.1980  0.0420 -0.2316
   37POPC  H14R 4981   0.144   4.171   8.304 -0.3540  0.5410  1.8957
   37POPC  H14S 4982   0.166   4.028   8.408 -1.8439  2.5660  2.2887
   37POPC  C215 4983  -0.037   4.062   8.381  0.0412 -0.4247 -0.4403
   37POPC  H15R 4984  -0.070   3.956   8.393 -2.1810  0.0995 -1.4047
   37POPC  H15S 4985  -0.101   4.106   8.302 -1.0464 -2.1741 -0.5939
   37POPC  C216 4986  -0.049   4.141   8.515 -0.5163  0.0119  0.0116
   37POPC  H16R 4987  -0.036   4.251   8.502 -0.0817  0.6347  4.2784
   37POPC  H16S 4988   0.031   4.105   8.583  0.5651 -0.0157 -1.2449
   37POPC  C217 4989  -0.185   4.126   8.582 -0.4036  0.5281  0.1354
   37POPC  H17R 4990  -0.196   4.022   8.621  0.1260  1.5832  3.3921
   37POPC  H17S 4991  -0.275   4.147   8.519 -0.2948  1.5718  0.3143
   37POPC  C218 4992  -0.204   4.208   8.704 -0.0034  0.0244  0.2341
   37POPC  H18R 4993  -0.126   4.192   8.782  0.2958 -0.7951 -0.2202
   37POPC  H18S 4994  -0.306   4.185   8.742  0.3867 -0.7280  0.8449
   37POPC  H18T 4995  -0.200   4.316   8.676 -1.1304  0.5933  2.0835
   37POPC   C33 4996   0.144   4.350   7.357  0.6207  0.0816 -0.7855
   37POPC   H3X 4997   0.172   4.243   7.369  2.6378  0.6475  0.0579
   37POPC   H3Y 4998   0.040   4.369   7.323 -1.1278 -0.9694  3.3137
   37POPC   C34 4999   0.157   4.418   7.495  0.7625 -0.0189 -0.0758
   37POPC   H4X 5000   0.143   4.528   7.495  2.3387  0.2009 -0.2881
   37POPC   H4Y 5001   0.260   4.410   7.535  1.4472  0.0370 -1.7485
   37POPC   C35 5002   0.059   4.351   7.595 -0.6246  0.1464  0.1552
   37POPC   H5X 5003   0.074   4.242   7.605 -0.7454  0.1253  0.1087
   37POPC   H5Y 5004  -0.045   4.364   7.558 -1.1547 -2.2787  0.6590
   37POPC   C36 5005   0.090   4.409   7.737 -0.1947  0.3774  0.3584
   37POPC   H6X 5006   0.068   4.517   7.749  2.3357  0.9154  0.8679
   37POPC   H6Y 5007   0.201   4.399   7.741  0.0321  1.4500 -1.7486
   37POPC   C37 5008   0.023   4.333   7.849  0.1507  0.5361 -0.7810
   37POPC   H7X 5009   0.080   4.240   7.870  0.4693  1.0317  0.6410
   37POPC   H7Y 5010  -0.081   4.303   7.826  0.1564 -0.6912  0.6695
   37POPC   C38 5011   0.019   4.409   7.981  0.9405 -0.2763  0.1932
   37POPC   H8X 5012  -0.044   4.496   7.952  0.7114 -0.8032 -0.9225
   37POPC   H8Y 5013   0.120   4.444   8.011  1.1346 -0.4073 -0.3063
   37POPC   C39 5014  -0.069   4.333   8.080 -0.5213  0.4869 -0.1137
   37POPC   H9X 5015  -0.004   4.247   8.107 -0.4916  0.7925  0.8384
   37POPC   H9Y 5016  -0.163   4.298   8.033  0.3992 -1.3917 -0.6336
   37POPC  C310 5017  -0.105   4.412   8.213 -0.7275  0.3024  0.6988
   37POPC  H10X 5018  -0.014   4.450   8.265 -1.9730  2.1796  1.6036
   37POPC  H10Y 5019  -0.141   4.343   8.291  0.3440 -1.4325 -0.2797
   37POPC  C311 5020  -0.199   4.523   8.176 -0.1530  0.3480 -0.5369
   37POPC  H11X 5021  -0.280   4.487   8.109  1.0645 -0.9634 -1.3694
   37POPC  H11Y 5022  -0.148   4.610   8.130 -0.4178 -0.0950 -1.7123
   37POPC  C312 5023  -0.259   4.583   8.302 -0.3360  0.8337 -0.7419
   37POPC  H12X 5024  -0.181   4.617   8.373 -1.7966 -0.6523  1.7094
   37POPC  H12Y 5025  -0.313   4.502   8.355 -0.8348  1.8901  0.4324
   37POPC  C313 5026  -0.358   4.692   8.266 -1.3802  0.1567  0.2664
   37POPC  H13X 5027  -0.427   4.642   8.194  0.2710 -2.1452  0.1843
   37POPC  H13Y 5028  -0.293   4.760   8.207  1.2688 -0.4944  2.2855
   37POPC  C314 5029  -0.427   4.755   8.391 -0.0732  0.2131  0.0078
   37POPC  H14X 5030  -0.455   4.670   8.456  0.5026 -1.6261 -2.0483
   37POPC  H14Y 5031  -0.517   4.808   8.354 -0.5373 -1.4020 -1.2701
   37POPC  C315 5032  -0.344   4.854   8.453  0.2207  0.4836 -0.7128
   37POPC  H15X 5033  -0.279   4.900   8.376  0.1451  2.2389  0.2307
   37POPC  H15Y 5034  -0.277   4.793   8.517 -1.9862  0.3518  1.6410
   37POPC  C316 5035  -0.417   4.965   8.524  1.2615  0.8392 -0.0776
   37POPC  H16X 5036  -0.355   5.018   8.600  0.3364  0.1550  1.2017
   37POPC  H16Y 5037  -0.502   4.915   8.575  1.5297  0.3301 -0.1259
   37POPC  H16Z 5038  -0.466   5.025   8.444 -0.6105 -0.6139 -0.0935
   38POPC     N 5039   1.735   0.675   5.795 -0.1429  0.4768 -0.0374
   38POPC   C12 5040   1.766   0.745   5.924 -0.1085  0.3565  0.2143
   38POPC  H12A 5041   1.771   0.852   5.916  0.3996  0.6206  2.9842
   38POPC  H12B 5042   1.863   0.707   5.953  0.2390 -0.6267 -2.0166
   38POPC   C13 5043   1.838   0.714   5.686 -1.2682 -0.1814  0.3594
   38POPC  H13A 5044   1.819   0.687   5.583 -1.0453  3.2413 -0.7175
   38POPC  H13B 5045   1.847   0.822   5.685  1.0713 -0.3083  1.4103
   38POPC  H13C 5046   1.935   0.681   5.719 -0.1862  2.5366  0.2367
   38POPC   C14 5047   1.743   0.525   5.815 -0.0409 -0.2282 -0.1061
   38POPC  H14A 5048   1.733   0.478   5.718 -0.7151 -1.9239  0.7463
   38POPC  H14B 5049   1.835   0.489   5.858  1.3051  2.3795 -0.6038
   38POPC  H14C 5050   1.660   0.484   5.870  0.9960 -0.5684  1.2564
   38POPC   C15 5051   1.598   0.709   5.742  0.2761 -0.8250 -0.2601
   38POPC  H15A 5052   1.581   0.814   5.725 -1.7609 -1.2593 -1.2908
   38POPC  H15B 5053   1.524   0.691   5.819  2.9973  0.3439  2.8879
   38POPC  H15C 5054   1.568   0.659   5.651 -0.2225  0.9070 -1.0813
   38POPC   C11 5055   1.657   0.720   6.036 -0.2705  0.0634  0.8971
   38POPC  H11A 5056   1.562   0.747   5.986  0.0550  1.1359  0.8397
   38POPC  H11B 5057   1.679   0.786   6.122 -1.8148  0.1613  1.2326
   38POPC     P 5058   1.738   0.527   6.212 -0.1819  0.3046  0.2174
   38POPC   O13 5059   1.883   0.550   6.210 -0.4360 -0.3691  0.7853
   38POPC   O14 5060   1.696   0.386   6.223 -0.0572  0.0558 -0.0120
   38POPC   O12 5061   1.667   0.581   6.085  0.1731 -0.2096  0.3542
   38POPC   O11 5062   1.688   0.610   6.336 -0.2537  0.0437  0.1488
   38POPC    C1 5063   1.548   0.647   6.345 -0.0011  0.4970  0.5562
   38POPC    HA 5064   1.484   0.590   6.274 -0.7372  1.1639  0.6735
   38POPC    HB 5065   1.531   0.755   6.326 -1.6485  0.3845  1.2068
   38POPC    C2 5066   1.498   0.617   6.482  0.6451  0.3427  0.0972
   38POPC    HS 5067   1.389   0.620   6.465  0.8113  1.9762 -0.9816
   38POPC   O21 5068   1.537   0.726   6.570  1.2409 -0.8745  0.3105
   38POPC   C21 5069   1.465   0.726   6.683  0.0668 -0.4253 -0.6900
   38POPC   O22 5070   1.374   0.648   6.705 -0.2099 -0.0974  0.5776
   38POPC   C22 5071   1.518   0.825   6.777 -0.7018 -0.2058 -1.3481
   38POPC   H2R 5072   1.436   0.860   6.843  1.2236  0.5812  0.7455
   38POPC   H2S 5073   1.564   0.916   6.734 -1.7353  1.3316  0.6216
   38POPC    C3 5074   1.549   0.473   6.523  0.9990  0.1431 -0.8996
   38POPC    HX 5075   1.647   0.489   6.573  1.2955  1.6132 -1.8930
   38POPC    HY 5076   1.561   0.414   6.430 -1.9176 -0.6891 -0.8698
   38POPC   O31 5077   1.447   0.406   6.604 -0.1998  0.1446 -0.0558
   38POPC   C31 5078   1.497   0.293   6.665 -0.5496  0.0445 -0.6861
   38POPC   O32 5079   1.616   0.262   6.664 -0.6557  0.2622 -0.3374
   38POPC   C32 5080   1.377   0.225   6.727  0.2777  0.1471  0.0240
   38POPC   H2X 5081   1.412   0.122   6.749 -1.8380 -1.4793 -3.4876
   38POPC   H2Y 5082   1.294   0.218   6.653  0.4601 -0.0404 -0.1610
   38POPC   C23 5083   1.632   0.759   6.861 -0.0013  0.3393 -0.2094
   38POPC   H3R 5084   1.682   0.847   6.906  1.1113  0.4491 -1.5949
   38POPC   H3S 5085   1.701   0.705   6.793 -0.5336  0.7223 -1.0607
   38POPC   C24 5086   1.585   0.666   6.974  0.1372  0.0750 -0.0955
   38POPC   H4R 5087   1.518   0.590   6.929  0.3079 -0.1272 -0.0137
   38POPC   H4S 5088   1.529   0.724   7.051  0.6632  1.4203 -0.7113
   38POPC   C25 5089   1.712   0.614   7.043 -0.3890 -0.1385 -0.3309
   38POPC   H5R 5090   1.768   0.708   7.065 -2.1074  1.1989 -1.4551
   38POPC   H5S 5091   1.769   0.568   6.959  0.2537  2.2846 -1.3082
   38POPC   C26 5092   1.692   0.528   7.164  0.4454  0.0069  0.1626
   38POPC   H6R 5093   1.773   0.454   7.178 -0.4715 -0.9345  0.6998
   38POPC   H6S 5094   1.599   0.468   7.154 -0.3060  1.3100 -1.0881
   38POPC   C27 5095   1.664   0.606   7.300 -0.2134 -0.6892  0.3866
   38POPC   H7R 5096   1.575   0.671   7.284 -0.2101 -0.7348  0.1834
   38POPC   H7S 5097   1.738   0.686   7.321 -1.0940  0.5335 -0.9571
   38POPC   C28 5098   1.668   0.526   7.434  0.0406  0.0987  1.3298
   38POPC   H8R 5099   1.679   0.605   7.511  1.2956  1.9290 -0.6358
   38POPC   H8S 5100   1.744   0.445   7.431 -1.1769 -1.0658 -0.7646
   38POPC   C29 5101   1.535   0.458   7.451 -0.5048  0.3369 -0.1693
   38POPC   H91 5102   1.505   0.416   7.354  0.6215  1.6980 -1.1488
   38POPC  C210 5103   1.471   0.436   7.567 -0.3106  0.2110 -0.2665
   38POPC  H101 5104   1.374   0.384   7.567 -0.9094  1.2571 -2.1292
   38POPC  C211 5105   1.530   0.478   7.700 -0.0261 -0.3622  0.0539
   38POPC  H11R 5106   1.447   0.485   7.773 -0.0566 -1.0981  0.0958
   38POPC  H11S 5107   1.591   0.570   7.690 -0.9944  0.4136  1.1007
   38POPC  C212 5108   1.630   0.384   7.760 -0.5061 -0.1036  0.0223
   38POPC  H12R 5109   1.714   0.379   7.687 -0.2289  0.2999  0.3131
   38POPC  H12S 5110   1.598   0.279   7.775  2.0529 -0.8929  0.4936
   38POPC  C213 5111   1.669   0.438   7.899 -0.0373  0.2044  0.2806
   38POPC  H13R 5112   1.577   0.449   7.960 -0.5062  2.0734 -0.6966
   38POPC  H13S 5113   1.697   0.545   7.894 -2.0636  0.7324 -0.7740
   38POPC  C214 5114   1.769   0.352   7.968  0.0344 -0.3570 -0.3601
   38POPC  H14R 5115   1.868   0.353   7.917  0.8630 -1.8335  1.1440
   38POPC  H14S 5116   1.738   0.246   7.956  1.4438 -0.6862 -1.3076
   38POPC  C215 5117   1.782   0.381   8.114 -0.0295 -0.2947  1.3417
   38POPC  H15R 5118   1.693   0.346   8.171  0.6536  0.1898  2.7548
   38POPC  H15S 5119   1.792   0.491   8.125  1.1317 -0.5325  3.0855
   38POPC  C216 5120   1.904   0.314   8.174  0.3358  0.1476 -0.7722
   38POPC  H16R 5121   1.953   0.375   8.252  1.3721 -3.2905  1.4770
   38POPC  H16S 5122   1.986   0.294   8.102 -0.1088 -0.5542 -1.0922
   38POPC  C217 5123   1.883   0.178   8.250 -0.1414 -0.3606  0.3379
   38POPC  H17R 5124   1.849   0.093   8.187 -0.4753  0.2564 -0.3358
   38POPC  H17S 5125   1.802   0.196   8.324  1.3916  2.7895  1.3864
   38POPC  C218 5126   1.995   0.124   8.345 -0.2833  0.1189 -0.0902
   38POPC  H18R 5127   2.016   0.188   8.434  0.2349 -0.2716  0.0712
   38POPC  H18S 5128   2.092   0.121   8.291 -0.7274  1.2277 -1.0036
   38POPC  H18T 5129   1.971   0.024   8.386 -0.0627  0.6524  1.4244
   38POPC   C33 5130   1.335   0.306   6.857 -0.4977  0.3895 -0.9381
   38POPC   H3X 5131   1.246   0.261   6.905 -0.7737  0.6124 -1.2352
   38POPC   H3Y 5132   1.305   0.408   6.825 -0.7207  0.0153 -1.9651
   38POPC   C34 5133   1.443   0.306   6.975  0.1088 -0.3806 -0.0643
   38POPC   H4X 5134   1.401   0.372   7.054 -2.6663 -2.0561 -0.0256
   38POPC   H4Y 5135   1.546   0.330   6.940  1.0527 -2.6244  0.9640
   38POPC   C35 5136   1.457   0.167   7.042 -0.8673 -0.6983 -0.5326
   38POPC   H5X 5137   1.517   0.094   6.985 -0.5744 -1.7461  1.0410
   38POPC   H5Y 5138   1.359   0.116   7.055 -0.1279 -2.2571 -0.9785
   38POPC   C36 5139   1.521   0.193   7.182  0.2301  0.1239 -0.2602
   38POPC   H6X 5140   1.453   0.260   7.239  1.8048  0.5876  1.1475
   38POPC   H6Y 5141   1.617   0.250   7.185 -1.1845  2.6971 -0.8728
   38POPC   C37 5142   1.538   0.055   7.257 -0.6713 -1.1173 -0.5185
   38POPC   H7X 5143   1.622  -0.006   7.218  1.0467  0.2726  0.7854
   38POPC   H7Y 5144   1.437   0.009   7.248 -1.5377  0.1437  1.7746
   38POPC   C38 5145   1.579   0.075   7.406 -0.7304 -0.7454  0.0566
   38POPC   H8X 5146   1.504   0.139   7.459  0.1513  1.7488 -1.5431
   38POPC   H8Y 5147   1.666   0.144   7.410 -1.9668  1.0485 -1.9558
   38POPC   C39 5148   1.625  -0.052   7.475 -0.1966 -0.9703 -0.3438
   38POPC   H9X 5149   1.724  -0.084   7.434 -0.6116 -1.0330 -1.3444
   38POPC   H9Y 5150   1.556  -0.139   7.468 -0.7817 -0.5536  0.2115
   38POPC  C310 5151   1.648  -0.026   7.624  0.0864  0.6577 -0.2708
   38POPC  H10X 5152   1.732   0.046   7.630  1.2138 -0.3896 -2.2812
   38POPC  H10Y 5153   1.668  -0.119   7.681 -2.1999  0.5033  0.3521
   38POPC  C311 5154   1.519   0.022   7.696  0.4192 -1.0222  0.0418
   38POPC  H11X 5155   1.438  -0.045   7.662  1.0921 -1.8135 -0.0386
   38POPC  H11Y 5156   1.497   0.125   7.660  0.1058 -0.2422  2.2938
   38POPC  C312 5157   1.516   0.014   7.844 -0.1476 -0.0509 -0.2712
   38POPC  H12X 5158   1.610   0.042   7.894 -0.0885 -0.1334 -0.3363
   38POPC  H12Y 5159   1.503  -0.089   7.882  0.0271 -0.9405 -2.5013
   38POPC  C313 5160   1.406   0.097   7.912  0.5188  0.4670 -0.0803
   38POPC  H13X 5161   1.308   0.073   7.867  0.2690 -1.0072  1.1943
   38POPC  H13Y 5162   1.427   0.205   7.895  0.8287  0.4140 -0.0401
   38POPC  C314 5163   1.394   0.073   8.067  0.5192  0.2982 -0.0984
   38POPC  H14X 5164   1.491   0.088   8.119  0.1807  0.1989  0.5647
   38POPC  H14Y 5165   1.370  -0.032   8.092  1.0706  0.3366  0.6027
   38POPC  C315 5166   1.275   0.152   8.124 -0.1649 -0.3570 -0.4184
   38POPC  H15X 5167   1.262   0.134   8.233 -2.5925  1.4947 -0.3158
   38POPC  H15Y 5168   1.182   0.109   8.082 -0.4100  1.6410 -2.0753
   38POPC  C316 5169   1.296   0.305   8.100 -0.0225 -0.6486 -0.0311
   38POPC  H16X 5170   1.288   0.321   7.991  0.7800 -1.7242 -0.2670
   38POPC  H16Y 5171   1.400   0.327   8.132 -1.1579  0.1517  3.5570
   38POPC  H16Z 5172   1.221   0.368   8.153 -1.8670 -2.0202 -0.8846
   39POPC     N 5173   2.683   5.585   5.811 -0.4430  0.2350 -0.2132
   39POPC   C12 5174   2.761   5.471   5.743 -0.6447  0.0122  0.4539
   39POPC  H12A 5175   2.805   5.509   5.652  1.4176  0.8268  1.7303
   39POPC  H12B 5176   2.686   5.395   5.726 -0.6513  0.2778 -0.7728
   39POPC   C13 5177   2.602   5.544   5.937  0.1310  0.1841  0.4365
   39POPC  H13A 5178   2.532   5.467   5.907  1.3569 -0.6735 -0.3299
   39POPC  H13B 5179   2.670   5.506   6.012  0.0472 -2.2410 -0.6093
   39POPC  H13C 5180   2.541   5.623   5.978 -1.3322 -2.2334  3.3329
   39POPC   C14 5181   2.777   5.687   5.863 -0.0011 -0.6864  0.6901
   39POPC  H14A 5182   2.738   5.787   5.860 -0.4278 -0.8329  1.3159
   39POPC  H14B 5183   2.823   5.648   5.953 -1.5431 -3.4154  0.4111
   39POPC  H14C 5184   2.854   5.707   5.790 -0.1772  0.9216  0.9221
   39POPC   C15 5185   2.585   5.634   5.707  0.2801 -0.3513  0.6686
   39POPC  H15A 5186   2.632   5.668   5.617  4.5147 -0.2673  2.6600
   39POPC  H15B 5187   2.526   5.719   5.737 -0.9350 -1.1056  0.5125
   39POPC  H15C 5188   2.517   5.553   5.684  1.8434 -1.6632  0.4746
   39POPC   C11 5189   2.874   5.390   5.811  0.4529 -0.1500  0.3869
   39POPC  H11A 5190   2.965   5.453   5.802 -0.8908  1.8562  0.1324
   39POPC  H11B 5191   2.892   5.295   5.756  2.0297 -0.1764  0.8963
   39POPC     P 5192   2.935   5.376   6.067 -0.5004  0.4375 -0.1089
   39POPC   O13 5193   3.041   5.484   6.055 -0.0759  0.4635  0.8284
   39POPC   O14 5194   2.975   5.234   6.100 -0.1801 -0.2590  0.0225
   39POPC   O12 5195   2.838   5.360   5.943  0.1680 -0.0754 -0.2156
   39POPC   O11 5196   2.842   5.429   6.190 -0.4022  0.4327  0.0222
   39POPC    C1 5197   2.721   5.370   6.242  0.1464  0.3787 -0.1909
   39POPC    HA 5198   2.689   5.281   6.183 -0.8534  0.3291  0.4092
   39POPC    HB 5199   2.632   5.436   6.236 -0.5090 -0.3565  0.9441
   39POPC    C2 5200   2.732   5.322   6.396 -0.2697 -0.1462  0.8674
   39POPC    HS 5201   2.650   5.248   6.412 -2.5729  2.0187 -0.3272
   39POPC   O21 5202   2.720   5.441   6.475  0.1471  0.4752 -0.8330
   39POPC   C21 5203   2.596   5.478   6.510  0.2238  1.2497 -0.1173
   39POPC   O22 5204   2.494   5.414   6.475 -0.4679  0.8116 -0.4820
   39POPC   C22 5205   2.605   5.613   6.584 -0.0399 -0.4397  0.1664
   39POPC   H2R 5206   2.505   5.640   6.623  0.1228 -0.7512  0.8102
   39POPC   H2S 5207   2.634   5.692   6.511 -2.8655  0.3380 -0.2324
   39POPC    C3 5208   2.869   5.257   6.422  0.0149 -0.1761  0.6152
   39POPC    HX 5209   2.951   5.326   6.392 -1.2933  0.0468 -2.9055
   39POPC    HY 5210   2.873   5.167   6.357  0.8769  0.5562 -0.3698
   39POPC   O31 5211   2.893   5.225   6.559  0.7960  0.4297  0.3765
   39POPC   C31 5212   2.872   5.098   6.604 -0.5840 -0.5315  0.4884
   39POPC   O32 5213   2.836   5.006   6.530  0.3609  0.0503  0.0150
   39POPC   C32 5214   2.893   5.080   6.756 -0.3452 -0.0501  0.1640
   39POPC   H2X 5215   2.917   5.179   6.799  0.9510  0.1849 -1.0209
   39POPC   H2Y 5216   2.804   5.032   6.801  0.0742  0.6510  1.7837
   39POPC   C23 5217   2.714   5.608   6.693  0.2568 -0.3686 -0.0449
   39POPC   H3R 5218   2.814   5.639   6.655  0.2107 -0.3168 -0.1231
   39POPC   H3S 5219   2.743   5.507   6.732  3.4498  0.8980  1.2120
   39POPC   C24 5220   2.693   5.712   6.801  0.5342 -0.0216 -0.8130
   39POPC   H4R 5221   2.642   5.800   6.758  0.6445  1.2392  1.4845
   39POPC   H4S 5222   2.793   5.746   6.836 -0.7612  1.5071  1.6557
   39POPC   C25 5223   2.605   5.671   6.925  0.1879 -0.6265  0.7251
   39POPC   H5R 5224   2.642   5.575   6.968 -0.2364 -1.5680 -0.9292
   39POPC   H5S 5225   2.499   5.653   6.896 -0.1839 -1.9048  2.7060
   39POPC   C26 5226   2.584   5.775   7.044 -0.1882 -0.4474 -0.2693
   39POPC   H6R 5227   2.547   5.871   7.003 -0.8006 -0.4081  0.3523
   39POPC   H6S 5228   2.687   5.800   7.077 -0.8989  1.6811  0.4732
   39POPC   C27 5229   2.486   5.722   7.150  0.2692 -0.1994 -0.5925
   39POPC   H7R 5230   2.528   5.629   7.193 -1.8606  0.0102  2.2916
   39POPC   H7S 5231   2.385   5.694   7.111 -0.3417  0.2315  0.6109
   39POPC   C28 5232   2.462   5.828   7.258 -0.4239  0.5898  0.5245
   39POPC   H8R 5233   2.397   5.764   7.322 -2.2954 -1.1339 -2.8480
   39POPC   H8S 5234   2.392   5.908   7.227  0.6212  1.6408  0.7744
   39POPC   C29 5235   2.582   5.877   7.327  0.0648 -0.4828  0.2673
   39POPC   H91 5236   2.631   5.960   7.273 -1.6741 -0.4024 -1.3104
   39POPC  C210 5237   2.622   5.834   7.447  0.1179 -0.7500 -0.0450
   39POPC  H101 5238   2.709   5.889   7.486  0.2030  0.9479 -2.4068
   39POPC  C211 5239   2.561   5.728   7.538  0.1540 -0.1096  0.1721
   39POPC  H11R 5240   2.652   5.670   7.565 -0.5835 -0.6149  1.7048
   39POPC  H11S 5241   2.484   5.665   7.489  0.7593 -1.6925  1.1574
   39POPC  C212 5242   2.502   5.773   7.672 -0.2142 -0.5286 -0.6570
   39POPC  H12R 5243   2.486   5.688   7.742 -1.7170 -0.3270 -0.7128
   39POPC  H12S 5244   2.400   5.816   7.659 -0.6343 -1.1110  0.5454
   39POPC  C213 5245   2.581   5.890   7.736  0.1675 -0.3379 -0.1090
   39POPC  H13R 5246   2.562   5.988   7.688  2.8409  1.4673  2.1974
   39POPC  H13S 5247   2.690   5.870   7.726  0.2108  0.4871 -1.6846
   39POPC  C214 5248   2.546   5.907   7.883  0.3355  0.2835  0.5622
   39POPC  H14R 5249   2.638   5.949   7.929  0.4250  1.3233 -0.5303
   39POPC  H14S 5250   2.536   5.809   7.935  1.8082  0.8435  2.0169
   39POPC  C215 5251   2.435   6.007   7.914  0.8942  0.4243  0.0313
   39POPC  H15R 5252   2.387   6.052   7.824 -2.4296 -0.9965  0.9627
   39POPC  H15S 5253   2.471   6.104   7.954  0.8071  0.2357  0.5748
   39POPC  C216 5254   2.330   5.954   8.015 -0.5073 -0.2223  0.4536
   39POPC  H16R 5255   2.386   5.939   8.110  1.1258  1.7448 -0.1277
   39POPC  H16S 5256   2.276   5.860   7.993  1.2343 -1.5239  1.4398
   39POPC  C217 5257   2.229   6.071   8.045  0.5473  0.9407  0.1664
   39POPC  H17R 5258   2.164   6.079   7.956 -0.5000  2.1055  1.0026
   39POPC  H17S 5259   2.274   6.173   8.051  0.2821  1.1499 -1.0639
   39POPC  C218 5260   2.160   6.060   8.188 -0.8400 -0.2096 -0.6070
   39POPC  H18R 5261   2.221   6.103   8.271  1.8934  0.4061 -2.7579
   39POPC  H18S 5262   2.123   5.959   8.212 -0.5507 -0.0394  0.6341
   39POPC  H18T 5263   2.064   6.115   8.187 -1.1489 -0.6757  0.7888
   39POPC   C33 5264   3.018   4.988   6.790  0.4957 -0.3866  0.6823
   39POPC   H3X 5265   3.091   4.977   6.707 -0.4555  0.3478 -0.2954
   39POPC   H3Y 5266   2.977   4.885   6.794 -1.7008  0.3563 -0.5722
   39POPC   C34 5267   3.087   5.012   6.924  0.3831 -0.8313 -0.5992
   39POPC   H4X 5268   3.130   5.114   6.935  1.3659 -1.3035  0.0878
   39POPC   H4Y 5269   3.178   4.948   6.930  1.8322  1.2553  4.0275
   39POPC   C35 5270   2.996   4.989   7.050 -0.1804  0.4704 -0.1891
   39POPC   H5X 5271   2.948   4.889   7.046  0.7169  0.0728 -1.9550
   39POPC   H5Y 5272   2.919   5.069   7.049 -0.0303  0.7946  2.8367
   39POPC   C36 5273   3.067   4.983   7.190 -0.1408 -0.6929 -0.3830
   39POPC   H6X 5274   3.136   5.070   7.205 -0.8598 -0.0679 -0.6253
   39POPC   H6Y 5275   3.122   4.888   7.201  1.4533  0.4003  2.0045
   39POPC   C37 5276   2.962   4.984   7.299  0.4359  0.5739  0.5832
   39POPC   H7X 5277   2.885   4.905   7.285 -0.0703  1.1141  0.2834
   39POPC   H7Y 5278   2.906   5.079   7.291  0.7358  0.6266 -1.6011
   39POPC   C38 5279   3.024   4.954   7.442 -0.3236 -0.2264  0.1180
   39POPC   H8X 5280   3.114   5.013   7.467 -0.8218 -0.0367  1.6050
   39POPC   H8Y 5281   3.055   4.848   7.435  1.6087  0.3664 -0.8260
   39POPC   C39 5282   2.926   4.979   7.555 -0.4204  0.5627  0.6074
   39POPC   H9X 5283   2.823   4.943   7.536 -0.7625  0.6795  2.1073
   39POPC   H9Y 5284   2.919   5.090   7.569  0.1363  0.4407  2.0627
   39POPC  C310 5285   2.960   4.916   7.690 -0.8498 -0.3269 -0.4155
   39POPC  H10X 5286   3.068   4.893   7.677 -0.7933 -1.2528  1.3662
   39POPC  H10Y 5287   2.903   4.824   7.716  0.8083 -0.8733  1.5023
   39POPC  C311 5288   2.945   5.009   7.811 -0.3666  0.5089  1.0827
   39POPC  H11X 5289   2.836   5.025   7.829 -0.8487 -1.2208 -0.0410
   39POPC  H11Y 5290   2.998   5.104   7.786  2.3198 -1.2284 -0.3450
   39POPC  C312 5291   3.008   4.960   7.942  0.0616  0.9290  0.4048
   39POPC  H12X 5292   3.107   4.916   7.919  0.1836  2.3824 -2.3381
   39POPC  H12Y 5293   2.937   4.887   7.985  0.7821 -1.2239 -1.8345
   39POPC  C313 5294   3.038   5.069   8.041  0.0695  0.2592  0.5456
   39POPC  H13X 5295   3.106   5.149   8.006 -1.6018  1.8425  0.7516
   39POPC  H13Y 5296   3.087   5.021   8.129 -1.0073 -2.6546 -0.3185
   39POPC  C314 5297   2.904   5.131   8.096  0.0264 -0.5286 -0.2817
   39POPC  H14X 5298   2.834   5.049   8.122  1.9846 -2.7613 -1.6771
   39POPC  H14Y 5299   2.868   5.201   8.017  3.0695  1.8608  0.2514
   39POPC  C315 5300   2.922   5.212   8.219 -1.6798 -0.1466 -0.2301
   39POPC  H15X 5301   2.837   5.279   8.245 -0.8530 -0.2007  2.9425
   39POPC  H15Y 5302   3.007   5.282   8.208 -1.3616  0.1694  3.2577
   39POPC  C316 5303   2.961   5.140   8.345 -0.1303 -0.2694  0.1362
   39POPC  H16X 5304   2.896   5.052   8.362  0.9548 -1.2617 -0.6742
   39POPC  H16Y 5305   2.951   5.204   8.435 -1.6786  0.9079 -0.8185
   39POPC  H16Z 5306   3.068   5.110   8.344 -0.0716 -0.1486  1.4262
   40POPC     N 5307   2.604   2.831   6.294  0.0340  0.1832  0.0600
   40POPC   C12 5308   2.492   2.732   6.345 -0.5175  0.0053 -0.5132
   40POPC  H12A 5309   2.414   2.723   6.270  0.0631 -1.7188 -0.9656
   40POPC  H12B 5310   2.442   2.771   6.431 -0.0472 -0.9970  0.2345
   40POPC   C13 5311   2.667   2.778   6.172 -0.9463  0.1751  0.0983
   40POPC  H13A 5312   2.757   2.832   6.144 -1.5237  1.6786  0.9859
   40POPC  H13B 5313   2.693   2.676   6.197 -0.9254 -0.2502 -1.5543
   40POPC  H13C 5314   2.595   2.781   6.092 -2.0159 -0.0150  1.0364
   40POPC   C14 5315   2.549   2.962   6.248  0.3493  0.0422 -0.3644
   40POPC  H14A 5316   2.478   2.961   6.166 -0.2447 -0.1728  0.1453
   40POPC  H14B 5317   2.515   3.016   6.335 -1.0273 -1.1266 -0.1214
   40POPC  H14C 5318   2.629   3.024   6.211  1.3803  0.7642  2.7581
   40POPC   C15 5319   2.705   2.854   6.397 -0.7222  0.4322  0.5498
   40POPC  H15A 5320   2.771   2.938   6.378 -0.0920 -0.1517  0.0743
   40POPC  H15B 5321   2.765   2.768   6.424  1.7891  1.5882 -0.8911
   40POPC  H15C 5322   2.659   2.884   6.489 -0.8594 -0.6997  0.8649
   40POPC   C11 5323   2.544   2.588   6.371  0.6837  0.2851 -0.5797
   40POPC  H11A 5324   2.479   2.526   6.436  3.5454  0.2855  2.5318
   40POPC  H11B 5325   2.639   2.589   6.429 -0.3380 -0.0685  1.1649
   40POPC     P 5326   2.465   2.441   6.168  0.0391 -0.1276  0.1295
   40POPC   O13 5327   2.517   2.433   6.031 -0.3916  0.5134 -0.0956
   40POPC   O14 5328   2.330   2.502   6.202 -0.5522 -0.3388 -0.1374
   40POPC   O12 5329   2.575   2.517   6.253 -0.3865 -0.3476 -0.6724
   40POPC   O11 5330   2.463   2.292   6.223  0.8106 -0.6079  0.0287
   40POPC    C1 5331   2.579   2.220   6.256 -0.1789 -0.0441  0.4233
   40POPC    HA 5332   2.673   2.279   6.259  0.3685 -0.8047 -1.1016
   40POPC    HB 5333   2.585   2.138   6.182  0.6313  1.1851 -0.9189
   40POPC    C2 5334   2.569   2.150   6.390  0.2068 -1.4292 -0.2930
   40POPC    HS 5335   2.464   2.112   6.391 -0.3935 -0.0439 -2.5052
   40POPC   O21 5336   2.596   2.241   6.499  0.4793  0.4214  0.1700
   40POPC   C21 5337   2.512   2.218   6.608  0.2924  0.0812 -0.5657
   40POPC   O22 5338   2.430   2.131   6.615 -0.1964 -0.5177 -0.2211
   40POPC   C22 5339   2.541   2.336   6.701  0.6309 -0.4184 -0.4883
   40POPC   H2R 5340   2.559   2.430   6.645  0.2667 -0.0081  0.0712
   40POPC   H2S 5341   2.620   2.301   6.771 -0.6731 -1.6103  0.4486
   40POPC    C3 5342   2.666   2.023   6.400  0.3172 -0.2948 -0.3537
   40POPC    HX 5343   2.648   1.968   6.305 -0.5464 -0.4258 -0.1224
   40POPC    HY 5344   2.632   1.956   6.481  0.3775 -2.0450 -1.7137
   40POPC   O31 5345   2.809   2.054   6.415 -0.2867  0.6604  0.4555
   40POPC   C31 5346   2.846   2.082   6.535  0.0587 -0.1572  0.0456
   40POPC   O32 5347   2.772   2.098   6.627  0.3898  0.0774 -0.4906
   40POPC   C32 5348   2.995   2.101   6.539 -0.5955  0.4314  0.2125
   40POPC   H2X 5349   3.023   2.208   6.553 -2.5237  1.1365 -0.8943
   40POPC   H2Y 5350   3.038   2.070   6.442  0.8158  1.0168  0.6245
   40POPC   C23 5351   2.424   2.355   6.804 -0.6845  0.3500 -1.0472
   40POPC   H3R 5352   2.388   2.252   6.826 -0.9474  0.7153  0.3456
   40POPC   H3S 5353   2.340   2.416   6.765 -0.1836  0.9823 -1.1413
   40POPC   C24 5354   2.479   2.430   6.928  0.8834  0.4619  0.1066
   40POPC   H4R 5355   2.487   2.537   6.900  1.1480  0.4328  0.0746
   40POPC   H4S 5356   2.580   2.385   6.937  0.5640 -0.5456 -1.0316
   40POPC   C25 5357   2.393   2.408   7.059  0.4139 -0.2100  0.9263
   40POPC   H5R 5358   2.356   2.304   7.048 -0.1888  0.2864 -3.9521
   40POPC   H5S 5359   2.300   2.464   7.084  0.1510 -0.8510  1.4214
   40POPC   C26 5360   2.480   2.426   7.179  0.2644  0.0405 -0.1085
   40POPC   H6R 5361   2.544   2.517   7.189 -0.2801  0.4493 -0.3031
   40POPC   H6S 5362   2.549   2.340   7.167 -3.2705 -3.8545  3.7748
   40POPC   C27 5363   2.399   2.417   7.305  0.1899  0.2422  0.3010
   40POPC   H7R 5364   2.319   2.340   7.301  1.6399 -1.2645 -0.9743
   40POPC   H7S 5365   2.345   2.514   7.306 -0.8447 -0.2424 -1.7260
   40POPC   C28 5366   2.480   2.411   7.435  0.3376  0.4954 -0.3849
   40POPC   H8R 5367   2.539   2.506   7.437  0.5015  0.3952 -0.4034
   40POPC   H8S 5368   2.559   2.333   7.436  0.2959  0.2167  4.5023
   40POPC   C29 5369   2.391   2.393   7.555  0.2734  0.4237  1.0122
   40POPC   H91 5370   2.293   2.347   7.536  0.9033 -0.5445 -0.0615
   40POPC  C210 5371   2.421   2.410   7.683 -0.1273  0.0134  0.1966
   40POPC  H101 5372   2.339   2.389   7.753 -1.2384 -2.1018 -1.5979
   40POPC  C211 5373   2.551   2.464   7.728 -0.6705  0.4186  0.8629
   40POPC  H11R 5374   2.617   2.504   7.648  0.2084  0.1996  1.4620
   40POPC  H11S 5375   2.623   2.389   7.766 -0.1632  1.0114  1.0950
   40POPC  C212 5376   2.537   2.572   7.838  0.7009 -0.2320 -0.4875
   40POPC  H12R 5377   2.485   2.661   7.798 -1.8463 -1.4442 -0.0384
   40POPC  H12S 5378   2.639   2.604   7.868  0.2759  2.9921 -2.0016
   40POPC  C213 5379   2.476   2.514   7.970  0.9637 -0.0987  0.5987
   40POPC  H13R 5380   2.372   2.474   7.961  1.8214 -2.3871  0.2863
   40POPC  H13S 5381   2.462   2.592   8.049  0.2860  2.5019 -1.9121
   40POPC  C214 5382   2.562   2.393   8.018 -0.2509 -0.3729  0.3070
   40POPC  H14R 5383   2.667   2.426   8.028  0.4061 -1.5433 -2.0254
   40POPC  H14S 5384   2.559   2.316   7.938  0.0163  1.1656 -1.2548
   40POPC  C215 5385   2.516   2.336   8.156  0.5169 -0.4858  0.1733
   40POPC  H15R 5386   2.406   2.327   8.150  0.4370 -1.2198  2.0633
   40POPC  H15S 5387   2.530   2.419   8.229  0.3318  1.6834 -2.1300
   40POPC  C216 5388   2.588   2.210   8.193 -0.4257 -0.4783 -0.3224
   40POPC  H16R 5389   2.696   2.231   8.206 -0.7123  2.0952 -1.5778
   40POPC  H16S 5390   2.594   2.131   8.115  1.4276 -1.2240  0.5025
   40POPC  C217 5391   2.537   2.167   8.335  0.0239  0.8128 -0.4862
   40POPC  H17R 5392   2.429   2.145   8.323 -0.1388  1.2894  0.0395
   40POPC  H17S 5393   2.547   2.250   8.409  1.4440  1.5901 -1.4837
   40POPC  C218 5394   2.606   2.049   8.389  0.0367 -0.2551 -0.1097
   40POPC  H18R 5395   2.585   2.038   8.497 -2.0960  0.9521 -0.3533
   40POPC  H18S 5396   2.715   2.055   8.366 -0.0219  1.2334 -0.1036
   40POPC  H18T 5397   2.581   1.961   8.326  1.5388 -1.1047  0.4325
   40POPC   C33 5398   3.071   2.017   6.643 -0.0798  0.2392 -0.1191
   40POPC   H3X 5399   3.180   2.028   6.621  0.6419 -2.7021  1.4524
   40POPC   H3Y 5400   3.046   1.909   6.631  3.9318 -0.8701  0.0657
   40POPC   C34 5401   3.046   2.057   6.784 -0.2102 -0.5107 -0.5036
   40POPC   H4X 5402   2.938   2.063   6.807  0.4294  0.6188  2.8113
   40POPC   H4Y 5403   3.095   2.156   6.797  0.8384 -0.8093 -1.9419
   40POPC   C35 5404   3.107   1.964   6.890 -0.0987  0.1716 -0.2937
   40POPC   H5X 5405   3.217   1.958   6.874 -0.0938 -0.3295 -0.0575
   40POPC   H5Y 5406   3.059   1.865   6.878 -2.2303  1.1865 -0.6421
   40POPC   C36 5407   3.087   2.024   7.026  0.4931 -0.4235 -0.6238
   40POPC   H6X 5408   2.979   2.044   7.043  0.1240  0.0696 -3.1666
   40POPC   H6Y 5409   3.141   2.122   7.024  0.9279 -0.6713 -1.1031
   40POPC   C37 5410   3.161   1.941   7.135  0.3430  0.3279 -0.4471
   40POPC   H7X 5411   3.264   1.906   7.108 -0.6179 -1.4905 -1.9851
   40POPC   H7Y 5412   3.106   1.848   7.159  2.6530 -0.6065  1.7197
   40POPC   C38 5413   3.174   2.025   7.265 -0.1345  0.2793 -0.1042
   40POPC   H8X 5414   3.079   2.077   7.291 -0.5059 -0.4595  0.0549
   40POPC   H8Y 5415   3.244   2.105   7.235 -0.6069  0.2463 -1.3831
   40POPC   C39 5416   3.226   1.947   7.385 -0.0720  0.1496 -0.6498
   40POPC   H9X 5417   3.325   1.908   7.354  1.3454  0.7680  2.7016
   40POPC   H9Y 5418   3.156   1.863   7.410 -0.5947  0.4732 -0.9966
   40POPC  C310 5419   3.245   2.043   7.514  0.2089 -0.7561  0.3475
   40POPC  H10X 5420   3.147   2.046   7.567  0.2724 -1.3503  0.5020
   40POPC  H10Y 5421   3.266   2.144   7.473 -1.1312 -0.1790  1.0337
   40POPC  C311 5422   3.352   1.995   7.607  0.1260  0.0241  0.2257
   40POPC  H11X 5423   3.430   1.949   7.543 -0.6409  0.2705 -0.9070
   40POPC  H11Y 5424   3.321   1.917   7.681  0.1458  0.1827  0.4007
   40POPC  C312 5425   3.420   2.101   7.685 -0.3598 -0.2512  0.1723
   40POPC  H12X 5426   3.476   2.177   7.628 -2.0419  0.4431 -0.6035
   40POPC  H12Y 5427   3.500   2.047   7.741  0.0079 -1.5632 -1.5350
   40POPC  C313 5428   3.320   2.160   7.782  0.2433  0.1458  0.8719
   40POPC  H13X 5429   3.287   2.087   7.858  0.3116  1.9620  2.7523
   40POPC  H13Y 5430   3.226   2.194   7.734  0.9601 -2.2842 -2.6630
   40POPC  C314 5431   3.380   2.282   7.863  0.2081 -0.2083 -0.0192
   40POPC  H14X 5432   3.307   2.291   7.947 -0.1648 -0.9897 -0.2461
   40POPC  H14Y 5433   3.382   2.367   7.792  0.4508 -0.5097 -0.3715
   40POPC  C315 5434   3.519   2.267   7.919 -0.4179  0.0030  0.0465
   40POPC  H15X 5435   3.584   2.258   7.829 -1.5880  0.8440 -0.9137
   40POPC  H15Y 5436   3.526   2.167   7.968  4.0190 -0.2582 -0.7137
   40POPC  C316 5437   3.563   2.382   7.999  0.2338 -0.0799 -0.2409
   40POPC  H16X 5438   3.497   2.391   8.087 -1.6817 -0.4462 -1.5800
   40POPC  H16Y 5439   3.547   2.479   7.948 -1.0959  0.3740  0.9875
   40POPC  H16Z 5440   3.671   2.364   8.021  0.1297 -2.5280 -1.3221
   41CHL1    C3 5441   5.890   4.560  10.163 -0.6126  0.2178 -0.3667
   41CHL1    H3 5442   5.780   4.553  10.175 -0.9956  1.7710 -2.4311
   41CHL1    O3 5443   5.936   4.555  10.296 -0.2527  0.3091  0.0818
   41CHL1   H3' 5444   5.965   4.465  10.316 -0.3510  0.0883 -0.7440
   41CHL1    C4 5445   5.941   4.443  10.072 -0.7174 -0.0431  0.3884
   41CHL1   H4A 5446   6.052   4.442  10.077 -0.6306 -2.1172 -0.8447
   41CHL1   H4B 5447   5.902   4.350  10.119 -0.4438 -0.1747  0.3586
   41CHL1    C5 5448   5.904   4.450   9.931 -0.1065  0.1564  0.0861
   41CHL1    C6 5449   5.831   4.353   9.875  0.1401 -0.8272 -0.8352
   41CHL1    H6 5450   5.791   4.273   9.939 -1.2585  1.2410  1.0292
   41CHL1    C7 5451   5.791   4.354   9.731 -0.1183 -0.2059 -0.1905
   41CHL1   H7A 5452   5.788   4.256   9.679 -0.0988  0.2864 -1.1482
   41CHL1   H7B 5453   5.683   4.379   9.729  0.0829  0.8120  0.8886
   41CHL1    C8 5454   5.857   4.467   9.647 -0.6525 -0.4615 -0.1167
   41CHL1    H8 5455   5.960   4.429   9.630 -0.0007  0.5644  1.3382
   41CHL1   C14 5456   5.786   4.494   9.508  0.3569  0.3006 -0.0149
   41CHL1   H14 5457   5.688   4.540   9.534  0.7556  0.2119  1.7591
   41CHL1   C15 5458   5.763   4.372   9.407  0.3252  0.5086 -0.6509
   41CHL1  H15A 5459   5.854   4.310   9.394  0.9491  1.3548 -0.4391
   41CHL1  H15B 5460   5.678   4.304   9.432  0.0135  1.1330  0.0378
   41CHL1   C16 5461   5.745   4.439   9.275  0.4995 -0.0712  0.0949
   41CHL1  H16A 5462   5.824   4.403   9.205 -0.6126 -0.4805 -0.9867
   41CHL1  H16B 5463   5.651   4.418   9.220 -0.9638 -0.3539  2.5424
   41CHL1   C17 5464   5.758   4.591   9.292  0.1615 -0.2306 -0.3733
   41CHL1   H17 5465   5.660   4.630   9.325 -0.0497 -1.8378  1.0369
   41CHL1   C13 5466   5.854   4.603   9.418  1.0757 -0.3323 -0.2004
   41CHL1   C18 5467   5.995   4.569   9.375 -0.8412 -0.3555 -0.3312
   41CHL1  H18A 5468   6.057   4.648   9.329  0.1303 -0.5384  0.6357
   41CHL1  H18B 5469   6.067   4.564   9.459  0.6343  0.5809 -1.4971
   41CHL1  H18C 5470   5.993   4.482   9.305  3.4024  0.3070 -1.5853
   41CHL1   C12 5471   5.844   4.726   9.507 -0.4802 -0.7649  0.2138
   41CHL1  H12A 5472   5.884   4.815   9.456 -0.6743 -0.2783  0.8916
   41CHL1  H12B 5473   5.740   4.755   9.532 -0.1619  0.1776  0.4973
   41CHL1   C11 5474   5.923   4.716   9.634 -0.4110 -0.1654  0.1557
   41CHL1  H11A 5475   6.033   4.719   9.619 -0.3948 -0.7671  0.1529
   41CHL1  H11B 5476   5.896   4.802   9.699 -2.4245 -1.1470  0.7193
   41CHL1    C9 5477   5.878   4.602   9.728 -0.1257  0.4261  0.2178
   41CHL1    H9 5478   5.778   4.641   9.756  0.2570  1.2564  0.4583
   41CHL1   C10 5479   5.943   4.584   9.867 -0.7816  0.2740 -0.3313
   41CHL1   C19 5480   6.096   4.597   9.851  0.3994 -0.0762  0.2307
   41CHL1  H19A 5481   6.132   4.532   9.769  0.3436  2.1601 -1.6807
   41CHL1  H19B 5482   6.129   4.700   9.824 -0.9412  0.2241 -0.3928
   41CHL1  H19C 5483   6.148   4.572   9.946 -1.2398  2.2262  1.8637
   41CHL1    C1 5484   5.884   4.699   9.959  0.3434 -0.2511 -0.4621
   41CHL1   H1A 5485   5.916   4.798   9.922 -0.5736 -0.3900 -1.6881
   41CHL1   H1B 5486   5.774   4.688   9.954  0.5057 -2.5698  0.0259
   41CHL1    C2 5487   5.932   4.691  10.106 -0.1734 -0.2942  0.9630
   41CHL1   H2A 5488   5.889   4.778  10.160  0.8081  0.6383  0.2912
   41CHL1   H2B 5489   6.042   4.707  10.117 -0.3353  1.1190  0.7343
   41CHL1   C20 5490   5.813   4.655   9.158  0.1784 -0.4922  0.5103
   41CHL1   H20 5491   5.900   4.596   9.124 -1.1315 -1.6563 -0.9594
   41CHL1   C21 5492   5.853   4.804   9.169 -0.5516 -0.0182 -0.1531
   41CHL1  H21A 5493   5.933   4.814   9.246  0.0494 -1.4655 -0.5537
   41CHL1  H21B 5494   5.769   4.873   9.189 -0.8475 -0.4063 -0.0318
   41CHL1  H21C 5495   5.895   4.832   9.070 -2.9151 -0.8255 -1.4578
   41CHL1   C22 5496   5.726   4.647   9.028 -0.3098 -0.3167  0.0678
   41CHL1  H22A 5497   5.695   4.540   9.033  2.6579 -1.1841  1.9929
   41CHL1  H22B 5498   5.641   4.718   9.034 -0.4758 -0.2076 -2.3621
   41CHL1   C23 5499   5.805   4.658   8.894 -0.2338  0.6568 -0.1679
   41CHL1  H23A 5500   5.843   4.763   8.888  0.6202  0.4258  0.9041
   41CHL1  H23B 5501   5.889   4.586   8.887  1.4382  2.5900 -1.5554
   41CHL1   C24 5502   5.702   4.637   8.779  0.2307  0.2646 -0.1829
   41CHL1  H24A 5503   5.656   4.537   8.792  0.1689  0.2791 -0.2880
   41CHL1  H24B 5504   5.621   4.713   8.781 -0.0967 -0.1065  1.0178
   41CHL1   C25 5505   5.773   4.638   8.641 -0.5372 -0.1011 -0.2671
   41CHL1   H25 5506   5.866   4.578   8.651  0.2553  0.8402 -1.6736
   41CHL1   C26 5507   5.687   4.585   8.526  0.1820  0.2948  0.2891
   41CHL1  H26A 5508   5.657   4.484   8.561 -3.1969  1.3832  0.9063
   41CHL1  H26B 5509   5.585   4.627   8.508 -0.7966 -2.1065 -0.1287
   41CHL1  H26C 5510   5.734   4.566   8.427 -1.9451 -0.6786 -0.6172
   41CHL1   C27 5511   5.816   4.784   8.618  0.2697 -0.2348 -0.4422
   41CHL1  H27A 5512   5.721   4.842   8.622 -0.2485 -1.1213  1.5015
   41CHL1  H27B 5513   5.893   4.822   8.688 -1.2606  2.0828  0.1062
   41CHL1  H27C 5514   5.865   4.792   8.519  3.0304  0.7417  0.8874
   42CHL1    C3 5515   1.743   4.142   9.830 -0.7523 -0.0479 -0.1031
   42CHL1    H3 5516   1.643   4.113   9.868 -1.4107  1.8844 -0.2856
   42CHL1    O3 5517   1.842   4.067   9.898 -1.0458  0.0586 -0.0585
   42CHL1   H3' 5518   1.924   4.107   9.867 -0.7254 -2.5322 -3.0195
   42CHL1    C4 5519   1.762   4.112   9.679 -0.5561 -0.9828  0.5172
   42CHL1   H4A 5520   1.869   4.112   9.647 -0.1266  0.4764  1.8212
   42CHL1   H4B 5521   1.715   4.012   9.673 -1.0679 -0.6837 -0.8655
   42CHL1    C5 5522   1.683   4.207   9.585  0.5022 -0.2262 -0.0023
   42CHL1    C6 5523   1.620   4.162   9.479  0.1044  0.6446 -0.6893
   42CHL1    H6 5524   1.626   4.056   9.449 -2.9706  0.8399 -2.4387
   42CHL1    C7 5525   1.538   4.249   9.391  0.9413 -0.3305  0.3268
   42CHL1   H7A 5526   1.555   4.216   9.286  1.3960 -2.0432  0.9040
   42CHL1   H7B 5527   1.430   4.233   9.414 -0.0541  3.4046 -0.9285
   42CHL1    C8 5528   1.554   4.404   9.414  0.1304 -0.6906  0.5688
   42CHL1    H8 5529   1.651   4.426   9.364  0.1655 -0.8163  0.5826
   42CHL1   C14 5530   1.446   4.484   9.338  0.3230 -0.0245  0.4754
   42CHL1   H14 5531   1.352   4.455   9.388 -1.1188  3.0732 -0.1540
   42CHL1   C15 5532   1.421   4.455   9.190 -0.2753  0.6437  1.0041
   42CHL1  H15A 5533   1.514   4.412   9.147 -2.1640 -1.8331 -0.8969
   42CHL1  H15B 5534   1.354   4.366   9.184  1.8596 -0.9776 -0.7047
   42CHL1   C16 5535   1.356   4.580   9.137 -0.6707  0.5890 -0.0915
   42CHL1  H16A 5536   1.435   4.621   9.072 -1.7282  0.5880 -1.4088
   42CHL1  H16B 5537   1.258   4.570   9.086 -0.3597 -0.3170 -0.5199
   42CHL1   C17 5538   1.354   4.684   9.259  0.1472 -0.0282  0.4976
   42CHL1   H17 5539   1.258   4.680   9.314 -1.2220 -2.1627 -1.8824
   42CHL1   C13 5540   1.465   4.632   9.349  0.0374 -0.2974  0.0691
   42CHL1   C18 5541   1.612   4.674   9.293  0.1284  0.3537 -0.5263
   42CHL1  H18A 5542   1.636   4.674   9.184 -0.5567  1.8635 -0.6928
   42CHL1  H18B 5543   1.610   4.782   9.316 -0.3910  0.2530 -0.0779
   42CHL1  H18C 5544   1.696   4.636   9.356 -0.5639 -1.0922 -0.4336
   42CHL1   C12 5545   1.453   4.654   9.501  0.0663 -0.0862 -0.9230
   42CHL1  H12A 5546   1.442   4.763   9.522 -0.3039 -0.7705  3.3558
   42CHL1  H12B 5547   1.359   4.607   9.536 -1.3717  2.3485 -1.3086
   42CHL1   C11 5548   1.569   4.587   9.581  0.4517  0.4848  0.3353
   42CHL1  H11A 5549   1.663   4.637   9.550  0.5752 -0.8600 -1.6599
   42CHL1  H11B 5550   1.543   4.614   9.685  1.0928  0.5806  0.4724
   42CHL1    C9 5551   1.567   4.433   9.564  0.5259 -0.0719  0.9136
   42CHL1    H9 5552   1.471   4.403   9.611  0.2545  0.7135  0.8742
   42CHL1   C10 5553   1.675   4.354   9.635  0.0726  0.4316  0.4018
   42CHL1   C19 5554   1.812   4.415   9.585  0.2489 -0.0442 -0.5925
   42CHL1  H19A 5555   1.904   4.372   9.632 -0.1197 -0.9566 -0.6803
   42CHL1  H19B 5556   1.826   4.403   9.476  1.3315  2.3756 -0.7694
   42CHL1  H19C 5557   1.822   4.523   9.609  1.2401  0.0357 -1.3044
   42CHL1    C1 5558   1.653   4.369   9.783  0.5608 -0.4401  0.3642
   42CHL1   H1A 5559   1.670   4.475   9.813 -0.3199 -0.1952  0.0295
   42CHL1   H1B 5560   1.557   4.332   9.824 -0.8948  2.7659  0.1876
   42CHL1    C2 5561   1.763   4.290   9.861  0.7714  0.2914  0.3375
   42CHL1   H2A 5562   1.743   4.302   9.970 -0.3541 -1.0562  0.3093
   42CHL1   H2B 5563   1.869   4.313   9.837  1.4990 -0.8681  2.1711
   42CHL1   C20 5564   1.364   4.834   9.206  0.0495  0.5276 -0.5244
   42CHL1   H20 5565   1.457   4.848   9.146  1.0121 -1.6451  0.3657
   42CHL1   C21 5566   1.380   4.933   9.321 -0.4013  0.4173 -0.3668
   42CHL1  H21A 5567   1.485   4.922   9.356  0.0149  0.6197 -1.5126
   42CHL1  H21B 5568   1.316   4.900   9.405 -0.5488 -1.4619 -1.1693
   42CHL1  H21C 5569   1.362   5.038   9.288  0.6541  0.3897 -1.0602
   42CHL1   C22 5570   1.230   4.875   9.132  0.5928  0.0499 -0.0488
   42CHL1  H22A 5571   1.193   4.796   9.063 -0.1084  0.1684  0.1871
   42CHL1  H22B 5572   1.151   4.878   9.209  1.8767  1.7628  1.2806
   42CHL1   C23 5573   1.208   5.002   9.062  0.5358 -0.3738 -0.2243
   42CHL1  H23A 5574   1.204   5.089   9.130 -0.8563  1.4162 -2.4421
   42CHL1  H23B 5575   1.283   5.015   8.982  0.1300 -1.7904 -0.8743
   42CHL1   C24 5576   1.068   5.013   8.989  0.3511  0.0744 -0.1440
   42CHL1  H24A 5577   1.047   4.923   8.928 -0.2069  1.0057 -1.3617
   42CHL1  H24B 5578   0.984   5.020   9.061 -0.6449  0.0644 -1.2754
   42CHL1   C25 5579   1.041   5.124   8.890  0.6336  0.0297 -0.2394
   42CHL1   H25 5580   1.119   5.117   8.811  1.1049 -1.3233  0.3164
   42CHL1   C26 5581   0.904   5.109   8.822  0.1151  0.7055 -0.3115
   42CHL1  H26A 5582   0.881   5.003   8.796  0.9769  0.6884 -1.0568
   42CHL1  H26B 5583   0.825   5.147   8.891 -0.6292  0.9260 -1.2536
   42CHL1  H26C 5584   0.889   5.179   8.737 -1.5085 -0.7523 -1.3055
   42CHL1   C27 5585   1.049   5.258   8.957 -0.6527 -0.1005 -0.0421
   42CHL1  H27A 5586   1.010   5.260   9.061  1.9574 -0.0386  1.0208
   42CHL1  H27B 5587   1.155   5.290   8.967 -0.5687 -0.6803  1.1151
   42CHL1  H27C 5588   0.995   5.330   8.891  0.1612 -1.7089 -2.6225
   43CHL1    C3 5589   0.614   3.666  10.079  1.1759 -0.9388 -0.5185
   43CHL1    H3 5590   0.581   3.565  10.046 -2.8232  0.2483 -0.6725
   43CHL1    O3 5591   0.553   3.689  10.205 -0.4047 -0.6925  0.7001
   43CHL1   H3' 5592   0.541   3.784  10.214 -1.4731 -0.7728  0.2711
   43CHL1    C4 5593   0.768   3.674  10.089 -0.0858  0.4153 -0.0162
   43CHL1   H4A 5594   0.802   3.763  10.146 -0.3305  1.7016 -1.7785
   43CHL1   H4B 5595   0.799   3.593  10.158  1.8141  0.3547 -0.8866
   43CHL1    C5 5596   0.840   3.647   9.959  0.2127  0.0270 -0.6694
   43CHL1    C6 5597   0.932   3.552   9.942  0.2603 -0.1077  0.2061
   43CHL1    H6 5598   0.980   3.494  10.022  0.9695  0.3652  0.1321
   43CHL1    C7 5599   0.994   3.516   9.815  0.0835 -0.2415  1.0000
   43CHL1   H7A 5600   1.103   3.497   9.816  0.3901  1.1376 -1.2857
   43CHL1   H7B 5601   0.937   3.430   9.773 -2.9701  2.1020 -0.0229
   43CHL1    C8 5602   0.966   3.630   9.708  0.1809  0.0589  0.4673
   43CHL1    H8 5603   1.034   3.715   9.731  1.0342 -0.7859  1.1717
   43CHL1   C14 5604   0.996   3.582   9.564 -0.2161  0.3845  0.5300
   43CHL1   H14 5605   0.913   3.510   9.548 -0.5688  0.9825 -0.3948
   43CHL1   C15 5606   1.129   3.497   9.531 -0.5013 -0.1510  0.3805
   43CHL1  H15A 5607   1.204   3.569   9.573 -2.5290  1.4193  1.5446
   43CHL1  H15B 5608   1.143   3.401   9.584 -0.4919  0.8198  2.2398
   43CHL1   C16 5609   1.133   3.497   9.382 -0.1688  0.4970 -0.3752
   43CHL1  H16A 5610   1.233   3.528   9.346  0.8739 -1.2629  0.9173
   43CHL1  H16B 5611   1.114   3.393   9.350 -0.8881  0.4953  0.0370
   43CHL1   C17 5612   1.020   3.595   9.333 -0.6078  0.4534  0.2752
   43CHL1   H17 5613   0.932   3.529   9.319 -1.8246  2.0293  0.2429
   43CHL1   C13 5614   0.985   3.686   9.452 -0.1665 -0.2793  0.0886
   43CHL1   C18 5615   1.104   3.790   9.474  0.0574  0.5800  0.4180
   43CHL1  H18A 5616   1.087   3.877   9.407  1.6788  0.5066 -0.1145
   43CHL1  H18B 5617   1.114   3.812   9.582 -0.0818 -1.2594  0.8458
   43CHL1  H18C 5618   1.196   3.734   9.448 -1.4981 -0.7266 -2.8546
   43CHL1   C12 5619   0.846   3.749   9.456  0.5292 -0.0255  0.0599
   43CHL1  H12A 5620   0.843   3.841   9.394 -2.8724 -1.1645 -1.7316
   43CHL1  H12B 5621   0.779   3.672   9.412 -0.0940  0.3317  0.3718
   43CHL1   C11 5622   0.803   3.793   9.601  0.1235 -0.3528  0.6666
   43CHL1  H11A 5623   0.860   3.886   9.623 -0.8474  0.5350 -0.4294
   43CHL1  H11B 5624   0.696   3.825   9.606 -0.2544 -1.7296  2.7077
   43CHL1    C9 5625   0.823   3.685   9.706 -0.0092 -0.7085 -0.0764
   43CHL1    H9 5626   0.762   3.600   9.670  1.8813 -1.9563 -0.4312
   43CHL1   C10 5627   0.774   3.732   9.844  0.7758  0.3601 -0.5197
   43CHL1   C19 5628   0.816   3.877   9.874  0.1247 -0.1827 -0.1104
   43CHL1  H19A 5629   0.803   3.910   9.979 -0.3653  0.4676 -0.3728
   43CHL1  H19B 5630   0.927   3.879   9.867  0.0429 -0.2684 -1.9439
   43CHL1  H19C 5631   0.776   3.959   9.811 -0.6315  0.0884  0.7205
   43CHL1    C1 5632   0.619   3.733   9.837  0.3038 -0.1151 -0.5964
   43CHL1   H1A 5633   0.583   3.816   9.772  0.8522 -0.9591 -2.0288
   43CHL1   H1B 5634   0.586   3.635   9.798 -1.5509  0.2666 -0.0933
   43CHL1    C2 5635   0.559   3.758   9.973 -0.5338 -0.5370 -0.1291
   43CHL1   H2A 5636   0.450   3.741   9.962 -0.7838  1.0183 -0.3249
   43CHL1   H2B 5637   0.565   3.864  10.006  0.5092 -1.3525  2.5207
   43CHL1   C20 5638   1.037   3.654   9.200  0.5527 -0.2565  0.1808
   43CHL1   H20 5639   1.121   3.725   9.216  1.0359 -0.5937 -0.7555
   43CHL1   C21 5640   0.908   3.718   9.146 -0.4601  0.2029 -0.6048
   43CHL1  H21A 5641   0.908   3.725   9.036 -1.0322 -2.9279 -0.9014
   43CHL1  H21B 5642   0.900   3.823   9.180 -0.5605  0.4419 -1.3563
   43CHL1  H21C 5643   0.818   3.658   9.167 -0.1368 -0.5274 -1.2532
   43CHL1   C22 5644   1.106   3.559   9.093  0.0280  0.2881  0.1231
   43CHL1  H22A 5645   1.174   3.484   9.140  1.4047  1.9099  0.8442
   43CHL1  H22B 5646   1.026   3.494   9.054  0.5778 -0.5863  0.4308
   43CHL1   C23 5647   1.191   3.638   8.989 -0.5841  0.1204 -0.3018
   43CHL1  H23A 5648   1.147   3.739   8.976 -1.9960 -0.3991  0.2101
   43CHL1  H23B 5649   1.290   3.652   9.037 -1.1320 -1.7674  1.5358
   43CHL1   C24 5650   1.202   3.566   8.861 -0.3934  0.4654  0.2155
   43CHL1  H24A 5651   1.258   3.471   8.877  1.4272  1.5407  0.5273
   43CHL1  H24B 5652   1.102   3.536   8.822 -0.7267  0.2788  1.2001
   43CHL1   C25 5653   1.276   3.653   8.756 -0.4328  0.3536 -0.2739
   43CHL1   H25 5654   1.201   3.731   8.730 -2.5442 -1.4137  0.2536
   43CHL1   C26 5655   1.415   3.711   8.799  0.2764  0.4155 -0.1990
   43CHL1  H26A 5656   1.458   3.773   8.717  2.9913  0.0842  0.8592
   43CHL1  H26B 5657   1.400   3.775   8.888  2.5083  0.0291  0.5357
   43CHL1  H26C 5658   1.490   3.632   8.822  1.1035  1.5808  1.2710
   43CHL1   C27 5659   1.300   3.584   8.624  0.4072  0.3904 -0.6421
   43CHL1  H27A 5660   1.202   3.555   8.581 -1.1070  3.4663  0.4583
   43CHL1  H27B 5661   1.348   3.653   8.552  1.5407 -0.1917 -0.4698
   43CHL1  H27C 5662   1.367   3.496   8.637 -0.1541  0.0346 -0.0712
   44CHL1    C3 5663   3.160   5.360  10.072 -0.3054 -0.2357 -0.0635
   44CHL1    H3 5664   3.184   5.256  10.038  1.2491 -0.1148  0.5870
   44CHL1    O3 5665   3.208   5.364  10.207  0.7386 -0.2223 -0.3925
   44CHL1   H3' 5666   3.157   5.436  10.246  2.2505 -0.2394  1.8390
   44CHL1    C4 5667   3.236   5.457   9.975  0.4588  0.1324 -1.1214
   44CHL1   H4A 5668   3.217   5.562  10.006  1.6293  0.6715 -2.1459
   44CHL1   H4B 5669   3.341   5.426   9.998 -0.0167 -0.1778  0.8041
   44CHL1    C5 5670   3.196   5.443   9.831 -0.6936  0.0170 -0.3694
   44CHL1    C6 5671   3.288   5.407   9.735 -0.8211 -0.6600 -0.3778
   44CHL1    H6 5672   3.396   5.394   9.750 -0.9451 -1.1983  0.1332
   44CHL1    C7 5673   3.258   5.389   9.591  0.3251  0.2216  0.8933
   44CHL1   H7A 5674   3.326   5.443   9.522 -1.0916  1.3223  0.3087
   44CHL1   H7B 5675   3.260   5.280   9.569 -1.1341  0.2749  0.3657
   44CHL1    C8 5676   3.115   5.443   9.557  0.8535  0.2140 -1.0650
   44CHL1    H8 5677   3.115   5.554   9.565 -1.0696  0.2014 -0.1494
   44CHL1   C14 5678   3.067   5.393   9.418  0.3579 -0.1996  0.2730
   44CHL1   H14 5679   3.054   5.284   9.434  3.1962 -0.6066  0.3156
   44CHL1   C15 5680   3.156   5.422   9.299  0.5385 -0.3408  0.0506
   44CHL1  H15A 5681   3.212   5.518   9.301 -1.7377  1.1595 -2.2272
   44CHL1  H15B 5682   3.252   5.367   9.294  1.3193  1.0211 -0.5819
   44CHL1   C16 5683   3.067   5.435   9.174  0.2880  0.8045 -0.4480
   44CHL1  H16A 5684   3.084   5.540   9.143  1.4190  0.5007 -0.9344
   44CHL1  H16B 5685   3.092   5.362   9.093 -1.0842  2.6536 -2.6648
   44CHL1   C17 5686   2.927   5.406   9.224  0.0091 -0.4295  0.0881
   44CHL1   H17 5687   2.914   5.296   9.218 -1.8594 -0.1718 -1.6649
   44CHL1   C13 5688   2.928   5.452   9.375 -0.5893 -0.1359 -0.4444
   44CHL1   C18 5689   2.934   5.610   9.380  0.2516  0.8235  0.2103
   44CHL1  H18A 5690   2.852   5.656   9.321 -0.6978 -0.1340  0.7564
   44CHL1  H18B 5691   2.914   5.646   9.484 -1.8451  0.7540 -0.1276
   44CHL1  H18C 5692   3.029   5.640   9.332  1.5629 -4.8970 -1.4980
   44CHL1   C12 5693   2.829   5.384   9.477 -0.9017 -0.1174 -0.2606
   44CHL1  H12A 5694   2.722   5.413   9.474 -0.7868  0.5764  1.4151
   44CHL1  H12B 5695   2.833   5.273   9.475 -1.8651 -0.1643  0.0198
   44CHL1   C11 5696   2.868   5.421   9.629 -0.4110  0.9408  1.1892
   44CHL1  H11A 5697   2.837   5.525   9.652  1.3106  1.4086  1.4751
   44CHL1  H11B 5698   2.814   5.355   9.700  0.7971 -0.6353  0.6834
   44CHL1    C9 5699   3.018   5.400   9.670 -0.1509  0.0219  0.1630
   44CHL1    H9 5700   3.016   5.289   9.673 -0.7646  0.0369  0.4091
   44CHL1   C10 5701   3.048   5.461   9.812  0.5303 -0.0529  0.4632
   44CHL1   C19 5702   3.022   5.612   9.819 -0.1100  0.3551  0.3799
   44CHL1  H19A 5703   3.068   5.665   9.732 -1.8213  1.7561  0.2780
   44CHL1  H19B 5704   2.920   5.655   9.824  0.4720  1.6889  1.5519
   44CHL1  H19C 5705   3.057   5.650   9.917 -2.6339 -2.7159  2.6756
   44CHL1    C1 5706   2.969   5.378   9.915 -0.1074  0.1494  0.1825
   44CHL1   H1A 5707   2.860   5.400   9.907 -0.4516 -1.6414 -0.6342
   44CHL1   H1B 5708   2.974   5.270   9.889  0.4501  0.1398  0.3324
   44CHL1    C2 5709   3.009   5.392  10.059  0.0626  0.2452 -0.4927
   44CHL1   H2A 5710   2.945   5.325  10.121  0.3526  0.1320 -0.3103
   44CHL1   H2B 5711   2.998   5.491  10.107  0.8573 -0.3423  0.9753
   44CHL1   C20 5712   2.811   5.455   9.126  0.2091  0.2240 -0.1398
   44CHL1   H20 5713   2.798   5.565   9.133 -0.7891  0.1293 -0.4569
   44CHL1   C21 5714   2.680   5.383   9.164  0.3101  0.0130 -0.2481
   44CHL1  H21A 5715   2.663   5.372   9.273 -0.3858 -2.3438 -0.5215
   44CHL1  H21B 5716   2.664   5.282   9.119  1.6660  0.4599 -1.8281
   44CHL1  H21C 5717   2.599   5.454   9.135  0.3305 -0.0590 -0.4865
   44CHL1   C22 5718   2.846   5.424   8.980  0.0810 -0.3310 -0.7707
   44CHL1  H22A 5719   2.919   5.502   8.946 -1.7679  0.6110 -2.8598
   44CHL1  H22B 5720   2.881   5.319   8.975 -1.3055 -0.8625  0.2738
   44CHL1   C23 5721   2.731   5.441   8.877 -0.1259 -0.0676  0.3099
   44CHL1  H23A 5722   2.637   5.389   8.903  0.4494 -0.1260  2.4188
   44CHL1  H23B 5723   2.700   5.547   8.866 -3.1235 -0.7820  1.1115
   44CHL1   C24 5724   2.760   5.384   8.741  0.6475  0.5039 -0.2201
   44CHL1  H24A 5725   2.830   5.446   8.682 -0.2090  0.1640 -1.6347
   44CHL1  H24B 5726   2.803   5.283   8.759  3.5050  1.5398 -0.6231
   44CHL1   C25 5727   2.631   5.369   8.657 -0.5590  0.0146 -0.5095
   44CHL1   H25 5728   2.564   5.296   8.708  0.6178 -0.9956 -0.3642
   44CHL1   C26 5729   2.567   5.507   8.636 -0.0374  0.3227 -0.2075
   44CHL1  H26A 5730   2.641   5.585   8.605 -0.7528  0.8104 -0.7324
   44CHL1  H26B 5731   2.491   5.505   8.555 -0.4938 -3.3083  0.1474
   44CHL1  H26C 5732   2.525   5.550   8.729  0.7210  1.5444 -0.4070
   44CHL1   C27 5733   2.672   5.315   8.527 -0.8407  0.1777 -0.3771
   44CHL1  H27A 5734   2.713   5.214   8.552 -0.9717  0.6021  1.7890
   44CHL1  H27B 5735   2.583   5.316   8.461 -0.5751  3.0564 -0.8063
   44CHL1  H27C 5736   2.737   5.390   8.478  1.2612 -1.3405 -0.0829
   45CHL1    C3 5737   5.010   5.599  10.285  0.4267  0.6578 -0.4611
   45CHL1    H3 5738   5.119   5.618  10.271  0.2879  1.3975 -0.6025
   45CHL1    O3 5739   4.984   5.606  10.422  0.0938 -0.4501 -0.7883
   45CHL1   H3' 5740   5.041   5.542  10.464 -1.4881  0.0158  2.3469
   45CHL1    C4 5741   4.944   5.719  10.213 -0.1008 -0.5408  0.2206
   45CHL1   H4A 5742   4.836   5.737  10.225  0.6148  3.1110  2.7173
   45CHL1   H4B 5743   4.989   5.814  10.248 -0.6440  1.1022 -3.0898
   45CHL1    C5 5744   4.979   5.711  10.060 -0.2027 -0.1690 -0.0403
   45CHL1    C6 5745   5.056   5.804   9.997 -0.3502  0.3460  0.5207
   45CHL1    H6 5746   5.089   5.894  10.051  0.5329  0.1596  0.2950
   45CHL1    C7 5747   5.086   5.810   9.850 -0.1861  0.3082  0.1142
   45CHL1   H7A 5748   5.059   5.912   9.814  2.0823  0.1128 -2.4498
   45CHL1   H7B 5749   5.195   5.810   9.828 -0.2456  0.1392 -0.1963
   45CHL1    C8 5750   5.022   5.698   9.762 -0.5038  0.2831 -0.0207
   45CHL1    H8 5751   5.106   5.673   9.695  0.3567 -0.3798  1.2593
   45CHL1   C14 5752   4.907   5.724   9.672  0.1077  0.7258  0.2808
   45CHL1   H14 5753   4.815   5.735   9.733 -0.5551 -2.9979  0.1835
   45CHL1   C15 5754   4.918   5.853   9.588  0.4063 -0.2093  0.3811
   45CHL1  H15A 5755   4.844   5.934   9.605  1.5554  1.8555 -3.2992
   45CHL1  H15B 5756   5.013   5.904   9.616  1.8220 -3.7092  2.6660
   45CHL1   C16 5757   4.903   5.818   9.438  0.0161 -0.7694 -1.2389
   45CHL1  H16A 5758   4.800   5.835   9.398  0.6476 -1.8026 -3.4832
   45CHL1  H16B 5759   4.965   5.889   9.380 -0.7432  2.0596  1.1730
   45CHL1   C17 5760   4.938   5.669   9.432  0.6614 -0.4910  0.4090
   45CHL1   H17 5761   5.048   5.664   9.449  0.3445 -1.7341  2.3341
   45CHL1   C13 5762   4.880   5.615   9.567  0.6081  0.2521  0.0699
   45CHL1   C18 5763   4.729   5.603   9.551 -0.0595 -0.2034  0.0793
   45CHL1  H18A 5764   4.673   5.699   9.541  1.0575  0.8547  2.8279
   45CHL1  H18B 5765   4.697   5.543   9.463 -0.4733  1.8360 -1.2209
   45CHL1  H18C 5766   4.684   5.548   9.637  1.2828  0.0579  0.9840
   45CHL1   C12 5767   4.940   5.480   9.611 -0.7122  0.2500  0.0867
   45CHL1  H12A 5768   4.904   5.383   9.571  2.5637 -0.4339 -1.5180
   45CHL1  H12B 5769   5.044   5.487   9.572 -0.5077 -2.9965 -0.1941
   45CHL1   C11 5770   4.943   5.454   9.755  0.3688  0.4480 -0.5084
   45CHL1  H11A 5771   4.839   5.430   9.788  0.8658  0.3296  1.0451
   45CHL1  H11B 5772   4.991   5.355   9.766 -0.1886  0.4116  2.5503
   45CHL1    C9 5773   5.004   5.568   9.846 -0.9297 -0.2694  0.1067
   45CHL1    H9 5774   5.110   5.540   9.866 -0.7912  1.4516  2.0519
   45CHL1   C10 5775   4.940   5.585   9.986 -0.4995  0.1938 -0.5200
   45CHL1   C19 5776   4.784   5.583   9.979 -0.0255 -0.0775  0.2487
   45CHL1  H19A 5777   4.749   5.662   9.910 -1.7010 -1.0879 -0.1029
   45CHL1  H19B 5778   4.730   5.492   9.946  0.0517 -0.2188  0.5092
   45CHL1  H19C 5779   4.747   5.586  10.083 -0.5639 -2.8076  0.2102
   45CHL1    C1 5780   4.986   5.465  10.072 -0.2211  0.2709 -0.1772
   45CHL1   H1A 5781   4.950   5.374  10.019 -0.9533  0.7994 -0.6073
   45CHL1   H1B 5782   5.097   5.462  10.069 -0.0952 -0.4013  2.3643
   45CHL1    C2 5783   4.953   5.468  10.222 -0.5359 -0.5183  0.2031
   45CHL1   H2A 5784   5.005   5.379  10.263  0.1632  0.1184  0.7041
   45CHL1   H2B 5785   4.844   5.463  10.241 -0.3688  0.6598  1.6372
   45CHL1   C20 5786   4.901   5.605   9.294 -0.1199  0.5159 -0.2718
   45CHL1   H20 5787   4.792   5.626   9.290  0.2960  2.7989 -1.0340
   45CHL1   C21 5788   4.923   5.456   9.305  0.1624 -0.0837  0.1447
   45CHL1  H21A 5789   5.022   5.423   9.344 -0.6361  0.3825  2.8013
   45CHL1  H21B 5790   4.907   5.417   9.203 -3.7296 -2.1602  1.3500
   45CHL1  H21C 5791   4.843   5.409   9.367  0.0473  2.2081  1.9108
   45CHL1   C22 5792   4.971   5.667   9.163  0.0453 -0.0254  0.0858
   45CHL1  H22A 5793   4.982   5.776   9.182  1.5353 -0.0696 -0.3913
   45CHL1  H22B 5794   5.075   5.633   9.145 -0.5870 -1.1002 -1.8638
   45CHL1   C23 5795   4.888   5.649   9.034  0.5571  0.1953 -0.7025
   45CHL1  H23A 5796   4.882   5.541   9.012 -0.0941  0.1160 -0.1707
   45CHL1  H23B 5797   4.784   5.687   9.035  1.3812  2.6510 -1.2350
   45CHL1   C24 5798   4.959   5.729   8.916 -0.1144 -0.1016  0.5471
   45CHL1  H24A 5799   4.982   5.826   8.965  0.5113  0.3469 -0.6059
   45CHL1  H24B 5800   5.065   5.698   8.901  0.0704  0.5377  0.4936
   45CHL1   C25 5801   4.887   5.732   8.782  0.0867 -0.2144 -1.3784
   45CHL1   H25 5802   4.782   5.764   8.799  0.1797 -0.6993  0.3406
   45CHL1   C26 5803   4.962   5.830   8.693 -0.1704  0.1488 -0.8237
   45CHL1  H26A 5804   5.061   5.784   8.669  0.0779  0.3989 -0.3075
   45CHL1  H26B 5805   4.905   5.865   8.605 -1.4476  0.2570  0.0165
   45CHL1  H26C 5806   4.967   5.929   8.744 -3.6472  1.3832 -2.5571
   45CHL1   C27 5807   4.886   5.591   8.708  0.1392 -0.4911  0.4009
   45CHL1  H27A 5808   4.983   5.542   8.684 -0.1558 -0.1662 -1.6393
   45CHL1  H27B 5809   4.830   5.514   8.766 -1.2745  0.6031  0.5580
   45CHL1  H27C 5810   4.837   5.599   8.609  1.1546 -1.3167 -0.1877
   46CHL1    C3 5811   2.889   1.716   9.965  0.0549 -0.5058  0.3948
   46CHL1    H3 5812   2.999   1.711   9.980  0.1404 -1.5746 -0.4465
   46CHL1    O3 5813   2.832   1.778  10.080 -0.0623 -0.0357  0.0380
   46CHL1   H3' 5814   2.741   1.802  10.058 -0.3992 -0.8951  0.4594
   46CHL1    C4 5815   2.844   1.806   9.850  0.3643  0.1423  0.2524
   46CHL1   H4A 5816   2.733   1.817   9.857  0.1855 -0.5400 -1.1164
   46CHL1   H4B 5817   2.874   1.906   9.887 -1.7615  0.5772  0.9464
   46CHL1    C5 5818   2.889   1.760   9.708 -0.0685  0.0862  0.2471
   46CHL1    C6 5819   2.936   1.840   9.620  0.7447 -0.2555 -0.3240
   46CHL1    H6 5820   2.959   1.945   9.643 -0.4724 -0.0196 -0.0905
   46CHL1    C7 5821   2.979   1.797   9.482  0.6611  0.4151 -0.7735
   46CHL1   H7A 5822   2.941   1.872   9.409  0.4511  0.3509 -0.7306
   46CHL1   H7B 5823   3.090   1.803   9.471  0.7148  2.3094  0.3932
   46CHL1    C8 5824   2.927   1.662   9.444  0.4527  0.1798 -0.7985
   46CHL1    H8 5825   2.823   1.676   9.408 -0.5310  1.2997  2.1796
   46CHL1   C14 5826   3.009   1.597   9.326 -0.3266  0.5259 -0.3121
   46CHL1   H14 5827   3.106   1.574   9.376 -0.8250  0.5530  0.6883
   46CHL1   C15 5828   3.031   1.682   9.198  0.1193 -0.2096 -0.6499
   46CHL1  H15A 5829   2.949   1.757   9.189  0.8685  0.9061  1.2497
   46CHL1  H15B 5830   3.121   1.747   9.203 -0.2823  0.3610 -0.7653
   46CHL1   C16 5831   3.058   1.580   9.090 -0.2890 -0.1815  0.7134
   46CHL1  H16A 5832   2.975   1.575   9.017 -0.2638  0.7861  0.6004
   46CHL1  H16B 5833   3.155   1.609   9.044 -0.2012  0.3821  1.2269
   46CHL1   C17 5834   3.061   1.442   9.160 -0.2255  0.2134 -0.6949
   46CHL1   H17 5835   3.164   1.437   9.202  0.5739  4.4983 -1.6595
   46CHL1   C13 5836   2.959   1.461   9.276  0.2323 -0.2828 -0.5269
   46CHL1   C18 5837   2.813   1.473   9.207 -0.4881  0.4962  0.2449
   46CHL1  H18A 5838   2.795   1.538   9.119 -0.6661 -0.7901 -0.6890
   46CHL1  H18B 5839   2.789   1.372   9.169  0.6091  0.8071 -1.3754
   46CHL1  H18C 5840   2.744   1.505   9.288 -0.4699 -0.5953  0.7061
   46CHL1   C12 5841   2.968   1.363   9.394 -0.0563  0.2046  0.2714
   46CHL1  H12A 5842   2.917   1.269   9.362  0.0285  0.9491 -2.2501
   46CHL1  H12B 5843   3.072   1.334   9.420 -0.4373 -4.1065 -2.0020
   46CHL1   C11 5844   2.890   1.421   9.513  0.3289 -0.1733 -0.2996
   46CHL1  H11A 5845   2.784   1.433   9.482 -0.5938  0.9222  2.8976
   46CHL1  H11B 5846   2.899   1.337   9.586 -4.0146 -2.3782 -1.9538
   46CHL1    C9 5847   2.929   1.558   9.559  0.4801 -0.4708  0.2321
   46CHL1    H9 5848   3.035   1.552   9.590 -0.4357 -2.5247  3.4766
   46CHL1   C10 5849   2.852   1.610   9.684 -0.2637 -0.4362 -0.0213
   46CHL1   C19 5850   2.694   1.606   9.650 -0.4945 -0.8853  0.3609
   46CHL1  H19A 5851   2.626   1.649   9.727  0.6890 -1.1339  1.5923
   46CHL1  H19B 5852   2.682   1.666   9.558 -0.5361 -2.8547 -0.9709
   46CHL1  H19C 5853   2.660   1.504   9.623  1.0802 -1.0049 -1.3154
   46CHL1    C1 5854   2.882   1.522   9.809  0.7067 -0.4956 -0.0616
   46CHL1   H1A 5855   2.834   1.427   9.778  2.6821 -1.6215  0.1440
   46CHL1   H1B 5856   2.991   1.501   9.819  0.7461  0.3830  1.7204
   46CHL1    C2 5857   2.831   1.573   9.943 -0.1577 -0.1233 -0.2453
   46CHL1   H2A 5858   2.867   1.512  10.028  4.1238  0.5687 -1.3214
   46CHL1   H2B 5859   2.720   1.577   9.941 -0.2031 -1.1353 -0.7620
   46CHL1   C20 5860   3.048   1.315   9.071 -0.4678 -0.4630  0.5536
   46CHL1   H20 5861   2.945   1.282   9.044 -0.1165 -1.1169 -0.0024
   46CHL1   C21 5862   3.117   1.189   9.135 -0.2275  0.6227  0.0044
   46CHL1  H21A 5863   3.228   1.195   9.132 -0.0355 -1.9326 -0.0854
   46CHL1  H21B 5864   3.091   1.100   9.075  1.1395 -1.0001  1.7223
   46CHL1  H21C 5865   3.088   1.171   9.241  0.1065 -3.0288 -0.4292
   46CHL1   C22 5866   3.116   1.330   8.930  0.2892 -0.3185 -0.2464
   46CHL1  H22A 5867   3.071   1.421   8.885 -2.5330 -1.8040 -0.6595
   46CHL1  H22B 5868   3.225   1.345   8.945  0.3026  0.7007 -1.2296
   46CHL1   C23 5869   3.091   1.221   8.834 -0.1399 -0.2730  0.0514
   46CHL1  H23A 5870   3.145   1.126   8.853  1.0594  0.3243 -0.2829
   46CHL1  H23B 5871   2.984   1.195   8.821  0.4593 -2.5888 -0.8583
   46CHL1   C24 5872   3.124   1.260   8.687 -0.5789 -0.8457 -0.3899
   46CHL1  H24A 5873   3.080   1.357   8.656  0.8461 -0.7149 -2.1678
   46CHL1  H24B 5874   3.234   1.269   8.686 -0.6833  0.7806 -0.9100
   46CHL1   C25 5875   3.077   1.158   8.573 -0.0980  0.6028 -0.7093
   46CHL1   H25 5876   2.971   1.139   8.601  0.0426 -0.2839 -0.7516
   46CHL1   C26 5877   3.097   1.222   8.436 -0.5602  0.4615  0.1255
   46CHL1  H26A 5878   3.071   1.144   8.360  1.2975 -1.9897  1.8719
   46CHL1  H26B 5879   3.028   1.309   8.424  0.0736  0.7774 -1.5887
   46CHL1  H26C 5880   3.205   1.247   8.437 -0.2113 -0.9969  1.2436
   46CHL1   C27 5881   3.165   1.038   8.585  0.4466  0.9963 -0.0998
   46CHL1  H27A 5882   3.272   1.066   8.578  0.4764  1.5236  1.9746
   46CHL1  H27B 5883   3.141   0.975   8.673  0.2924  0.3714 -0.5778
   46CHL1  H27C 5884   3.147   0.970   8.498 -0.3686 -3.0706  2.9550
   47CHL1    C3 5885   3.134   4.854  10.046  0.0552 -0.4521 -0.2495
   47CHL1    H3 5886   3.209   4.780  10.009  0.9034 -0.4264  1.3383
   47CHL1    O3 5887   3.166   4.888  10.183 -0.3866  0.6409  0.4808
   47CHL1   H3' 5888   3.233   4.956  10.171  1.8250 -1.3019  1.0755
   47CHL1    C4 5889   3.151   4.975   9.959  0.2293  0.0875 -0.7429
   47CHL1   H4A 5890   3.097   5.060  10.005 -1.0597 -0.8147 -0.5307
   47CHL1   H4B 5891   3.261   4.988   9.962  0.3377 -0.3039 -2.1752
   47CHL1    C5 5892   3.099   4.961   9.818 -0.1273  0.1252  0.0905
   47CHL1    C6 5893   3.168   4.999   9.713 -0.0501  0.3157 -0.4203
   47CHL1    H6 5894   3.268   5.045   9.716 -0.4155  1.2369 -1.3308
   47CHL1    C7 5895   3.125   4.973   9.582  0.7881  0.4193  0.3334
   47CHL1   H7A 5896   3.154   5.056   9.513 -1.0459  0.7028 -0.1504
   47CHL1   H7B 5897   3.177   4.887   9.535 -0.5939  0.2943 -1.0769
   47CHL1    C8 5898   2.974   4.958   9.557 -0.8392 -0.1760  0.2153
   47CHL1    H8 5899   2.928   5.055   9.587  1.8863  0.1960  3.7973
   47CHL1   C14 5900   2.937   4.914   9.415 -0.4694 -0.2899  0.1503
   47CHL1   H14 5901   2.988   4.818   9.394  0.9535  0.6444 -0.9015
   47CHL1   C15 5902   2.995   4.994   9.296  0.5503 -0.2673 -0.5142
   47CHL1  H15A 5903   2.996   5.104   9.311  1.4789  0.1122 -2.8788
   47CHL1  H15B 5904   3.100   4.959   9.288  0.8575  0.5240 -0.0487
   47CHL1   C16 5905   2.908   4.963   9.180  0.7513 -0.0688 -0.7586
   47CHL1  H16A 5906   2.871   5.054   9.129  1.3215  1.0858  0.8162
   47CHL1  H16B 5907   2.957   4.896   9.106  0.3569  0.5179 -1.5662
   47CHL1   C17 5908   2.784   4.879   9.240 -0.7202  0.5434  0.7438
   47CHL1   H17 5909   2.815   4.772   9.230  0.1363  0.8518 -0.1066
   47CHL1   C13 5910   2.788   4.901   9.392 -0.4455  0.4535  0.4711
   47CHL1   C18 5911   2.701   5.033   9.424 -0.7406  0.1220  0.8912
   47CHL1  H18A 5912   2.723   5.067   9.527 -0.3031  1.2262  0.4483
   47CHL1  H18B 5913   2.726   5.106   9.343  0.3137 -0.7014  0.4363
   47CHL1  H18C 5914   2.592   5.014   9.423 -0.7239  0.0301  0.7779
   47CHL1   C12 5915   2.739   4.780   9.488  0.2564 -0.4228 -0.1760
   47CHL1  H12A 5916   2.629   4.780   9.472  0.3535  0.5200 -0.9254
   47CHL1  H12B 5917   2.790   4.683   9.467  0.9317 -0.6103  2.0326
   47CHL1   C11 5918   2.768   4.814   9.634 -0.7304 -0.4071  0.5682
   47CHL1  H11A 5919   2.706   4.897   9.674 -1.3838 -0.8482  0.4885
   47CHL1  H11B 5920   2.738   4.725   9.693 -3.0398  0.4941  0.8709
   47CHL1    C9 5921   2.925   4.853   9.656  0.5251 -0.7737 -0.0272
   47CHL1    H9 5922   2.972   4.756   9.630  2.5325 -0.0955  0.9364
   47CHL1   C10 5923   2.961   4.887   9.801 -0.0854 -0.4040 -0.2394
   47CHL1   C19 5924   2.851   4.978   9.855 -0.1990  0.1440 -0.2253
   47CHL1  H19A 5925   2.870   5.025   9.954  2.4689 -1.5367  0.1485
   47CHL1  H19B 5926   2.843   5.062   9.782  1.8925  1.0928  0.5490
   47CHL1  H19C 5927   2.755   4.924   9.862  0.6782 -1.4687 -0.2032
   47CHL1    C1 5928   2.976   4.759   9.885  0.5912  0.3849  0.3998
   47CHL1   H1A 5929   2.878   4.708   9.869  1.3619 -0.6386 -1.3178
   47CHL1   H1B 5930   3.056   4.696   9.841 -1.6423 -1.9022 -0.6192
   47CHL1    C2 5931   2.997   4.785  10.031 -0.3381 -0.6829 -0.3622
   47CHL1   H2A 5932   3.020   4.705  10.104  0.9970  0.4817  0.5333
   47CHL1   H2B 5933   2.920   4.852  10.076 -0.2144 -0.7972  0.0192
   47CHL1   C20 5934   2.657   4.893   9.159 -0.2040  0.8541  0.2457
   47CHL1   H20 5935   2.611   4.994   9.165 -1.6774  0.3821 -1.8097
   47CHL1   C21 5936   2.554   4.795   9.216  0.1425 -0.2939  0.2345
   47CHL1  H21A 5937   2.596   4.692   9.220 -0.3792 -0.5778 -1.2328
   47CHL1  H21B 5938   2.459   4.800   9.159 -1.1371 -0.0427  2.2801
   47CHL1  H21C 5939   2.519   4.826   9.317  0.7166  1.0376  0.0430
   47CHL1   C22 5940   2.678   4.855   9.005  0.2739 -0.0180 -0.2220
   47CHL1  H22A 5941   2.752   4.920   8.954  0.9083 -0.5017  0.0632
   47CHL1  H22B 5942   2.730   4.757   9.004  0.1017 -0.1196 -1.8580
   47CHL1   C23 5943   2.549   4.860   8.916  0.3009  0.2287  0.1976
   47CHL1  H23A 5944   2.490   4.772   8.949  1.5556 -0.9195 -0.5332
   47CHL1  H23B 5945   2.498   4.957   8.935  0.5121  0.2536  0.6561
   47CHL1   C24 5946   2.575   4.854   8.769 -0.3436  0.6794 -0.8348
   47CHL1  H24A 5947   2.628   4.947   8.738 -0.3324  0.9938  0.1128
   47CHL1  H24B 5948   2.645   4.769   8.752  0.2782  1.4022 -2.0656
   47CHL1   C25 5949   2.450   4.820   8.680 -0.2857 -0.1280  0.2673
   47CHL1   H25 5950   2.384   4.908   8.688  1.4266  1.0919  1.7446
   47CHL1   C26 5951   2.490   4.812   8.536 -0.0405 -0.4611 -0.1996
   47CHL1  H26A 5952   2.546   4.900   8.500 -0.1715 -0.4735 -0.4407
   47CHL1  H26B 5953   2.401   4.784   8.474  0.9092 -1.4930 -1.1601
   47CHL1  H26C 5954   2.563   4.729   8.523 -0.2915 -0.7748  0.3485
   47CHL1   C27 5955   2.388   4.688   8.726  0.4434  0.7673  0.4318
   47CHL1  H27A 5956   2.466   4.610   8.741 -3.6447 -4.1198 -0.7128
   47CHL1  H27B 5957   2.349   4.702   8.829 -1.0840  2.4311 -0.3193
   47CHL1  H27C 5958   2.303   4.643   8.670 -1.1357  2.0033  1.7269
   48CHL1    C3 5959   3.917   6.793  10.290 -0.6244 -0.3321 -0.0643
   48CHL1    H3 5960   4.015   6.845  10.280 -0.3140 -0.8052  0.4115
   48CHL1    O3 5961   3.892   6.775  10.426  0.2633 -0.4825 -0.3719
   48CHL1   H3' 5962   3.800   6.802  10.434  0.3442 -0.2182 -0.3109
   48CHL1    C4 5963   3.812   6.880  10.228 -0.0180 -0.1080  0.5925
   48CHL1   H4A 5964   3.711   6.838  10.247 -0.5146  0.3270 -0.8964
   48CHL1   H4B 5965   3.805   6.981  10.274  2.2520  0.6835 -0.6030
   48CHL1    C5 5966   3.841   6.891  10.076 -0.2500 -0.0633  0.3848
   48CHL1    C6 5967   3.847   7.008  10.013 -0.0082 -0.5848 -0.4450
   48CHL1    H6 5968   3.841   7.102  10.069  1.8387  1.4462 -3.3218
   48CHL1    C7 5969   3.880   7.023   9.863  0.7154 -0.2497  0.5610
   48CHL1   H7A 5970   3.808   7.095   9.820 -0.4478  0.1434  2.9652
   48CHL1   H7B 5971   3.983   7.065   9.862  0.1226  1.3078 -0.9323
   48CHL1    C8 5972   3.861   6.895   9.778 -0.2329  0.6165 -0.1075
   48CHL1    H8 5973   3.756   6.875   9.748  0.2406 -0.8328 -0.9023
   48CHL1   C14 5974   3.936   6.912   9.651 -0.2451  0.3571  0.8513
   48CHL1   H14 5975   4.043   6.923   9.679 -0.1668 -1.1274  1.2669
   48CHL1   C15 5976   3.905   7.039   9.573 -0.6872 -0.3399  0.1784
   48CHL1  H15A 5977   3.794   7.037   9.561 -0.8519  0.7925  1.3792
   48CHL1  H15B 5978   3.943   7.117   9.642 -1.5225 -1.3813  1.8680
   48CHL1   C16 5979   3.990   7.022   9.447 -0.4516 -0.1854  0.2671
   48CHL1  H16A 5980   3.947   7.067   9.354  1.1434 -2.4666 -1.7130
   48CHL1  H16B 5981   4.095   7.054   9.458 -0.0240 -1.0391 -1.0676
   48CHL1   C17 5982   4.006   6.861   9.433 -0.0525  0.4650  0.7463
   48CHL1   H17 5983   4.112   6.836   9.456  0.2713  1.5616  0.5477
   48CHL1   C13 5984   3.922   6.798   9.546 -0.5736  0.2756 -0.1867
   48CHL1   C18 5985   3.780   6.761   9.496 -0.1765 -0.3936  0.0944
   48CHL1  H18A 5986   3.740   6.851   9.445 -1.4247 -1.0520 -0.1348
   48CHL1  H18B 5987   3.769   6.672   9.430 -0.2030  1.1962 -2.1877
   48CHL1  H18C 5988   3.717   6.736   9.583 -0.4647  0.0509  0.0179
   48CHL1   C12 5989   3.978   6.671   9.618  0.1191  0.7455  1.3797
   48CHL1  H12A 5990   3.971   6.586   9.547 -2.3621  1.5664  0.5059
   48CHL1  H12B 5991   4.085   6.678   9.647  0.2717  0.4883  0.8930
   48CHL1   C11 5992   3.900   6.644   9.758 -0.1581 -0.3340  0.7097
   48CHL1  H11A 5993   3.792   6.619   9.745 -0.0692 -0.7037  0.6799
   48CHL1  H11B 5994   3.950   6.561   9.813 -0.5203 -0.7122  0.4753
   48CHL1    C9 5995   3.901   6.768   9.847 -0.0709 -0.0049 -1.5082
   48CHL1    H9 5996   4.008   6.780   9.876  0.1905 -2.4743 -1.2219
   48CHL1   C10 5997   3.855   6.752   9.993  0.0970  0.0084  0.4535
   48CHL1   C19 5998   3.713   6.694   9.996 -0.0550  0.1865  0.3949
   48CHL1  H19A 5999   3.668   6.696  10.097  0.5553 -0.3776  0.6878
   48CHL1  H19B 6000   3.656   6.756   9.923  2.7566  0.5012 -1.6845
   48CHL1  H19C 6001   3.722   6.587   9.968 -1.6933 -0.3443  1.7382
   48CHL1    C1 6002   3.956   6.658  10.071 -0.0423  0.8289  0.2729
   48CHL1   H1A 6003   3.967   6.558  10.025 -1.2338  0.3557  0.9508
   48CHL1   H1B 6004   4.051   6.713  10.060  0.2653  0.4624  1.0198
   48CHL1    C2 6005   3.921   6.656  10.224 -0.3377 -0.2525 -0.3070
   48CHL1   H2A 6006   4.003   6.606  10.280 -0.1255  0.9340  0.4704
   48CHL1   H2B 6007   3.826   6.603  10.244 -1.3575  2.0703  1.4862
   48CHL1   C20 6008   3.992   6.806   9.292 -0.4128  0.6202 -0.3428
   48CHL1   H20 6009   3.882   6.800   9.274 -1.2327  1.4814  3.5441
   48CHL1   C21 6010   4.052   6.665   9.275 -0.1585 -0.3416  0.7131
   48CHL1  H21A 6011   4.163   6.669   9.281 -0.1697  0.1937  0.6454
   48CHL1  H21B 6012   4.014   6.630   9.176 -0.6135 -0.3374  0.8858
   48CHL1  H21C 6013   4.010   6.593   9.347 -2.2473 -0.6644 -0.7552
   48CHL1   C22 6014   4.054   6.894   9.179 -0.0622  0.1973 -0.1432
   48CHL1  H22A 6015   4.009   6.995   9.177  0.0180  0.2252 -1.1383
   48CHL1  H22B 6016   4.163   6.903   9.200 -0.2782  1.2360  0.5669
   48CHL1   C23 6017   4.050   6.848   9.035 -0.2585 -0.3260 -0.1796
   48CHL1  H23A 6018   4.109   6.754   9.025 -0.3200 -0.2516 -1.4773
   48CHL1  H23B 6019   3.947   6.811   9.015 -0.5883 -1.2319  2.7060
   48CHL1   C24 6020   4.103   6.945   8.933 -0.1012 -0.6363 -0.0785
   48CHL1  H24A 6021   4.031   7.026   8.913 -1.6348 -2.1837 -1.1009
   48CHL1  H24B 6022   4.201   6.990   8.960 -0.3259 -0.5089  0.5299
   48CHL1   C25 6023   4.126   6.876   8.793 -0.0782  0.3728  0.0163
   48CHL1   H25 6024   4.205   6.799   8.810 -0.8482 -0.4781 -0.2013
   48CHL1   C26 6025   4.000   6.804   8.745 -0.1203 -0.0124  0.4115
   48CHL1  H26A 6026   4.005   6.763   8.642 -1.1775  2.4434 -0.6999
   48CHL1  H26B 6027   3.973   6.730   8.824  2.2408  0.4449  1.7381
   48CHL1  H26C 6028   3.918   6.877   8.728  0.6935  0.6516 -0.6817
   48CHL1   C27 6029   4.165   6.987   8.691 -0.2556 -0.1402 -0.3870
   48CHL1  H27A 6030   4.175   6.932   8.596  1.4301  0.6543 -0.7202
   48CHL1  H27B 6031   4.073   7.048   8.687 -0.1199  0.0090 -1.2417
   48CHL1  H27C 6032   4.251   7.053   8.718 -0.3570 -0.1609  0.0022
   49CHL1    C3 6033   3.261   1.944  10.107 -0.3435  0.1630 -0.9116
   49CHL1    H3 6034   3.155   1.926  10.081 -0.1271  0.2578 -1.9149
   49CHL1    O3 6035   3.253   1.987  10.247  0.3572  0.1444  0.6333
   49CHL1   H3' 6036   3.342   2.016  10.265  0.7400 -1.4678  1.5143
   49CHL1    C4 6037   3.349   1.818  10.106  0.7121 -0.7927  0.5424
   49CHL1   H4A 6038   3.457   1.837  10.127  0.6597 -1.0234  1.0335
   49CHL1   H4B 6039   3.303   1.745  10.175 -2.8318  1.4531  0.7553
   49CHL1    C5 6040   3.345   1.759   9.959  0.1790  0.9762  0.0158
   49CHL1    C6 6041   3.311   1.631   9.939 -0.2223  0.2807  0.3890
   49CHL1    H6 6042   3.280   1.576  10.029  0.8383 -0.8364  0.0954
   49CHL1    C7 6043   3.319   1.559   9.808 -0.6055  0.0497  0.6567
   49CHL1   H7A 6044   3.362   1.459   9.829  2.2800  1.5461  2.5765
   49CHL1   H7B 6045   3.218   1.548   9.763  0.6227  0.5124 -2.4672
   49CHL1    C8 6046   3.415   1.640   9.708 -0.1422  0.4233  0.5667
   49CHL1    H8 6047   3.521   1.617   9.728 -0.4758 -0.1525  1.7824
   49CHL1   C14 6048   3.385   1.590   9.565  0.4229 -0.4428 -0.1987
   49CHL1   H14 6049   3.276   1.599   9.546  0.6090 -0.3098 -1.2722
   49CHL1   C15 6050   3.396   1.443   9.532  0.4752  0.0781 -0.3813
   49CHL1  H15A 6051   3.484   1.387   9.571  1.6749  1.8013 -0.5263
   49CHL1  H15B 6052   3.307   1.385   9.564 -0.6859  1.6728 -0.6194
   49CHL1   C16 6053   3.405   1.438   9.376  0.5673 -0.1990  0.3512
   49CHL1  H16A 6054   3.493   1.378   9.343 -1.1979 -1.3282 -2.7647
   49CHL1  H16B 6055   3.309   1.395   9.340 -0.4409  3.4451 -1.9129
   49CHL1   C17 6056   3.405   1.583   9.323 -0.9779 -0.4135 -0.1568
   49CHL1   H17 6057   3.304   1.627   9.319 -0.7682  0.1972  0.8460
   49CHL1   C13 6058   3.459   1.663   9.450 -0.7577 -0.8755  0.9868
   49CHL1   C18 6059   3.615   1.635   9.470 -0.8333 -0.0569 -0.0248
   49CHL1  H18A 6060   3.632   1.527   9.491  0.7182 -0.2470 -1.9525
   49CHL1  H18B 6061   3.665   1.675   9.379 -2.4416  1.2820 -0.3592
   49CHL1  H18C 6062   3.671   1.687   9.551 -3.4331  2.7276  0.1822
   49CHL1   C12 6063   3.430   1.810   9.463  0.3143  0.4545  0.4986
   49CHL1  H12A 6064   3.490   1.870   9.391  1.5138 -0.5076  0.6642
   49CHL1  H12B 6065   3.324   1.822   9.433  0.3624 -0.6550 -0.1623
   49CHL1   C11 6066   3.454   1.868   9.598  0.3962  0.3818 -0.7661
   49CHL1  H11A 6067   3.564   1.873   9.610  0.0468  3.8644  3.3834
   49CHL1  H11B 6068   3.411   1.970   9.598 -1.4861 -0.3242  0.8876
   49CHL1    C9 6069   3.381   1.788   9.713 -0.2478  0.5155 -0.4551
   49CHL1    H9 6070   3.272   1.799   9.694 -0.2172 -1.6459 -2.2406
   49CHL1   C10 6071   3.403   1.850   9.852 -0.3360 -0.1858  0.2117
   49CHL1   C19 6072   3.555   1.882   9.864  0.3006 -0.8066 -0.0830
   49CHL1  H19A 6073   3.587   1.897   9.969 -0.4706 -0.6764  0.1374
   49CHL1  H19B 6074   3.620   1.796   9.838  0.7346 -0.4315 -0.2583
   49CHL1  H19C 6075   3.598   1.958   9.796 -0.3794  1.4996  1.9016
   49CHL1    C1 6076   3.332   1.985   9.866 -0.2733 -0.1181  0.5359
   49CHL1   H1A 6077   3.379   2.063   9.802 -1.3621 -0.0848 -0.2530
   49CHL1   H1B 6078   3.227   1.977   9.832 -0.7455 -1.5937  2.1853
   49CHL1    C2 6079   3.329   2.048  10.013  0.1887  0.4280  0.4683
   49CHL1   H2A 6080   3.273   2.144  10.012  1.5505  1.2394 -0.3517
   49CHL1   H2B 6081   3.430   2.062  10.056 -0.3430  1.3185  1.4780
   49CHL1   C20 6082   3.476   1.603   9.191  0.0927 -0.4590  0.1987
   49CHL1   H20 6083   3.586   1.594   9.204  0.2245 -1.2788 -1.1706
   49CHL1   C21 6084   3.439   1.744   9.141 -0.2517 -0.6283 -0.3441
   49CHL1  H21A 6085   3.469   1.828   9.207 -2.6874  2.1149 -2.4416
   49CHL1  H21B 6086   3.329   1.759   9.128 -0.2660  2.4279  2.2427
   49CHL1  H21C 6087   3.488   1.773   9.045  2.4298 -2.8422  0.2290
   49CHL1   C22 6088   3.437   1.507   9.079 -0.0712  0.0050  0.0088
   49CHL1  H22A 6089   3.475   1.412   9.123  0.6434  0.0584 -0.4904
   49CHL1  H22B 6090   3.328   1.489   9.064  0.0344 -1.8289  1.1207
   49CHL1   C23 6091   3.499   1.529   8.941 -0.1888  0.4311  0.3660
   49CHL1  H23A 6092   3.459   1.448   8.877 -1.1152 -0.2280  1.7336
   49CHL1  H23B 6093   3.437   1.608   8.892 -1.0319 -0.8202 -0.6425
   49CHL1   C24 6094   3.648   1.552   8.936  1.1460 -0.4580  0.1796
   49CHL1  H24A 6095   3.663   1.659   8.960  1.0943 -0.5620  0.6713
   49CHL1  H24B 6096   3.715   1.482   8.991  3.1981 -0.6779 -2.3871
   49CHL1   C25 6097   3.712   1.528   8.793  0.4385 -0.3121 -0.6652
   49CHL1   H25 6098   3.699   1.418   8.780  0.0710 -0.3220 -0.1855
   49CHL1   C26 6099   3.636   1.606   8.687 -0.7915  0.3647 -0.7133
   49CHL1  H26A 6100   3.544   1.552   8.657  0.5265 -1.1855 -2.2090
   49CHL1  H26B 6101   3.610   1.711   8.711  0.8191  0.1433  2.6508
   49CHL1  H26C 6102   3.701   1.611   8.597  1.2509  1.0730  0.7299
   49CHL1   C27 6103   3.862   1.574   8.787 -0.1457  0.3854 -0.0418
   49CHL1  H27A 6104   3.866   1.683   8.807 -0.9141  0.0933  1.9587
   49CHL1  H27B 6105   3.914   1.518   8.868  0.1244 -0.7866 -0.9940
   49CHL1  H27C 6106   3.900   1.542   8.688 -1.1519 -0.3580 -0.2107
   50CHL1    C3 6107   4.400   4.406  10.080  0.2025 -0.7971  0.3962
   50CHL1    H3 6108   4.437   4.302  10.065  0.3118 -0.3855 -2.9850
   50CHL1    O3 6109   4.407   4.448  10.218 -0.2017 -0.2929  0.1918
   50CHL1   H3' 6110   4.374   4.538  10.220 -0.0691 -0.2410 -0.0167
   50CHL1    C4 6111   4.469   4.514   9.992  0.2102  0.2365  0.3077
   50CHL1   H4A 6112   4.436   4.612  10.033  0.2925 -0.7677  3.0007
   50CHL1   H4B 6113   4.574   4.492  10.020  0.4831  2.4036  1.2256
   50CHL1    C5 6114   4.448   4.505   9.838 -0.4938 -0.1809 -0.4551
   50CHL1    C6 6115   4.554   4.501   9.751 -0.0212  0.3420  0.0327
   50CHL1    H6 6116   4.659   4.486   9.780  0.2408 -0.7273 -1.3815
   50CHL1    C7 6117   4.550   4.488   9.607  1.1146 -0.0058 -0.5360
   50CHL1   H7A 6118   4.611   4.571   9.566  1.7266 -0.6155 -0.8852
   50CHL1   H7B 6119   4.589   4.387   9.580  0.4795 -0.3606 -0.1405
   50CHL1    C8 6120   4.402   4.502   9.553 -0.5075 -0.0525 -0.2973
   50CHL1    H8 6121   4.375   4.608   9.568 -0.3439 -0.0429 -0.0623
   50CHL1   C14 6122   4.389   4.451   9.415  0.8604  0.3447  0.2570
   50CHL1   H14 6123   4.396   4.340   9.420  1.3035  0.3814  0.4823
   50CHL1   C15 6124   4.505   4.495   9.323 -0.2374 -0.1157  0.1398
   50CHL1  H15A 6125   4.547   4.596   9.344 -0.4364  0.1837 -0.8289
   50CHL1  H15B 6126   4.585   4.419   9.341 -0.4383 -0.5054 -0.5653
   50CHL1   C16 6127   4.445   4.495   9.178 -0.3925  0.3168  0.7551
   50CHL1  H16A 6128   4.437   4.602   9.152  5.0223  0.7879 -0.1640
   50CHL1  H16B 6129   4.509   4.443   9.103 -0.3803 -1.1940  1.7551
   50CHL1   C17 6130   4.299   4.430   9.196  0.1257 -0.1742  0.5470
   50CHL1   H17 6131   4.313   4.320   9.203  0.0202 -0.1791  0.6945
   50CHL1   C13 6132   4.254   4.474   9.339 -0.1500 -0.3530  0.2626
   50CHL1   C18 6133   4.212   4.624   9.334  0.4842  0.0893 -0.2332
   50CHL1  H18A 6134   4.225   4.684   9.426 -1.2769  2.1378 -1.2420
   50CHL1  H18B 6135   4.251   4.679   9.245  0.4873 -0.5457 -0.6309
   50CHL1  H18C 6136   4.104   4.610   9.313 -0.0172  0.0539  2.0667
   50CHL1   C12 6137   4.157   4.386   9.426  0.3503  0.4749 -0.2956
   50CHL1  H12A 6138   4.056   4.394   9.381 -0.7234 -0.0843  1.8592
   50CHL1  H12B 6139   4.194   4.281   9.428 -1.4386 -0.1965 -0.6074
   50CHL1   C11 6140   4.162   4.438   9.576 -0.1142  0.0245 -0.7394
   50CHL1  H11A 6141   4.124   4.541   9.564 -0.6604 -0.2479 -1.4676
   50CHL1  H11B 6142   4.084   4.385   9.635  0.1541  2.3682  1.9565
   50CHL1    C9 6143   4.301   4.430   9.644 -0.4231 -0.0589 -0.5410
   50CHL1    H9 6144   4.337   4.325   9.644 -1.7196 -0.5189 -0.7483
   50CHL1   C10 6145   4.306   4.479   9.787 -0.6847  0.2480  0.0323
   50CHL1   C19 6146   4.233   4.615   9.805 -0.0751 -0.6471 -0.3301
   50CHL1  H19A 6147   4.252   4.666   9.902 -0.6022  1.8195 -1.4462
   50CHL1  H19B 6148   4.264   4.694   9.733 -0.7221 -0.4518 -0.3934
   50CHL1  H19C 6149   4.123   4.605   9.798 -0.5568  1.3304  2.4164
   50CHL1    C1 6150   4.228   4.383   9.880 -0.7974  0.4266 -0.3168
   50CHL1   H1A 6151   4.121   4.381   9.849 -1.1819 -2.4138  0.8774
   50CHL1   H1B 6152   4.272   4.282   9.876  1.0377  1.1354  0.7855
   50CHL1    C2 6153   4.248   4.414  10.031 -0.1838  0.2097 -0.0801
   50CHL1   H2A 6154   4.182   4.346  10.088  0.9346 -1.3618 -0.5854
   50CHL1   H2B 6155   4.203   4.511  10.061 -1.3415 -0.2252 -0.3604
   50CHL1   C20 6156   4.206   4.452   9.073 -0.0546 -0.1435 -0.3982
   50CHL1   H20 6157   4.185   4.560   9.055  1.7886  0.5568  1.2255
   50CHL1   C21 6158   4.075   4.377   9.098  0.1731 -0.1779 -0.0542
   50CHL1  H21A 6159   4.026   4.370   8.999  0.8433  0.9325 -0.4816
   50CHL1  H21B 6160   4.025   4.442   9.174  2.2037  1.4633 -0.0468
   50CHL1  H21C 6161   4.087   4.273   9.135 -0.8600 -0.8937 -1.6169
   50CHL1   C22 6162   4.277   4.388   8.945 -0.7742  0.7694 -0.4195
   50CHL1  H22A 6163   4.380   4.425   8.928 -0.3803  0.2626  0.7358
   50CHL1  H22B 6164   4.287   4.285   8.987  1.4718 -0.0928 -2.8066
   50CHL1   C23 6165   4.202   4.394   8.813 -0.5536 -0.1295 -0.1683
   50CHL1  H23A 6166   4.114   4.325   8.810 -1.0881  0.4259  1.5675
   50CHL1  H23B 6167   4.188   4.500   8.784 -1.0751  0.0866  0.8183
   50CHL1   C24 6168   4.299   4.353   8.702 -0.1474  0.3695  0.2194
   50CHL1  H24A 6169   4.378   4.429   8.687 -0.5176  0.7955  0.3911
   50CHL1  H24B 6170   4.352   4.260   8.732 -1.6805  0.0799  2.2530
   50CHL1   C25 6171   4.237   4.321   8.559 -0.0046  0.6108  0.0903
   50CHL1   H25 6172   4.191   4.220   8.559  0.5644  0.3429  0.7833
   50CHL1   C26 6173   4.143   4.429   8.499 -0.8639 -0.1664  0.0723
   50CHL1  H26A 6174   4.133   4.402   8.392  2.0560 -0.8703 -0.1214
   50CHL1  H26B 6175   4.046   4.440   8.552 -0.3949  3.1657  0.4463
   50CHL1  H26C 6176   4.203   4.522   8.514  1.1789 -1.2650 -0.8877
   50CHL1   C27 6177   4.357   4.296   8.465  0.0571  0.1285  0.5137
   50CHL1  H27A 6178   4.403   4.199   8.496  1.1310  0.2689 -0.5728
   50CHL1  H27B 6179   4.350   4.294   8.354  0.6878 -0.4126  0.4757
   50CHL1  H27C 6180   4.428   4.379   8.483  0.4245 -0.3086  1.1267
   51CHL1    C3 6181   2.191   5.595  10.061 -0.9724 -0.3114  0.4006
   51CHL1    H3 6182   2.176   5.487  10.041  1.3034 -0.8994  1.4870
   51CHL1    O3 6183   2.204   5.608  10.200  0.1865  0.2366 -0.9512
   51CHL1   H3' 6184   2.176   5.699  10.202 -0.4943  0.0682 -2.0646
   51CHL1    C4 6185   2.327   5.635  10.008  0.6584 -0.2122 -0.2368
   51CHL1   H4A 6186   2.359   5.738  10.036 -2.7964  0.9908 -0.2056
   51CHL1   H4B 6187   2.404   5.564  10.045  0.4340 -0.9812 -1.2304
   51CHL1    C5 6188   2.323   5.625   9.857 -0.6238 -0.3693  0.5118
   51CHL1    C6 6189   2.410   5.548   9.791  0.3465  0.7059  0.4603
   51CHL1    H6 6190   2.495   5.503   9.845  2.7101  0.8144 -2.8687
   51CHL1    C7 6191   2.416   5.544   9.634 -0.1678 -0.1194  0.0154
   51CHL1   H7A 6192   2.521   5.555   9.601 -0.5749 -0.3830 -1.4233
   51CHL1   H7B 6193   2.380   5.445   9.598 -1.5156 -0.5499  2.3260
   51CHL1    C8 6194   2.336   5.658   9.569  0.1146 -0.0466  0.0727
   51CHL1    H8 6195   2.389   5.754   9.589  1.0049 -0.6240  0.5713
   51CHL1   C14 6196   2.322   5.639   9.419  0.5418 -0.2823  0.4993
   51CHL1   H14 6197   2.279   5.539   9.402  0.9275 -0.1054 -1.7526
   51CHL1   C15 6198   2.456   5.634   9.338 -0.3698 -0.0087 -0.2714
   51CHL1  H15A 6199   2.507   5.726   9.373  2.3078 -0.6491 -2.1381
   51CHL1  H15B 6200   2.512   5.545   9.374 -1.1510  0.2513  1.6842
   51CHL1   C16 6201   2.410   5.647   9.199  0.6007 -0.4578 -0.2739
   51CHL1  H16A 6202   2.462   5.734   9.155  0.5836  0.6577  1.7969
   51CHL1  H16B 6203   2.426   5.552   9.143  0.6671  1.4441 -3.7674
   51CHL1   C17 6204   2.258   5.690   9.203 -0.0739 -1.0628 -0.1029
   51CHL1   H17 6205   2.199   5.596   9.203 -1.8518 -0.0402  1.3671
   51CHL1   C13 6206   2.233   5.737   9.351 -0.7732 -0.3472 -0.2729
   51CHL1   C18 6207   2.278   5.885   9.379  0.2205  0.3279  0.0030
   51CHL1  H18A 6208   2.377   5.905   9.333 -0.1355  1.3987 -0.3006
   51CHL1  H18B 6209   2.203   5.958   9.342  2.7347  2.5077 -1.0862
   51CHL1  H18C 6210   2.278   5.903   9.489 -0.7134  1.4330 -0.1659
   51CHL1   C12 6211   2.092   5.714   9.409  0.2032  0.2592  0.2812
   51CHL1  H12A 6212   2.018   5.780   9.359  1.4303 -0.3354 -2.5480
   51CHL1  H12B 6213   2.072   5.610   9.377 -2.9444  0.7309  0.3334
   51CHL1   C11 6214   2.092   5.740   9.553 -0.2283  0.0515 -0.1066
   51CHL1  H11A 6215   2.086   5.850   9.564 -1.6816  0.0242 -0.4745
   51CHL1  H11B 6216   1.993   5.709   9.593 -0.0983  1.7425  1.6472
   51CHL1    C9 6217   2.197   5.661   9.638  0.7420 -0.2142  0.2070
   51CHL1    H9 6218   2.156   5.558   9.635  1.4057 -0.4967  0.5574
   51CHL1   C10 6219   2.205   5.703   9.787  0.3127 -0.0780  0.5626
   51CHL1   C19 6220   2.222   5.856   9.798 -0.1960 -0.7915 -0.1340
   51CHL1  H19A 6221   2.120   5.900   9.799 -1.2589 -3.1044  0.6503
   51CHL1  H19B 6222   2.257   5.887   9.898 -1.0639  2.0403 -0.6297
   51CHL1  H19C 6223   2.286   5.908   9.724 -0.9508  2.7465  1.4943
   51CHL1    C1 6224   2.070   5.658   9.858 -0.4292 -0.6299 -0.1261
   51CHL1   H1A 6225   1.990   5.712   9.802  0.5799 -0.0104 -1.0041
   51CHL1   H1B 6226   2.055   5.548   9.847 -0.7772 -0.5010 -1.0787
   51CHL1    C2 6227   2.080   5.679  10.012 -0.1930 -0.1869  0.6639
   51CHL1   H2A 6228   1.984   5.642  10.055  0.4172 -0.7887  1.5289
   51CHL1   H2B 6229   2.089   5.787  10.035  0.0050  0.2350 -1.2162
   51CHL1   C20 6230   2.215   5.777   9.079  0.6025  0.3594  0.2969
   51CHL1   H20 6231   2.261   5.878   9.082 -3.3438  2.3475  1.6436
   51CHL1   C21 6232   2.059   5.806   9.083 -0.2291  0.1961 -0.7262
   51CHL1  H21A 6233   2.025   5.843   8.984  0.5385 -1.8300 -1.8002
   51CHL1  H21B 6234   2.051   5.885   9.161 -1.7720 -0.9384  0.3267
   51CHL1  H21C 6235   2.005   5.713   9.111  2.3065 -0.5389  2.2722
   51CHL1   C22 6236   2.252   5.718   8.937  0.2677  0.6365 -1.1104
   51CHL1  H22A 6237   2.350   5.667   8.950 -0.9523 -1.6560 -0.3448
   51CHL1  H22B 6238   2.179   5.639   8.909  1.4188 -0.8199 -0.1376
   51CHL1   C23 6239   2.258   5.829   8.828  0.4371  0.7137 -0.7230
   51CHL1  H23A 6240   2.164   5.887   8.816  1.4747  2.7837  0.6871
   51CHL1  H23B 6241   2.340   5.896   8.860 -1.4632  1.3027  3.5513
   51CHL1   C24 6242   2.298   5.776   8.696  0.8524  0.9308  0.6460
   51CHL1  H24A 6243   2.398   5.727   8.696 -0.0294 -1.0471 -1.2099
   51CHL1  H24B 6244   2.225   5.698   8.665  0.2129  2.4444 -1.8794
   51CHL1   C25 6245   2.311   5.879   8.584 -0.2583 -0.1881 -0.0782
   51CHL1   H25 6246   2.407   5.934   8.595  0.4015 -1.1343 -0.9844
   51CHL1   C26 6247   2.328   5.792   8.456 -0.6339  0.5174 -0.2980
   51CHL1  H26A 6248   2.356   5.851   8.366  0.6678  0.1160 -0.1826
   51CHL1  H26B 6249   2.420   5.729   8.461 -1.0459 -0.1387 -0.8275
   51CHL1  H26C 6250   2.245   5.722   8.436 -1.2607  0.9092  0.8494
   51CHL1   C27 6251   2.200   5.987   8.556 -0.2911  0.5312 -0.3417
   51CHL1  H27A 6252   2.231   6.050   8.470 -1.7321  0.0455 -1.2658
   51CHL1  H27B 6253   2.101   5.941   8.532 -0.3776 -0.4780  1.6907
   51CHL1  H27C 6254   2.182   6.061   8.636  1.5265  0.9364 -0.2740
   52CHL1    C3 6255   2.111   3.692   9.944  0.1333 -0.1139 -0.0477
   52CHL1    H3 6256   2.107   3.583   9.968 -1.9110  0.2031  1.3256
   52CHL1    O3 6257   2.093   3.752  10.072 -0.2947 -0.6276  0.1306
   52CHL1   H3' 6258   2.095   3.848  10.064 -0.6108 -0.4802  1.4732
   52CHL1    C4 6259   2.246   3.729   9.877 -0.1829  0.1760  0.0300
   52CHL1   H4A 6260   2.253   3.840   9.875 -0.9105  0.2229 -0.5143
   52CHL1   H4B 6261   2.324   3.677   9.936  1.5419  1.4020 -1.0634
   52CHL1    C5 6262   2.258   3.681   9.734  0.0148  0.5094  1.0955
   52CHL1    C6 6263   2.360   3.601   9.689 -0.3385 -0.1643 -0.4221
   52CHL1    H6 6264   2.442   3.568   9.755  1.2924  1.1726 -1.6657
   52CHL1    C7 6265   2.374   3.546   9.548  0.2125 -0.1877 -0.2519
   52CHL1   H7A 6266   2.476   3.550   9.503  0.9725 -3.7982  0.8744
   52CHL1   H7B 6267   2.345   3.439   9.556  2.8020 -1.1894 -2.6069
   52CHL1    C8 6268   2.280   3.606   9.450  0.2845  0.7172  0.1849
   52CHL1    H8 6269   2.316   3.707   9.422  1.1979 -0.0785 -1.6967
   52CHL1   C14 6270   2.276   3.527   9.321 -0.4973  0.2742 -0.0725
   52CHL1   H14 6271   2.240   3.424   9.345 -2.5974  1.2754  1.4658
   52CHL1   C15 6272   2.410   3.494   9.245  0.1174  0.8869  0.5216
   52CHL1  H15A 6273   2.477   3.583   9.250 -0.2176  1.4269 -2.6022
   52CHL1  H15B 6274   2.462   3.407   9.289  1.1208  1.9269  1.4580
   52CHL1   C16 6275   2.374   3.464   9.100  0.0742 -0.0059 -0.1053
   52CHL1  H16A 6276   2.432   3.530   9.033  0.9200 -1.6269 -1.0259
   52CHL1  H16B 6277   2.377   3.356   9.075 -0.0956  0.4471 -2.2414
   52CHL1   C17 6278   2.219   3.500   9.094 -0.2032  0.3408  0.5558
   52CHL1   H17 6279   2.159   3.408   9.102 -2.2280  1.4789 -0.8113
   52CHL1   C13 6280   2.193   3.597   9.215  0.3922  0.3222  0.7642
   52CHL1   C18 6281   2.237   3.738   9.172  0.6351 -0.9692 -0.2709
   52CHL1  H18A 6282   2.346   3.738   9.153  0.2647  0.3861 -2.8388
   52CHL1  H18B 6283   2.182   3.780   9.085  0.2109 -0.8863  0.0313
   52CHL1  H18C 6284   2.224   3.810   9.256  0.7348 -0.8540 -0.3530
   52CHL1   C12 6285   2.046   3.599   9.265  0.3195 -0.0204  0.5865
   52CHL1  H12A 6286   1.979   3.650   9.193  1.8683 -0.4449 -1.2195
   52CHL1  H12B 6287   2.003   3.499   9.288 -1.1673  1.0416  2.8435
   52CHL1   C11 6288   2.036   3.683   9.398 -0.0218  0.2677  0.4829
   52CHL1  H11A 6289   2.054   3.789   9.367 -0.5974  0.6275  1.3355
   52CHL1  H11B 6290   1.929   3.675   9.426  0.1874 -0.6170  1.0430
   52CHL1    C9 6291   2.140   3.638   9.504 -0.2092  0.5066  0.6237
   52CHL1    H9 6292   2.099   3.538   9.532 -0.0567 -0.5792 -2.6265
   52CHL1   C10 6293   2.141   3.717   9.644  0.6250  0.0918 -0.5169
   52CHL1   C19 6294   2.148   3.864   9.609  0.4641  0.4468 -0.4614
   52CHL1  H19A 6295   2.235   3.901   9.550 -0.8750 -1.7241 -4.1065
   52CHL1  H19B 6296   2.055   3.886   9.552  0.0924 -2.3890 -1.0564
   52CHL1  H19C 6297   2.137   3.925   9.702  1.4737 -0.0543  0.0130
   52CHL1    C1 6298   1.996   3.680   9.710 -0.8870  0.5261 -0.5473
   52CHL1   H1A 6299   1.904   3.713   9.658 -0.8402 -0.6943 -1.4458
   52CHL1   H1B 6300   1.988   3.569   9.717 -0.1301  0.4341 -0.9903
   52CHL1    C2 6301   1.991   3.735   9.857 -0.0449  0.3334  0.7160
   52CHL1   H2A 6302   1.897   3.700   9.906 -0.0553  1.2635  1.4053
   52CHL1   H2B 6303   1.982   3.846   9.858  0.1048  0.3919 -1.4055
   52CHL1   C20 6304   2.189   3.555   8.955  0.1645  0.6830 -0.2196
   52CHL1   H20 6305   2.234   3.655   8.936 -2.8646  1.8159 -2.1071
   52CHL1   C21 6306   2.042   3.578   8.937  0.2059  0.7071 -0.0326
   52CHL1  H21A 6307   2.004   3.668   8.990  0.6303  2.9703 -3.2783
   52CHL1  H21B 6308   1.986   3.490   8.977  0.7497  0.3306 -0.0802
   52CHL1  H21C 6309   2.006   3.584   8.832 -2.0682 -0.5645  0.6079
   52CHL1   C22 6310   2.253   3.461   8.844  0.0166 -0.3013 -0.7125
   52CHL1  H22A 6311   2.226   3.507   8.747 -0.7695  1.8420  0.4593
   52CHL1  H22B 6312   2.364   3.463   8.841  0.2895  0.0020  3.4158
   52CHL1   C23 6313   2.202   3.319   8.834  0.3725 -0.5569 -0.0215
   52CHL1  H23A 6314   2.203   3.261   8.929  0.7339 -0.9577 -0.2631
   52CHL1  H23B 6315   2.092   3.315   8.821  0.3790 -1.8826  0.1500
   52CHL1   C24 6316   2.280   3.254   8.715 -1.0348 -0.6562  0.3926
   52CHL1  H24A 6317   2.313   3.329   8.640  0.5104 -1.6610  0.0341
   52CHL1  H24B 6318   2.377   3.214   8.750 -1.3545 -0.3971  1.6291
   52CHL1   C25 6319   2.203   3.139   8.653 -0.3261 -0.2347  0.8581
   52CHL1   H25 6320   2.176   3.060   8.727 -1.5521 -1.2751 -0.6473
   52CHL1   C26 6321   2.068   3.187   8.592 -0.7160  0.6850  0.2037
   52CHL1  H26A 6322   2.096   3.278   8.535  0.4103  0.6480  0.6636
   52CHL1  H26B 6323   2.033   3.109   8.521  1.2241  0.3351 -0.4324
   52CHL1  H26C 6324   1.992   3.208   8.671  1.2724 -0.1505  2.4788
   52CHL1   C27 6325   2.288   3.074   8.550  0.0984 -0.0290  0.2286
   52CHL1  H27A 6326   2.323   3.136   8.465  0.5313 -0.2100  0.2722
   52CHL1  H27B 6327   2.377   3.022   8.593  0.8003  0.8059 -0.1761
   52CHL1  H27C 6328   2.236   2.988   8.503 -1.4066  1.2484 -0.5451
   53CHL1    C3 6329   2.222   3.194   9.951  0.0802  0.4173 -0.7062
   53CHL1    H3 6330   2.118   3.208   9.914 -0.0402  2.2066  0.1703
   53CHL1    O3 6331   2.228   3.233  10.085  0.4754  1.3055 -0.4601
   53CHL1   H3' 6332   2.309   3.197  10.122 -1.8911 -0.1815  4.0622
   53CHL1    C4 6333   2.272   3.050   9.950 -1.1034 -0.4706  0.1194
   53CHL1   H4A 6334   2.372   3.054  10.000 -1.5265 -0.3690  0.9767
   53CHL1   H4B 6335   2.198   2.992  10.008 -0.2823 -0.1514  1.5440
   53CHL1    C5 6336   2.281   2.999   9.807 -0.0282  0.2414  0.7144
   53CHL1    C6 6337   2.210   2.890   9.765 -0.2788  0.0452 -0.1874
   53CHL1    H6 6338   2.146   2.835   9.836 -1.2380  1.5388  0.1556
   53CHL1    C7 6339   2.211   2.841   9.619 -0.1864  0.0543  0.5914
   53CHL1   H7A 6340   2.222   2.731   9.623  0.8002  0.0959 -0.5441
   53CHL1   H7B 6341   2.117   2.875   9.571  0.8068  0.7549 -0.9204
   53CHL1    C8 6342   2.327   2.908   9.535  0.5294  0.2548 -0.0986
   53CHL1    H8 6343   2.414   2.843   9.563 -0.3343 -0.6776  0.4905
   53CHL1   C14 6344   2.300   2.889   9.380 -0.8533 -0.2727 -0.2112
   53CHL1   H14 6345   2.211   2.948   9.348  1.0175  1.7162 -2.1068
   53CHL1   C15 6346   2.257   2.753   9.319  0.4966 -0.0154  0.6829
   53CHL1  H15A 6347   2.318   2.667   9.356  0.8658  0.3269  0.8728
   53CHL1  H15B 6348   2.150   2.726   9.335 -0.1528  2.3920  0.7582
   53CHL1   C16 6349   2.273   2.770   9.167  0.1421  0.4469  0.5655
   53CHL1  H16A 6350   2.334   2.687   9.126  1.6485  1.3209  0.9267
   53CHL1  H16B 6351   2.175   2.756   9.119  0.6464 -1.8211  0.0837
   53CHL1   C17 6352   2.354   2.906   9.143 -0.5177 -0.5088 -0.6457
   53CHL1   H17 6353   2.273   2.979   9.122  1.0111  0.7399 -2.6387
   53CHL1   C13 6354   2.415   2.934   9.283 -0.0306  0.4057 -0.6943
   53CHL1   C18 6355   2.541   2.850   9.311 -0.0739 -0.4450  0.7512
   53CHL1  H18A 6356   2.621   2.879   9.240 -0.4207  1.1869  0.9746
   53CHL1  H18B 6357   2.575   2.864   9.416 -2.7852  2.2260  1.4472
   53CHL1  H18C 6358   2.514   2.743   9.298 -2.5866  0.2462 -0.2993
   53CHL1   C12 6359   2.453   3.087   9.314 -0.4914  0.2661 -0.2143
   53CHL1  H12A 6360   2.552   3.102   9.266 -0.7409  2.0546 -0.2149
   53CHL1  H12B 6361   2.373   3.146   9.266 -0.2674 -0.3602 -1.4044
   53CHL1   C11 6362   2.466   3.115   9.467 -0.8107 -0.3977 -0.0737
   53CHL1  H11A 6363   2.557   3.066   9.509 -1.0842  0.5240  1.6832
   53CHL1  H11B 6364   2.478   3.223   9.489  1.1283 -0.7281  0.7833
   53CHL1    C9 6365   2.351   3.055   9.566 -0.4673  0.3348 -0.0751
   53CHL1    H9 6366   2.260   3.105   9.527 -0.7598 -1.4561 -1.8445
   53CHL1   C10 6367   2.376   3.084   9.718  0.0068 -0.0398 -0.7112
   53CHL1   C19 6368   2.520   3.044   9.762  0.3697 -0.4416  0.5849
   53CHL1  H19A 6369   2.594   3.114   9.717 -1.0353  0.5005 -0.3252
   53CHL1  H19B 6370   2.533   3.055   9.872 -0.3743 -1.0528  0.7438
   53CHL1  H19C 6371   2.557   2.943   9.736 -0.3747 -0.6083  0.1683
   53CHL1    C1 6372   2.346   3.230   9.730  0.3598 -0.0221 -0.5464
   53CHL1   H1A 6373   2.436   3.281   9.689  0.4768  1.6156  1.5729
   53CHL1   H1B 6374   2.253   3.259   9.676 -0.3372  1.0664  1.1696
   53CHL1    C2 6375   2.318   3.279   9.872 -0.3293 -0.2322  0.6815
   53CHL1   H2A 6376   2.285   3.385   9.867  2.5434  0.7840  1.2511
   53CHL1   H2B 6377   2.415   3.274   9.926 -0.5453 -1.3098  0.9802
   53CHL1   C20 6378   2.451   2.894   9.019 -0.5232 -0.1982 -0.0752
   53CHL1   H20 6379   2.533   2.823   9.043  0.1448 -0.5578 -3.0346
   53CHL1   C21 6380   2.506   3.034   8.988  0.3096 -0.1783 -0.6956
   53CHL1  H21A 6381   2.420   3.104   8.979  0.1100 -0.1690  0.9158
   53CHL1  H21B 6382   2.545   3.026   8.884  1.4352 -2.0625 -0.1705
   53CHL1  H21C 6383   2.573   3.070   9.069  0.5139  1.4304 -1.5439
   53CHL1   C22 6384   2.378   2.842   8.892 -0.2133  0.2402  0.0070
   53CHL1  H22A 6385   2.303   2.764   8.917 -0.8035  1.1221  1.0710
   53CHL1  H22B 6386   2.310   2.919   8.849 -1.4684  0.1161  1.6903
   53CHL1   C23 6387   2.468   2.772   8.793 -0.0767  0.2808 -0.4085
   53CHL1  H23A 6388   2.527   2.852   8.743  2.3405 -1.7995 -1.0694
   53CHL1  H23B 6389   2.546   2.708   8.838 -1.3302 -0.9253  0.1388
   53CHL1   C24 6390   2.388   2.683   8.688  0.4175 -0.0252 -0.0224
   53CHL1  H24A 6391   2.337   2.598   8.738 -0.9333  0.1465 -1.0327
   53CHL1  H24B 6392   2.299   2.746   8.662 -2.0813 -2.2430  2.5006
   53CHL1   C25 6393   2.466   2.642   8.559  0.6971 -1.2948 -0.9657
   53CHL1   H25 6394   2.493   2.743   8.522  0.8559 -0.6430  0.7989
   53CHL1   C26 6395   2.595   2.576   8.582  0.3127  0.2789  0.5062
   53CHL1  H26A 6396   2.586   2.478   8.633  2.4811  1.2566  3.0179
   53CHL1  H26B 6397   2.639   2.554   8.482 -1.9947  1.4420 -0.8403
   53CHL1  H26C 6398   2.674   2.644   8.621  0.4882 -0.7319  1.9834
   53CHL1   C27 6399   2.369   2.570   8.470  0.2037  0.1119  0.4113
   53CHL1  H27A 6400   2.333   2.471   8.506 -1.8042  0.5753 -0.1935
   53CHL1  H27B 6401   2.273   2.626   8.464 -0.1782 -0.5581  0.1239
   53CHL1  H27C 6402   2.414   2.560   8.369 -1.7941 -2.8435 -0.3299
   54CHL1    C3 6403   3.154   5.917  10.063 -1.3912 -0.8141 -0.3269
   54CHL1    H3 6404   3.126   5.812  10.040  0.6743 -1.1336 -1.6794
   54CHL1    O3 6405   3.130   5.941  10.201 -0.4418 -0.4861  0.4420
   54CHL1   H3' 6406   3.155   6.033  10.212 -3.0159  0.3508  0.0175
   54CHL1    C4 6407   3.306   5.936  10.027  0.8541 -0.4697 -0.3948
   54CHL1   H4A 6408   3.325   6.044  10.047 -0.2818 -0.1127 -1.1537
   54CHL1   H4B 6409   3.364   5.868  10.092  1.5984  0.3038 -0.2319
   54CHL1    C5 6410   3.324   5.925   9.875  0.7335  0.2551 -0.4625
   54CHL1    C6 6411   3.412   5.839   9.831 -0.1859  0.6429  0.5052
   54CHL1    H6 6412   3.466   5.782   9.908 -0.9356 -1.0153 -0.1513
   54CHL1    C7 6413   3.442   5.807   9.684  0.2929  0.9260  0.4791
   54CHL1   H7A 6414   3.549   5.782   9.667 -0.3174 -0.4762 -1.7455
   54CHL1   H7B 6415   3.388   5.716   9.650  0.7363  0.5993  0.6522
   54CHL1    C8 6416   3.384   5.919   9.593 -0.2271  0.4440 -0.3178
   54CHL1    H8 6417   3.435   6.015   9.614 -0.4216 -0.2613  4.7571
   54CHL1   C14 6418   3.403   5.884   9.455 -0.1711 -0.1809  0.4275
   54CHL1   H14 6419   3.355   5.786   9.438  1.4215 -0.7719 -0.9530
   54CHL1   C15 6420   3.544   5.853   9.398 -0.4059 -0.6143  0.2316
   54CHL1  H15A 6421   3.616   5.929   9.435  0.8997 -1.7326  0.0601
   54CHL1  H15B 6422   3.581   5.752   9.426  1.0750 -0.8424 -2.1645
   54CHL1   C16 6423   3.517   5.847   9.250  0.7598  0.7972 -0.4964
   54CHL1  H16A 6424   3.589   5.893   9.179  0.3589 -1.7583 -2.7322
   54CHL1  H16B 6425   3.514   5.742   9.212 -0.2701  0.4657  0.4402
   54CHL1   C17 6426   3.376   5.903   9.222 -0.7242 -0.2297  0.3191
   54CHL1   H17 6427   3.306   5.817   9.210  0.5648 -1.1747 -0.8422
   54CHL1   C13 6428   3.333   5.974   9.356  0.6276 -0.1050  0.2995
   54CHL1   C18 6429   3.387   6.113   9.356  0.0666 -0.3207  0.6268
   54CHL1  H18A 6430   3.324   6.184   9.299 -1.5249  0.3900  3.1090
   54CHL1  H18B 6431   3.396   6.155   9.459 -3.0946 -0.7820  1.1815
   54CHL1  H18C 6432   3.490   6.116   9.314  1.2546 -1.8636  3.1273
   54CHL1   C12 6433   3.184   5.974   9.389 -0.1367 -0.4615  0.5055
   54CHL1  H12A 6434   3.121   6.031   9.317  0.4518 -0.9203 -0.3831
   54CHL1  H12B 6435   3.149   5.869   9.387  2.3751 -1.3525  0.1311
   54CHL1   C11 6436   3.159   6.034   9.531 -0.0492 -0.0562 -0.6557
   54CHL1  H11A 6437   3.184   6.142   9.536 -0.7680  0.0529  2.5604
   54CHL1  H11B 6438   3.052   6.025   9.556 -0.6349  0.2092 -2.8339
   54CHL1    C9 6439   3.239   5.958   9.637 -0.3042  0.1735  0.2595
   54CHL1    H9 6440   3.188   5.860   9.647  0.8756 -0.4824  0.0855
   54CHL1   C10 6441   3.223   6.006   9.779 -0.3781  0.1964 -0.4627
   54CHL1   C19 6442   3.266   6.155   9.792  0.1883  0.4150 -0.6069
   54CHL1  H19A 6443   3.201   6.215   9.725  1.4334 -1.2880 -3.5373
   54CHL1  H19B 6444   3.255   6.188   9.898 -0.3680  0.2540 -0.6118
   54CHL1  H19C 6445   3.371   6.180   9.763  0.2972  1.5055  0.6114
   54CHL1    C1 6446   3.079   5.991   9.836  0.3815  0.7290 -0.1940
   54CHL1   H1A 6447   3.010   6.057   9.778  1.0267  0.2207 -1.5980
   54CHL1   H1B 6448   3.049   5.888   9.807  0.3086  0.4691  0.7940
   54CHL1    C2 6449   3.069   6.012   9.985 -0.2891 -0.3254  0.7803
   54CHL1   H2A 6450   2.963   5.991  10.012 -0.1792 -3.5599 -0.7108
   54CHL1   H2B 6451   3.085   6.117  10.014  1.6526  0.0975 -1.4886
   54CHL1   C20 6452   3.353   5.978   9.089 -0.2917  0.2037  0.0668
   54CHL1   H20 6453   3.425   6.062   9.089 -2.0785  1.8196 -0.6805
   54CHL1   C21 6454   3.208   6.041   9.074 -0.1661 -0.2159  0.1925
   54CHL1  H21A 6455   3.192   6.139   9.123 -0.7766 -0.5197  0.6205
   54CHL1  H21B 6456   3.132   5.964   9.099  0.8705 -1.3798 -0.1273
   54CHL1  H21C 6457   3.192   6.060   8.966 -0.9216  1.8600  0.6213
   54CHL1   C22 6458   3.391   5.891   8.964 -1.2085 -0.6510 -0.5550
   54CHL1  H22A 6459   3.396   5.957   8.875 -1.2074 -0.9023 -0.7415
   54CHL1  H22B 6460   3.496   5.859   8.980 -0.8200  0.8469  0.0447
   54CHL1   C23 6461   3.305   5.765   8.941 -0.4003  0.8524  0.3003
   54CHL1  H23A 6462   3.324   5.688   9.019 -1.0973 -2.2259 -2.3217
   54CHL1  H23B 6463   3.196   5.785   8.948 -0.4303  0.4738  0.9713
   54CHL1   C24 6464   3.330   5.714   8.796  0.2682  0.3627  0.1704
   54CHL1  H24A 6465   3.274   5.778   8.724 -0.7289 -1.3156 -0.5976
   54CHL1  H24B 6466   3.440   5.719   8.783  0.6536  0.1610  2.7501
   54CHL1   C25 6467   3.280   5.571   8.766  0.3746  0.6013  0.3744
   54CHL1   H25 6468   3.333   5.499   8.832 -0.1395 -0.8356 -0.7630
   54CHL1   C26 6469   3.124   5.559   8.784  0.3765  0.0992  0.2580
   54CHL1  H26A 6470   3.093   5.457   8.757  0.0545  0.3651 -0.3896
   54CHL1  H26B 6471   3.105   5.581   8.892  1.3830 -1.4361  0.7764
   54CHL1  H26C 6472   3.084   5.634   8.713 -0.7960 -0.7763 -0.0209
   54CHL1   C27 6473   3.340   5.527   8.629 -0.0039 -0.1544 -0.3383
   54CHL1  H27A 6474   3.285   5.580   8.549 -0.2030  1.4416  0.8091
   54CHL1  H27B 6475   3.445   5.561   8.621 -0.3827  0.9204 -0.8184
   54CHL1  H27C 6476   3.340   5.416   8.615  0.1410 -0.4891  1.8553
   55CHL1    C3 6477   0.083   1.227  10.243 -0.2299  0.3211  0.0956
   55CHL1    H3 6478   0.023   1.320  10.240 -1.9447 -0.7497 -0.4725
   55CHL1    O3 6479   0.071   1.163  10.367  0.0539  0.0439 -0.9417
   55CHL1   H3' 6480   0.106   1.075  10.353  1.5046  0.2296  1.1148
   55CHL1    C4 6481   0.033   1.128  10.136 -0.0283  0.6093  0.8661
   55CHL1   H4A 6482   0.093   1.037  10.158 -0.4301 -0.6379 -2.5231
   55CHL1   H4B 6483  -0.073   1.106  10.158 -0.3435  0.8008 -0.4001
   55CHL1    C5 6484   0.056   1.172   9.991 -0.7690  0.5876 -0.1546
   55CHL1    C6 6485  -0.048   1.169   9.905  0.0591  0.4004 -0.4152
   55CHL1    H6 6486  -0.147   1.133   9.937 -0.5305  0.4155 -2.1411
   55CHL1    C7 6487  -0.030   1.207   9.765 -0.1444 -0.3487  0.6156
   55CHL1   H7A 6488  -0.075   1.132   9.697 -0.1217  1.5048 -1.5768
   55CHL1   H7B 6489  -0.086   1.300   9.745 -0.0626 -0.5950 -0.9005
   55CHL1    C8 6490   0.117   1.227   9.715 -0.3182  0.4198 -0.5528
   55CHL1    H8 6491   0.158   1.127   9.689 -2.7887 -0.7651 -0.1833
   55CHL1   C14 6492   0.113   1.317   9.592 -0.4442 -0.8390  0.2226
   55CHL1   H14 6493   0.083   1.416   9.633  0.2608 -0.7776  0.6143
   55CHL1   C15 6494   0.012   1.293   9.489  0.5410 -0.2785 -0.3277
   55CHL1  H15A 6495   0.011   1.185   9.462 -0.3909 -0.2263 -0.5282
   55CHL1  H15B 6496  -0.088   1.334   9.516  0.6764 -1.5881  2.5657
   55CHL1   C16 6497   0.071   1.373   9.369 -0.2164  0.3543 -0.2744
   55CHL1  H16A 6498   0.083   1.300   9.285  2.8325  0.9880 -0.4988
   55CHL1  H16B 6499   0.011   1.462   9.340  1.2393  0.8374 -1.9933
   55CHL1   C17 6500   0.218   1.431   9.403 -0.1040 -0.0318  0.1863
   55CHL1   H17 6501   0.208   1.536   9.440  3.2381 -0.1177  1.7075
   55CHL1   C13 6502   0.251   1.343   9.528  0.0147  0.0549 -0.0844
   55CHL1   C18 6503   0.319   1.213   9.480  0.3759  0.4976  0.2467
   55CHL1  H18A 6504   0.413   1.246   9.431  1.1634 -0.5696  0.9950
   55CHL1  H18B 6505   0.337   1.145   9.566 -3.6399 -0.3433  0.6615
   55CHL1  H18C 6506   0.248   1.160   9.412 -1.1947  1.0331  1.3949
   55CHL1   C12 6507   0.340   1.413   9.637  0.2994  0.2212  0.0384
   55CHL1  H12A 6508   0.443   1.418   9.596 -0.7909 -0.3187 -3.0887
   55CHL1  H12B 6509   0.299   1.512   9.665 -0.2635  0.2752 -0.9196
   55CHL1   C11 6510   0.351   1.330   9.764 -0.1351 -0.0974  0.3482
   55CHL1  H11A 6511   0.417   1.241   9.762  0.7014  0.5102 -0.2574
   55CHL1  H11B 6512   0.406   1.396   9.834 -0.1515  0.2268  0.0576
   55CHL1    C9 6513   0.206   1.296   9.817  0.1011 -0.5174 -0.6684
   55CHL1    H9 6514   0.150   1.391   9.824  1.7520  0.4819 -0.3165
   55CHL1   C10 6515   0.204   1.224   9.955  0.0956  1.0568 -0.8816
   55CHL1   C19 6516   0.287   1.093   9.939 -0.6283 -0.5805 -0.0475
   55CHL1  H19A 6517   0.264   1.033   9.848  0.0011 -1.7507  0.5330
   55CHL1  H19B 6518   0.397   1.105   9.933 -0.2376 -3.0009  1.0035
   55CHL1  H19C 6519   0.287   1.022  10.025  0.0547  0.7822  1.1142
   55CHL1    C1 6520   0.248   1.316  10.069 -0.1695 -0.2587  0.3207
   55CHL1   H1A 6521   0.354   1.344  10.049  0.2414 -1.0819  1.2843
   55CHL1   H1B 6522   0.185   1.408  10.071 -2.6258 -1.7853 -1.1344
   55CHL1    C2 6523   0.230   1.265  10.212 -0.0127 -0.1329  0.2644
   55CHL1   H2A 6524   0.270   1.344  10.280 -0.1233 -1.3820  1.8474
   55CHL1   H2B 6525   0.295   1.176  10.221  0.4638 -0.1453 -2.5412
   55CHL1   C20 6526   0.322   1.432   9.276  0.8495  0.1757 -0.0739
   55CHL1   H20 6527   0.349   1.329   9.243  1.4276  0.0312  0.8071
   55CHL1   C21 6528   0.451   1.495   9.317  0.5647  0.1704 -0.1088
   55CHL1  H21A 6529   0.522   1.504   9.232  1.8754  0.4936  0.9787
   55CHL1  H21B 6530   0.503   1.436   9.396 -1.4698  0.9443  1.9407
   55CHL1  H21C 6531   0.435   1.590   9.374  0.9629 -2.1942  4.4409
   55CHL1   C22 6532   0.254   1.503   9.153  0.1711 -0.3028  0.3580
   55CHL1  H22A 6533   0.150   1.466   9.136  0.8635 -1.8995 -0.5927
   55CHL1  H22B 6534   0.239   1.609   9.185 -1.0653 -0.6332  0.9488
   55CHL1   C23 6535   0.346   1.488   9.028  0.3356  0.5441  0.1184
   55CHL1  H23A 6536   0.445   1.533   9.050  1.2568 -1.4204  0.2439
   55CHL1  H23B 6537   0.364   1.380   9.008 -1.5658  0.2949 -0.4448
   55CHL1   C24 6538   0.292   1.564   8.908  0.6186  0.3705 -0.0113
   55CHL1  H24A 6539   0.208   1.498   8.877  0.1863  0.1917  1.4423
   55CHL1  H24B 6540   0.263   1.667   8.937  0.3165 -0.1429  1.6232
   55CHL1   C25 6541   0.392   1.573   8.798  0.3295  0.2391 -0.3618
   55CHL1   H25 6542   0.490   1.611   8.835  0.0089  1.0878 -0.3582
   55CHL1   C26 6543   0.418   1.430   8.752  0.2937 -0.1930 -0.5857
   55CHL1  H26A 6544   0.322   1.389   8.714 -0.6254 -0.0519  1.4475
   55CHL1  H26B 6545   0.488   1.436   8.666  0.7134  1.9414 -0.1719
   55CHL1  H26C 6546   0.463   1.364   8.829 -0.0406  0.6221  0.3397
   55CHL1   C27 6547   0.338   1.651   8.680  0.6598 -0.4356  0.6792
   55CHL1  H27A 6548   0.306   1.754   8.706  0.0867 -1.1184  2.8952
   55CHL1  H27B 6549   0.410   1.664   8.596 -0.3392  0.3753 -0.0808
   55CHL1  H27C 6550   0.254   1.603   8.625 -0.0871  1.3538  0.2058
   56CHL1    C3 6551   4.451   1.395  10.113  0.6021 -0.1698  0.3138
   56CHL1    H3 6552   4.514   1.308  10.142 -1.0658 -0.9823  1.6594
   56CHL1    O3 6553   4.376   1.442  10.225 -0.2277  0.9421 -0.3661
   56CHL1   H3' 6554   4.336   1.528  10.217 -2.8109 -0.0632  0.6609
   56CHL1    C4 6555   4.548   1.514  10.072 -0.2141  0.3166 -0.1572
   56CHL1   H4A 6556   4.478   1.600  10.061  0.6969  0.8051 -3.4573
   56CHL1   H4B 6557   4.625   1.537  10.149 -0.8007 -0.5181  0.6968
   56CHL1    C5 6558   4.606   1.505   9.935  0.2757  0.4448  0.4429
   56CHL1    C6 6559   4.740   1.511   9.908 -0.2173 -0.1104 -0.1246
   56CHL1    H6 6560   4.806   1.538   9.992 -1.1031  2.4969 -0.1668
   56CHL1    C7 6561   4.807   1.515   9.778  0.0372  0.7026  0.1493
   56CHL1   H7A 6562   4.878   1.599   9.763  1.6661 -0.7639 -0.6759
   56CHL1   H7B 6563   4.860   1.417   9.779 -0.4544  0.4337  0.6588
   56CHL1    C8 6564   4.703   1.521   9.661 -0.5176  0.4706 -0.0121
   56CHL1    H8 6565   4.658   1.621   9.647 -1.0942  0.1864 -0.2471
   56CHL1   C14 6566   4.768   1.470   9.539 -0.0307  0.3621 -0.1332
   56CHL1   H14 6567   4.781   1.362   9.564 -2.9704  0.1593  0.9849
   56CHL1   C15 6568   4.909   1.524   9.502  1.1068  0.7592 -0.3528
   56CHL1  H15A 6569   4.906   1.635   9.510  2.2629  0.8023 -0.3559
   56CHL1  H15B 6570   4.989   1.489   9.570 -1.4286 -1.6135  1.6357
   56CHL1   C16 6571   4.934   1.465   9.363 -0.2417  0.6092  0.0681
   56CHL1  H16A 6572   4.968   1.545   9.294  0.2275  2.0475  1.8844
   56CHL1  H16B 6573   5.019   1.394   9.372 -0.5807  0.3195  1.1617
   56CHL1   C17 6574   4.801   1.402   9.310 -0.4906 -0.4002  0.1909
   56CHL1   H17 6575   4.800   1.294   9.338 -1.5078 -0.1657  1.1213
   56CHL1   C13 6576   4.696   1.459   9.402  0.2120  0.1832 -0.4422
   56CHL1   C18 6577   4.659   1.600   9.369 -0.7063 -0.6754  0.2977
   56CHL1  H18A 6578   4.614   1.599   9.268 -0.2817 -0.2895  0.1054
   56CHL1  H18B 6579   4.585   1.644   9.441  0.5111  0.2745  1.0000
   56CHL1  H18C 6580   4.744   1.671   9.365 -0.1688 -1.3514 -0.5250
   56CHL1   C12 6581   4.565   1.372   9.430  0.2093  0.2478 -0.2413
   56CHL1  H12A 6582   4.491   1.383   9.348 -2.6123  0.4447  2.1521
   56CHL1  H12B 6583   4.582   1.263   9.441  0.0913  0.0294 -1.9212
   56CHL1   C11 6584   4.498   1.423   9.560  0.8242  0.0624  0.7486
   56CHL1  H11A 6585   4.459   1.523   9.531  1.7069  0.4884  1.0024
   56CHL1  H11B 6586   4.410   1.359   9.584  0.8012 -0.3607 -0.4255
   56CHL1    C9 6587   4.581   1.433   9.693 -0.6890  0.4636  0.1473
   56CHL1    H9 6588   4.620   1.330   9.710  0.3586  0.2005 -3.1289
   56CHL1   C10 6589   4.505   1.482   9.826  0.1451 -0.1081  0.6694
   56CHL1   C19 6590   4.416   1.600   9.791 -0.0874 -0.2193  0.0820
   56CHL1  H19A 6591   4.478   1.680   9.744  1.2204 -2.2826 -1.9009
   56CHL1  H19B 6592   4.334   1.570   9.722 -0.1607 -1.4140  0.6769
   56CHL1  H19C 6593   4.364   1.641   9.881  2.0548  1.6282  0.5728
   56CHL1    C1 6594   4.427   1.353   9.866 -0.3731  0.6806  0.5643
   56CHL1   H1A 6595   4.345   1.321   9.797  0.7393 -0.5461 -0.2478
   56CHL1   H1B 6596   4.497   1.266   9.863  0.4329  1.3432 -0.3336
   56CHL1    C2 6597   4.356   1.349  10.002 -0.0788  0.2885 -0.1499
   56CHL1   H2A 6598   4.328   1.248  10.039  2.0245  0.6995  2.9641
   56CHL1   H2B 6599   4.269   1.417   9.994 -3.1361 -3.1442  1.3562
   56CHL1   C20 6600   4.784   1.415   9.167  0.9875 -0.2467  0.5796
   56CHL1   H20 6601   4.793   1.520   9.133  2.4217 -0.3957  0.4713
   56CHL1   C21 6602   4.639   1.376   9.118 -0.1067  0.1248 -0.2762
   56CHL1  H21A 6603   4.545   1.421   9.156 -0.7814 -2.0397  0.7486
   56CHL1  H21B 6604   4.617   1.268   9.130 -0.8444  0.5173  2.2898
   56CHL1  H21C 6605   4.635   1.395   9.008 -0.6457  1.1623 -0.0839
   56CHL1   C22 6606   4.893   1.338   9.092 -0.0014  0.4988  0.2575
   56CHL1  H22A 6607   4.996   1.361   9.128  1.0539 -2.0940 -0.8383
   56CHL1  H22B 6608   4.893   1.233   9.128  1.2296  0.3130 -0.2282
   56CHL1   C23 6609   4.896   1.345   8.937  0.1561  0.2946 -0.0121
   56CHL1  H23A 6610   4.818   1.292   8.879  1.4689 -1.4093 -0.3190
   56CHL1  H23B 6611   4.889   1.453   8.914  1.5475  0.1614 -1.1787
   56CHL1   C24 6612   5.023   1.301   8.871  0.1922  0.0781 -1.2034
   56CHL1  H24A 6613   5.113   1.366   8.883 -0.5986  1.1580 -1.0103
   56CHL1  H24B 6614   5.049   1.206   8.924 -1.2034  0.2332 -0.1798
   56CHL1   C25 6615   4.998   1.277   8.718 -0.0429 -0.0814  0.7934
   56CHL1   H25 6616   4.901   1.225   8.700 -0.8285  2.3550 -3.4155
   56CHL1   C26 6617   4.982   1.412   8.645  0.1307  0.2373  0.1024
   56CHL1  H26A 6618   4.895   1.470   8.683 -2.1621 -1.6629 -1.9352
   56CHL1  H26B 6619   5.072   1.477   8.638  0.6745 -0.6043 -0.9544
   56CHL1  H26C 6620   4.957   1.400   8.537  0.8569 -0.2658 -0.0202
   56CHL1   C27 6621   5.111   1.192   8.666 -0.0031  0.0836  0.2638
   56CHL1  H27A 6622   5.111   1.099   8.725  0.4999  0.5323  0.9834
   56CHL1  H27B 6623   5.093   1.183   8.556  0.0545  1.8276  0.0826
   56CHL1  H27C 6624   5.214   1.231   8.678 -0.9400  3.4242 -1.0432
   57CHL1    C3 6625   4.742   3.871  10.236 -0.0961 -0.6450 -0.9671
   57CHL1    H3 6626   4.842   3.909  10.204  0.2968 -0.6775  0.1533
   57CHL1    O3 6627   4.729   3.875  10.380  0.1325  0.1715 -0.2718
   57CHL1   H3' 6628   4.806   3.834  10.419  0.5831  0.1374 -1.1705
   57CHL1    C4 6629   4.640   3.965  10.179  0.3343 -0.3465  0.6118
   57CHL1   H4A 6630   4.542   3.929  10.218 -0.1496 -0.2916 -0.5310
   57CHL1   H4B 6631   4.654   4.066  10.223  0.4938  0.4045 -1.1061
   57CHL1    C5 6632   4.624   3.968  10.031 -0.7517 -0.7107 -0.1122
   57CHL1    C6 6633   4.622   4.084   9.967 -0.6420 -0.1596  0.1084
   57CHL1    H6 6634   4.629   4.174  10.030  2.4116 -0.5575  0.4820
   57CHL1    C7 6635   4.603   4.102   9.819 -0.1248 -0.0881  0.2714
   57CHL1   H7A 6636   4.525   4.178   9.798 -1.3241 -0.9844  1.2570
   57CHL1   H7B 6637   4.696   4.137   9.771 -0.3229 -0.5567 -0.4758
   57CHL1    C8 6638   4.568   3.964   9.749 -0.3468 -0.2890 -0.4537
   57CHL1    H8 6639   4.463   3.942   9.779  0.2592 -2.9845 -0.0014
   57CHL1   C14 6640   4.592   3.978   9.607  0.7013  0.0758  0.5389
   57CHL1   H14 6641   4.702   3.998   9.609  0.6158  0.5083  1.8586
   57CHL1   C15 6642   4.526   4.099   9.527 -0.6827  0.5005 -0.5434
   57CHL1  H15A 6643   4.422   4.100   9.566 -0.0863 -0.0180  1.1277
   57CHL1  H15B 6644   4.582   4.193   9.550  2.0934 -0.8783 -1.2446
   57CHL1   C16 6645   4.539   4.060   9.376 -0.1852  0.0132 -0.0372
   57CHL1  H16A 6646   4.442   4.077   9.325 -0.3620  0.1153  0.3288
   57CHL1  H16B 6647   4.612   4.106   9.306 -2.0375  0.2568 -1.9158
   57CHL1   C17 6648   4.591   3.908   9.379 -0.3626 -0.2313  0.0006
   57CHL1   H17 6649   4.702   3.913   9.379 -0.3295 -0.7433 -0.9016
   57CHL1   C13 6650   4.562   3.849   9.522 -0.5488 -0.0169 -0.8837
   57CHL1   C18 6651   4.414   3.817   9.524  0.0078 -0.0742 -0.0065
   57CHL1  H18A 6652   4.374   3.821   9.627 -0.2125 -2.1654  0.0326
   57CHL1  H18B 6653   4.353   3.898   9.479  2.8048  1.1964 -1.8510
   57CHL1  H18C 6654   4.400   3.715   9.481  1.3692  0.6096 -2.2342
   57CHL1   C12 6655   4.647   3.729   9.574 -0.1795  0.7093  0.0045
   57CHL1  H12A 6656   4.619   3.628   9.537  0.7758  0.2021  0.6271
   57CHL1  H12B 6657   4.750   3.765   9.553 -0.2649  1.7758  1.2627
   57CHL1   C11 6658   4.636   3.712   9.723 -0.8343 -0.7980  0.2593
   57CHL1  H11A 6659   4.530   3.688   9.746 -1.3902  0.9812 -0.2601
   57CHL1  H11B 6660   4.703   3.635   9.766 -1.3975  0.3328  3.4756
   57CHL1    C9 6661   4.659   3.851   9.805 -0.2916  0.0347  0.4308
   57CHL1    H9 6662   4.763   3.885   9.783  0.0214  0.3564  2.1938
   57CHL1   C10 6663   4.634   3.836   9.957  0.4629 -0.1238  0.3642
   57CHL1   C19 6664   4.504   3.759   9.978  0.0848  0.6268  0.7923
   57CHL1  H19A 6665   4.473   3.751  10.084  1.4304 -1.2564  1.0921
   57CHL1  H19B 6666   4.423   3.802   9.915  0.3145  0.0175  0.0622
   57CHL1  H19C 6667   4.524   3.652   9.952  2.6715  1.2393 -0.0188
   57CHL1    C1 6668   4.750   3.751  10.026  0.1136  0.3144 -0.4527
   57CHL1   H1A 6669   4.758   3.650   9.983  0.6153 -0.7702  1.9895
   57CHL1   H1B 6670   4.843   3.805   9.999  0.1878  0.2672 -0.2929
   57CHL1    C2 6671   4.733   3.735  10.174  0.2819 -0.0829  0.2054
   57CHL1   H2A 6672   4.818   3.678  10.220  0.6858  0.2510 -0.1201
   57CHL1   H2B 6673   4.638   3.688  10.208 -0.4262  0.0032 -1.5769
   57CHL1   C20 6674   4.541   3.835   9.252  0.2064  0.4108  0.5574
   57CHL1   H20 6675   4.432   3.830   9.271  0.4181 -0.8328  1.5589
   57CHL1   C21 6676   4.585   3.686   9.242  0.3057 -0.5780  0.0002
   57CHL1  H21A 6677   4.543   3.622   9.323 -0.8763 -0.0801 -0.2080
   57CHL1  H21B 6678   4.695   3.684   9.260  0.5144 -0.6677 -1.2315
   57CHL1  H21C 6679   4.574   3.636   9.143  2.0506 -1.8894  0.4073
   57CHL1   C22 6680   4.562   3.905   9.113 -0.9185 -0.0086  0.4926
   57CHL1  H22A 6681   4.510   3.842   9.037  1.6499 -1.5772 -0.0778
   57CHL1  H22B 6682   4.509   4.003   9.109  0.0718  0.5093 -0.7272
   57CHL1   C23 6683   4.711   3.931   9.069 -0.1197 -0.0960  0.5093
   57CHL1  H23A 6684   4.762   3.980   9.154  3.3486 -0.0843 -1.4204
   57CHL1  H23B 6685   4.746   3.826   9.054 -1.3649 -0.7648  1.9557
   57CHL1   C24 6686   4.724   4.007   8.936 -0.1296  0.0930  0.0152
   57CHL1  H24A 6687   4.657   3.976   8.853 -1.1105 -0.9738  1.1642
   57CHL1  H24B 6688   4.706   4.116   8.943  1.4770  0.2883  2.8926
   57CHL1   C25 6689   4.862   4.001   8.876 -0.3860  0.2337  0.2464
   57CHL1   H25 6690   4.901   3.897   8.882  1.1671  0.7490 -0.4128
   57CHL1   C26 6691   4.872   4.038   8.723  0.0667 -0.6159 -0.1109
   57CHL1  H26A 6692   4.974   4.014   8.687  0.6346  2.3563 -0.7325
   57CHL1  H26B 6693   4.797   3.976   8.668  0.2647 -2.2406  1.3822
   57CHL1  H26C 6694   4.858   4.146   8.702 -1.2554 -0.7978 -0.2963
   57CHL1   C27 6695   4.952   4.090   8.971  0.5464  0.0830 -0.3108
   57CHL1  H27A 6696   4.915   4.194   8.955  3.9761  1.5639  0.5508
   57CHL1  H27B 6697   4.950   4.055   9.076 -1.2973 -0.5038 -0.4960
   57CHL1  H27C 6698   5.053   4.073   8.928  0.9157  0.0657  0.5462
   58CHL1    C3 6699   0.442   1.767  10.231  0.4508 -0.1070  0.0086
   58CHL1    H3 6700   0.453   1.657  10.238  2.1672 -0.0601 -1.3157
   58CHL1    O3 6701   0.396   1.813  10.358 -0.4052 -0.1506  0.1432
   58CHL1   H3' 6702   0.422   1.905  10.364 -1.0415  0.0182  0.4849
   58CHL1    C4 6703   0.577   1.832  10.196 -0.2015  0.3278 -0.0548
   58CHL1   H4A 6704   0.576   1.940  10.223  2.1703  0.1443  0.9486
   58CHL1   H4B 6705   0.654   1.795  10.267  1.0596  0.2076 -1.4465
   58CHL1    C5 6706   0.626   1.812  10.054  0.3338  0.2040 -0.2677
   58CHL1    C6 6707   0.749   1.766  10.031  0.0497  0.2092  0.5725
   58CHL1    H6 6708   0.812   1.746  10.120  0.4043  1.1765  0.5517
   58CHL1    C7 6709   0.802   1.749   9.897  0.0072 -0.2653  0.3854
   58CHL1   H7A 6710   0.906   1.786   9.888 -0.3708  0.8203  0.2904
   58CHL1   H7B 6711   0.792   1.640   9.879 -0.7640 -0.2517  0.6887
   58CHL1    C8 6712   0.714   1.823   9.790 -0.1465 -0.1302  0.3392
   58CHL1    H8 6713   0.737   1.930   9.811 -1.5426  0.0725  0.9570
   58CHL1   C14 6714   0.767   1.775   9.653 -0.3924  0.3880  0.3889
   58CHL1   H14 6715   0.765   1.664   9.653  4.1793  0.1207 -0.6925
   58CHL1   C15 6716   0.917   1.790   9.609 -0.3521 -0.7179  0.1105
   58CHL1  H15A 6717   0.958   1.886   9.647  1.2105 -1.6123  0.7581
   58CHL1  H15B 6718   0.965   1.702   9.657  0.1923  0.3967  1.7286
   58CHL1   C16 6719   0.916   1.779   9.459 -0.2668 -0.0109  1.2370
   58CHL1  H16A 6720   0.961   1.868   9.410 -2.9395  0.8695  0.1964
   58CHL1  H16B 6721   0.983   1.697   9.426 -1.2000 -0.4667  0.4436
   58CHL1   C17 6722   0.769   1.779   9.415 -0.1276  0.0186  0.3809
   58CHL1   H17 6723   0.730   1.676   9.400  0.2276  0.0636 -1.0405
   58CHL1   C13 6724   0.691   1.834   9.538  0.4033  0.0515  0.4311
   58CHL1   C18 6725   0.708   1.989   9.546 -0.2812 -0.3907 -0.0722
   58CHL1  H18A 6726   0.813   2.023   9.530  0.3027 -1.2425  1.6371
   58CHL1  H18B 6727   0.644   2.036   9.470 -0.5486 -0.6939 -0.0378
   58CHL1  H18C 6728   0.679   2.029   9.645  1.3666 -1.3749  0.8722
   58CHL1   C12 6729   0.547   1.790   9.550  0.1189  0.3429  0.9437
   58CHL1  H12A 6730   0.485   1.850   9.480  1.4288  0.5952 -0.0290
   58CHL1  H12B 6731   0.540   1.680   9.545  1.1043  0.3122 -0.0702
   58CHL1   C11 6732   0.485   1.835   9.684 -0.5694 -0.0605 -0.6809
   58CHL1  H11A 6733   0.487   1.946   9.688  1.4642 -0.0991  3.1163
   58CHL1  H11B 6734   0.380   1.800   9.690 -0.4098 -0.6507 -1.2760
   58CHL1    C9 6735   0.565   1.801   9.810 -0.2017  0.2809  0.4911
   58CHL1    H9 6736   0.558   1.690   9.817  0.4024  0.2634  0.9206
   58CHL1   C10 6737   0.520   1.849   9.950 -0.0004  0.5723 -0.0140
   58CHL1   C19 6738   0.491   2.002   9.938  0.8133 -0.5571  0.1923
   58CHL1  H19A 6739   0.579   2.050   9.889 -1.1768  1.2380 -1.8672
   58CHL1  H19B 6740   0.404   2.020   9.871  1.1083  0.0785 -0.0337
   58CHL1  H19C 6741   0.471   2.045  10.039 -1.7919 -1.9433  0.3459
   58CHL1    C1 6742   0.385   1.778   9.984  0.1186  0.3196  0.2608
   58CHL1   H1A 6743   0.317   1.806   9.901  2.6388  2.4889 -1.2226
   58CHL1   H1B 6744   0.395   1.667   9.977  0.2494  0.3270  0.3309
   58CHL1    C2 6745   0.338   1.805  10.124  0.5145 -0.0665 -0.7402
   58CHL1   H2A 6746   0.246   1.743  10.141  0.4350 -0.6911 -3.1225
   58CHL1   H2B 6747   0.302   1.908  10.146 -0.1960  0.0676 -2.4208
   58CHL1   C20 6748   0.750   1.845   9.273  0.1096 -0.9010  0.5303
   58CHL1   H20 6749   0.773   1.953   9.285  1.4563 -1.2751  1.5686
   58CHL1   C21 6750   0.600   1.849   9.236  0.1661 -0.4893  0.3679
   58CHL1  H21A 6751   0.601   1.899   9.137  1.5553 -2.8051 -0.8809
   58CHL1  H21B 6752   0.548   1.920   9.303  3.5064  0.5801  2.0261
   58CHL1  H21C 6753   0.548   1.751   9.227 -2.6921  0.9893 -0.3849
   58CHL1   C22 6754   0.841   1.786   9.158 -0.1319 -0.4834 -0.7963
   58CHL1  H22A 6755   0.813   1.842   9.066 -2.0214  1.2088  0.7131
   58CHL1  H22B 6756   0.949   1.799   9.178  0.0114  0.3126 -2.0203
   58CHL1   C23 6757   0.824   1.634   9.124  0.5844  0.0184 -1.0859
   58CHL1  H23A 6758   0.831   1.573   9.217  0.9085  1.1864 -0.3286
   58CHL1  H23B 6759   0.722   1.631   9.080  0.5814  1.5070 -1.2174
   58CHL1   C24 6760   0.930   1.580   9.034 -0.4461  0.4585  0.0262
   58CHL1  H24A 6761   1.027   1.592   9.087 -1.6419 -0.4517  2.5999
   58CHL1  H24B 6762   0.904   1.473   9.020 -0.6590  0.2532  1.7781
   58CHL1   C25 6763   0.937   1.658   8.901 -0.0143 -0.3398 -0.6722
   58CHL1   H25 6764   0.983   1.759   8.905  0.2448 -0.2523 -3.5885
   58CHL1   C26 6765   1.033   1.587   8.803 -0.4712  0.7258 -0.4366
   58CHL1  H26A 6766   0.985   1.490   8.778  1.3344  0.1298 -1.8254
   58CHL1  H26B 6767   1.046   1.642   8.707 -0.8476 -0.7256 -1.3453
   58CHL1  H26C 6768   1.135   1.577   8.844 -1.1890 -0.9134  1.0574
   58CHL1   C27 6769   0.802   1.674   8.833 -0.4821 -0.3809 -0.1422
   58CHL1  H27A 6770   0.807   1.717   8.731  0.2349  0.2669  0.1635
   58CHL1  H27B 6771   0.757   1.572   8.827 -2.2577  0.1792  2.0561
   58CHL1  H27C 6772   0.732   1.736   8.892  0.0465  0.8874 -0.8236
   59CHL1    C3 6773   6.695   6.313  10.391 -0.0346 -0.2808  0.1550
   59CHL1    H3 6774   6.713   6.421  10.368 -2.7763  0.5344  1.4533
   59CHL1    O3 6775   6.702   6.290  10.534 -0.3807 -0.0051  0.0256
   59CHL1   H3' 6776   6.611   6.271  10.560 -0.4133  0.0373 -0.0593
   59CHL1    C4 6777   6.545   6.311  10.348 -0.3611 -0.7916 -0.0645
   59CHL1   H4A 6778   6.507   6.209  10.372 -0.0507 -0.9430 -0.2072
   59CHL1   H4B 6779   6.491   6.384  10.412  0.8676 -0.5506  0.7270
   59CHL1    C5 6780   6.536   6.333  10.198 -0.3345  0.0811 -0.0884
   59CHL1    C6 6781   6.442   6.422  10.142  0.0564  0.1175  0.2074
   59CHL1    H6 6782   6.386   6.493  10.205  0.2188  0.4421 -0.0157
   59CHL1    C7 6783   6.411   6.430   9.996  0.2717  0.1159  0.0641
   59CHL1   H7A 6784   6.303   6.426   9.970  0.7208 -1.3355 -1.7747
   59CHL1   H7B 6785   6.451   6.526   9.955  0.1653  0.1490  0.0375
   59CHL1    C8 6786   6.458   6.307   9.914  0.1437 -0.3145 -0.1063
   59CHL1    H8 6787   6.391   6.220   9.932 -0.2805  0.3258  1.5408
   59CHL1   C14 6788   6.455   6.343   9.762 -0.1785 -0.5171  0.1268
   59CHL1   H14 6789   6.521   6.432   9.750  0.3452 -0.9944 -0.6105
   59CHL1   C15 6790   6.326   6.396   9.696  0.3763 -0.5125  0.0097
   59CHL1  H15A 6791   6.238   6.334   9.726 -0.2725  1.5509  2.6955
   59CHL1  H15B 6792   6.302   6.500   9.725 -2.5157 -0.9774 -0.3542
   59CHL1   C16 6793   6.354   6.387   9.546 -0.3117  0.1996  1.0502
   59CHL1  H16A 6794   6.268   6.337   9.497  0.4353  0.6087 -0.7678
   59CHL1  H16B 6795   6.372   6.485   9.497 -2.1568  0.5758  1.0652
   59CHL1   C17 6796   6.486   6.305   9.529 -0.4619  0.6359 -1.2136
   59CHL1   H17 6797   6.571   6.377   9.532  0.8569 -0.8628  1.4037
   59CHL1   C13 6798   6.506   6.241   9.666 -0.4729  0.5893 -0.0981
   59CHL1   C18 6799   6.422   6.117   9.665  0.1971 -0.4102  0.2474
   59CHL1  H18A 6800   6.326   6.136   9.614 -0.0646  0.5668  1.0814
   59CHL1  H18B 6801   6.480   6.040   9.608 -1.9299 -0.9310 -1.3313
   59CHL1  H18C 6802   6.390   6.075   9.763  1.1376 -0.7324  0.4312
   59CHL1   C12 6803   6.658   6.212   9.706 -0.1404  0.3048  0.1367
   59CHL1  H12A 6804   6.693   6.128   9.642  0.0920  1.0377 -0.7200
   59CHL1  H12B 6805   6.725   6.297   9.684 -1.5205  1.0061 -1.5782
   59CHL1   C11 6806   6.672   6.170   9.854 -0.0012  0.4409  0.3325
   59CHL1  H11A 6807   6.612   6.077   9.853  1.5433 -0.6063 -0.4904
   59CHL1  H11B 6808   6.771   6.157   9.904 -1.1554 -2.9135  2.0410
   59CHL1    C9 6809   6.607   6.273   9.952  0.6483 -0.6818  0.2158
   59CHL1    H9 6810   6.669   6.364   9.940 -0.7999  0.6897  2.3758
   59CHL1   C10 6811   6.616   6.231  10.107 -0.2732 -0.2087  0.3823
   59CHL1   C19 6812   6.558   6.094  10.119  0.0274  0.1350 -0.3208
   59CHL1  H19A 6813   6.558   6.063  10.225  0.7394  2.9397  0.5885
   59CHL1  H19B 6814   6.459   6.092  10.068  0.8314  2.7174 -2.2329
   59CHL1  H19C 6815   6.613   6.014  10.066 -1.7891  0.3598 -2.7301
   59CHL1    C1 6816   6.759   6.238  10.159  0.4322  0.5127 -0.4421
   59CHL1   H1A 6817   6.826   6.168  10.103  1.0422  1.5415 -1.0172
   59CHL1   H1B 6818   6.788   6.343  10.139 -2.5155  1.1342 -2.0006
   59CHL1    C2 6819   6.775   6.213  10.309 -0.3815  0.8007 -0.2855
   59CHL1   H2A 6820   6.882   6.216  10.340 -0.6102 -1.3013  0.9065
   59CHL1   H2B 6821   6.735   6.111  10.327 -0.3950  0.5640 -1.6251
   59CHL1   C20 6822   6.494   6.217   9.400 -0.3665 -0.1556 -0.1630
   59CHL1   H20 6823   6.427   6.128   9.397  1.0815 -1.2442 -1.3087
   59CHL1   C21 6824   6.633   6.160   9.391 -0.0722  0.2990  0.1366
   59CHL1  H21A 6825   6.650   6.103   9.298  1.5723  0.2338  0.4405
   59CHL1  H21B 6826   6.644   6.083   9.470 -1.4998 -2.1798 -1.9216
   59CHL1  H21C 6827   6.712   6.236   9.405  1.5796 -1.1706 -0.8285
   59CHL1   C22 6828   6.463   6.300   9.271 -0.2936 -0.8425  0.3091
   59CHL1  H22A 6829   6.364   6.351   9.269 -0.7961 -1.7376 -2.1984
   59CHL1  H22B 6830   6.536   6.383   9.257 -1.1187 -0.6550 -4.6822
   59CHL1   C23 6831   6.459   6.218   9.136 -0.1672 -0.7526 -0.3500
   59CHL1  H23A 6832   6.544   6.149   9.118 -0.7649 -1.2917 -1.1544
   59CHL1  H23B 6833   6.374   6.148   9.151 -0.2007 -0.5486  0.4815
   59CHL1   C24 6834   6.441   6.307   9.011 -0.3375 -0.3040  0.1325
   59CHL1  H24A 6835   6.416   6.244   8.923  0.4300  1.8672 -1.7475
   59CHL1  H24B 6836   6.346   6.361   9.027 -2.0467 -2.7045 -1.2646
   59CHL1   C25 6837   6.570   6.394   8.979  0.3798 -0.6276  0.1423
   59CHL1   H25 6838   6.599   6.443   9.074 -1.5989 -1.4461  1.2205
   59CHL1   C26 6839   6.694   6.322   8.923  0.2517  0.0108 -0.5511
   59CHL1  H26A 6840   6.728   6.244   8.994 -0.0240  1.1669  0.9065
   59CHL1  H26B 6841   6.666   6.263   8.833  0.5512 -2.0538  0.6431
   59CHL1  H26C 6842   6.783   6.383   8.896  0.2705  0.2775  0.0921
   59CHL1   C27 6843   6.525   6.493   8.875  0.1213 -0.5971 -0.2522
   59CHL1  H27A 6844   6.467   6.441   8.796  2.0797 -1.9926 -0.8458
   59CHL1  H27B 6845   6.460   6.564   8.931 -0.8972 -1.9318  0.3104
   59CHL1  H27C 6846   6.618   6.540   8.837  0.8894  0.1209  2.2958
   60CHL1    C3 6847   5.614   3.914  10.123  0.2623  0.6169 -1.6386
   60CHL1    H3 6848   5.522   3.964  10.085  0.7311  2.8379 -0.0678
   60CHL1    O3 6849   5.603   3.917  10.264 -0.0295 -0.4951 -0.0225
   60CHL1   H3' 6850   5.676   3.861  10.292 -1.4488 -2.8503 -0.7294
   60CHL1    C4 6851   5.634   3.773  10.067 -0.0397  0.0573 -0.6906
   60CHL1   H4A 6852   5.719   3.725  10.121  0.5656  2.1009  0.2846
   60CHL1   H4B 6853   5.549   3.707  10.097  1.0457 -1.4209 -0.7339
   60CHL1    C5 6854   5.654   3.782   9.915 -1.1776  0.2111  0.4130
   60CHL1    C6 6855   5.574   3.716   9.836 -0.0171  0.1291  0.3046
   60CHL1    H6 6856   5.492   3.654   9.874 -1.4538  1.8054  0.0892
   60CHL1    C7 6857   5.588   3.711   9.681  0.1003  0.9465 -0.3692
   60CHL1   H7A 6858   5.572   3.608   9.640 -1.1726  1.4775 -1.2821
   60CHL1   H7B 6859   5.518   3.778   9.626  0.3750  0.7954 -0.9120
   60CHL1    C8 6860   5.728   3.749   9.639 -0.1026 -0.8947  0.5772
   60CHL1    H8 6861   5.798   3.665   9.662  1.1155 -0.2855 -0.7594
   60CHL1   C14 6862   5.727   3.775   9.488 -0.4017  0.8747  0.3652
   60CHL1   H14 6863   5.665   3.866   9.472 -0.7307  0.5288 -0.4069
   60CHL1   C15 6864   5.670   3.663   9.385  0.0928 -0.4542 -0.3799
   60CHL1  H15A 6865   5.721   3.568   9.410 -1.2705 -1.1520 -0.1676
   60CHL1  H15B 6866   5.563   3.636   9.397  0.0955 -1.3689 -2.1027
   60CHL1   C16 6867   5.695   3.734   9.249  0.2987 -0.1397  0.6757
   60CHL1  H16A 6868   5.729   3.662   9.171  2.2615 -0.9600  2.1888
   60CHL1  H16B 6869   5.607   3.784   9.204  0.6626 -1.4411 -1.6373
   60CHL1   C17 6870   5.803   3.845   9.273 -0.3225 -0.1879 -1.2348
   60CHL1   H17 6871   5.747   3.941   9.279 -0.0415 -0.1112  1.4420
   60CHL1   C13 6872   5.860   3.819   9.420  0.2072 -0.1056 -0.4439
   60CHL1   C18 6873   5.971   3.716   9.427  0.4652 -0.2889 -0.6752
   60CHL1  H18A 6874   6.073   3.757   9.415  0.3255  1.7807  3.3302
   60CHL1  H18B 6875   5.973   3.657   9.522  3.0411 -0.2381 -0.6286
   60CHL1  H18C 6876   5.956   3.643   9.345 -0.3612 -1.7605  0.7244
   60CHL1   C12 6877   5.898   3.949   9.497 -0.3767  0.8870  0.3042
   60CHL1  H12A 6878   5.995   3.987   9.460  0.3226 -0.4652  0.6894
   60CHL1  H12B 6879   5.832   4.037   9.478 -1.1837 -0.0728 -1.5468
   60CHL1   C11 6880   5.918   3.923   9.644 -0.6987  0.0980 -0.0042
   60CHL1  H11A 6881   5.987   3.841   9.673 -1.5737 -0.1606  1.4751
   60CHL1  H11B 6882   5.961   4.012   9.695 -0.4320 -0.7566  1.3083
   60CHL1    C9 6883   5.781   3.874   9.709 -0.1851 -0.4111  0.1338
   60CHL1    H9 6884   5.707   3.955   9.692  0.8304  0.1215 -2.0298
   60CHL1   C10 6885   5.788   3.857   9.863  0.2301  0.2637  0.1613
   60CHL1   C19 6886   5.916   3.781   9.911  0.5217 -0.0183 -0.3820
   60CHL1  H19A 6887   5.897   3.745  10.014 -0.7525 -2.8199 -1.4862
   60CHL1  H19B 6888   5.924   3.686   9.853 -0.2033 -0.1718 -0.2384
   60CHL1  H19C 6889   5.998   3.856   9.912  2.0973 -1.6502 -0.6146
   60CHL1    C1 6890   5.781   3.994   9.937 -0.2681 -0.3432 -0.0131
   60CHL1   H1A 6891   5.882   4.041   9.935  0.5432 -2.0237 -0.0656
   60CHL1   H1B 6892   5.708   4.056   9.881  0.3538  1.7788  1.4203
   60CHL1    C2 6893   5.739   3.996  10.084 -0.0953  0.0071  0.4479
   60CHL1   H2A 6894   5.719   4.101  10.114 -0.7597 -0.1657  0.6290
   60CHL1   H2B 6895   5.822   3.963  10.150  0.7787  0.7464 -0.2453
   60CHL1   C20 6896   5.893   3.870   9.151  0.4819  0.4065 -0.7582
   60CHL1   H20 6897   5.941   3.774   9.120  2.5486  1.6618 -1.6626
   60CHL1   C21 6898   5.998   3.972   9.188  0.0577  0.6394 -0.2581
   60CHL1  H21A 6899   5.948   4.050   9.250 -0.6561  0.6526 -0.8331
   60CHL1  H21B 6900   6.047   4.025   9.104  1.1240 -0.7805 -0.5698
   60CHL1  H21C 6901   6.072   3.936   9.262 -1.1597  0.8715  1.1288
   60CHL1   C22 6902   5.816   3.923   9.026 -0.0209 -0.0749  0.2030
   60CHL1  H22A 6903   5.728   3.859   9.002 -0.1078  0.2089 -0.2524
   60CHL1  H22B 6904   5.773   4.024   9.046  1.5863  0.6873 -0.0454
   60CHL1   C23 6905   5.897   3.930   8.887 -0.1298  0.2505 -1.3089
   60CHL1  H23A 6906   6.003   3.959   8.904 -0.3871  0.6124 -0.2182
   60CHL1  H23B 6907   5.895   3.826   8.847  1.3184 -0.0069 -0.7938
   60CHL1   C24 6908   5.849   4.022   8.781 -0.7812  0.7184  0.2919
   60CHL1  H24A 6909   5.901   4.010   8.684 -1.0219  1.2122  0.1001
   60CHL1  H24B 6910   5.743   3.996   8.757 -0.4467 -1.4821  0.9719
   60CHL1   C25 6911   5.836   4.172   8.818 -0.0932  0.6421 -0.0400
   60CHL1   H25 6912   5.758   4.181   8.896 -1.9337 -1.6808 -1.4874
   60CHL1   C26 6913   5.967   4.234   8.876 -0.2404 -1.2680  0.6333
   60CHL1  H26A 6914   6.043   4.260   8.799 -0.1725 -1.6493  0.5672
   60CHL1  H26B 6915   5.944   4.330   8.927 -1.0254 -1.5686  0.8620
   60CHL1  H26C 6916   6.017   4.161   8.943  2.9976 -1.0930 -1.3727
   60CHL1   C27 6917   5.798   4.259   8.691  0.3894 -0.4104  0.8110
   60CHL1  H27A 6918   5.883   4.291   8.627 -0.3624 -0.5665 -0.2915
   60CHL1  H27B 6919   5.715   4.206   8.640  0.2893  1.3815 -1.0225
   60CHL1  H27C 6920   5.754   4.355   8.727 -0.6087 -0.1031 -1.1061
   61CHL1    C3 6921   2.140   0.506  10.165  0.1930 -0.1284  0.3965
   61CHL1    H3 6922   2.192   0.599  10.130  1.0190 -0.5969  0.3567
   61CHL1    O3 6923   2.152   0.464  10.302 -0.5990  0.4481 -0.3502
   61CHL1   H3' 6924   2.238   0.421  10.312 -0.1864  1.3573  0.1652
   61CHL1    C4 6925   1.991   0.536  10.150 -0.0806  0.2949  0.0142
   61CHL1   H4A 6926   1.940   0.440  10.175 -1.5257  0.9091 -0.4744
   61CHL1   H4B 6927   1.963   0.620  10.216  2.2036  0.6598  0.5978
   61CHL1    C5 6928   1.957   0.562  10.002 -0.0446  0.0198 -0.3221
   61CHL1    C6 6929   1.895   0.674   9.961  0.5581 -0.4990 -0.1765
   61CHL1    H6 6930   1.866   0.743  10.042  1.8250  0.0165 -0.1392
   61CHL1    C7 6931   1.841   0.696   9.822  0.2579  0.1573  0.1121
   61CHL1   H7A 6932   1.738   0.736   9.814  0.7865  1.6673  0.6751
   61CHL1   H7B 6933   1.891   0.784   9.778  1.0921 -0.0557  0.6015
   61CHL1    C8 6934   1.861   0.576   9.727  0.5986 -0.2964  0.1891
   61CHL1    H8 6935   1.770   0.513   9.738  1.0189 -0.6003  2.2650
   61CHL1   C14 6936   1.880   0.616   9.574  0.0409 -0.0694  0.0029
   61CHL1   H14 6937   1.980   0.660   9.558  0.1863  0.2764  1.7096
   61CHL1   C15 6938   1.792   0.723   9.516 -0.2676  0.2977 -0.2311
   61CHL1  H15A 6939   1.685   0.710   9.542  0.2406 -0.3925  1.6461
   61CHL1  H15B 6940   1.823   0.823   9.553 -1.1741  0.1099  1.0949
   61CHL1   C16 6941   1.808   0.706   9.366 -0.0819 -0.6975  0.0477
   61CHL1  H16A 6942   1.706   0.686   9.326 -0.4153 -1.6127  1.2761
   61CHL1  H16B 6943   1.850   0.800   9.324  0.6603 -1.4041 -0.8387
   61CHL1   C17 6944   1.898   0.584   9.337  0.3348 -0.1013 -0.4358
   61CHL1   H17 6945   2.003   0.619   9.322  0.8531 -1.4543 -0.1361
   61CHL1   C13 6946   1.893   0.502   9.475  0.3806  0.3937  0.7256
   61CHL1   C18 6947   1.768   0.405   9.486  0.7617 -0.2809 -0.4710
   61CHL1  H18A 6948   1.773   0.336   9.400 -1.4509 -0.9748 -0.1100
   61CHL1  H18B 6949   1.775   0.332   9.569  3.1415  1.2935  0.8236
   61CHL1  H18C 6950   1.669   0.456   9.486  0.7074 -0.3726  0.4362
   61CHL1   C12 6951   2.017   0.422   9.517 -0.2027  0.4554 -0.2221
   61CHL1  H12A 6952   2.020   0.328   9.458 -2.6764  1.0624 -1.4628
   61CHL1  H12B 6953   2.112   0.475   9.492  0.2960 -0.2158  0.2370
   61CHL1   C11 6954   2.007   0.375   9.663 -0.0730 -0.0944  0.6273
   61CHL1  H11A 6955   1.933   0.293   9.670  0.3640 -0.6142 -0.5726
   61CHL1  H11B 6956   2.098   0.320   9.694 -1.1686 -1.2955  1.8660
   61CHL1    C9 6957   1.979   0.499   9.763 -0.5938  0.6065 -0.0597
   61CHL1    H9 6958   2.064   0.567   9.741 -0.9272  1.2746  0.6988
   61CHL1   C10 6959   1.999   0.452   9.907 -0.8164  0.5784 -0.5433
   61CHL1   C19 6960   1.928   0.316   9.931  0.6066 -0.2978  0.5546
   61CHL1  H19A 6961   1.982   0.226   9.893 -2.0189 -1.6699 -0.1660
   61CHL1  H19B 6962   1.905   0.299  10.038  0.8139  3.6441  1.3566
   61CHL1  H19C 6963   1.828   0.318   9.883 -0.2052 -2.7175  1.9578
   61CHL1    C1 6964   2.153   0.428   9.938 -0.0514 -0.0056  0.3438
   61CHL1   H1A 6965   2.183   0.346   9.869  1.7470  0.1273  0.9297
   61CHL1   H1B 6966   2.207   0.521   9.910 -2.0072  0.8568 -0.7738
   61CHL1    C2 6967   2.184   0.390  10.081  0.2020 -0.6037 -0.1482
   61CHL1   H2A 6968   2.292   0.373  10.098  0.1123 -0.7303  0.2995
   61CHL1   H2B 6969   2.119   0.305  10.114 -0.9003  0.2005 -0.1921
   61CHL1   C20 6970   1.860   0.516   9.207  0.1086 -0.6891  0.3895
   61CHL1   H20 6971   1.758   0.480   9.229  0.2916  0.5490  3.8619
   61CHL1   C21 6972   1.964   0.406   9.182 -0.1520  0.4531  0.2923
   61CHL1  H21A 6973   1.944   0.365   9.080 -3.2177  1.6348  0.3246
   61CHL1  H21B 6974   1.942   0.322   9.251 -3.1060  0.8932  0.0272
   61CHL1  H21C 6975   2.071   0.435   9.192  0.4778 -1.1091 -1.3602
   61CHL1   C22 6976   1.851   0.616   9.083 -0.7718 -0.0368 -1.2459
   61CHL1  H22A 6977   1.909   0.706   9.113 -0.9595 -0.0338 -0.8949
   61CHL1  H22B 6978   1.892   0.580   8.986  1.0650 -1.1954 -0.1000
   61CHL1   C23 6979   1.715   0.647   9.036  0.2220 -0.2914 -0.2633
   61CHL1  H23A 6980   1.671   0.549   9.009  0.7731 -0.6093 -0.0329
   61CHL1  H23B 6981   1.650   0.693   9.113  0.6178 -1.0179  0.5159
   61CHL1   C24 6982   1.712   0.738   8.912 -0.8537 -0.2999 -0.0666
   61CHL1  H24A 6983   1.755   0.836   8.943  1.6370 -1.4060  0.1773
   61CHL1  H24B 6984   1.782   0.691   8.840 -0.1912 -1.4010  1.2671
   61CHL1   C25 6985   1.578   0.763   8.843  0.4761  0.0748  0.1861
   61CHL1   H25 6986   1.505   0.806   8.915 -2.0414 -0.5031 -1.8844
   61CHL1   C26 6987   1.606   0.863   8.729  0.3142 -0.0452  1.1909
   61CHL1  H26A 6988   1.683   0.820   8.661 -0.6239  0.9126 -0.5481
   61CHL1  H26B 6989   1.517   0.875   8.664  1.2446  3.7751  0.3758
   61CHL1  H26C 6990   1.617   0.969   8.763 -3.0137  1.8614 -2.7830
   61CHL1   C27 6991   1.517   0.631   8.781  0.6339 -0.6757  0.3748
   61CHL1  H27A 6992   1.428   0.673   8.729  0.4352  0.1594  1.3462
   61CHL1  H27B 6993   1.587   0.596   8.703  0.3886 -1.2603  0.4111
   61CHL1  H27C 6994   1.502   0.546   8.851  0.5591 -2.0159 -1.1950
   62CHL1    C3 6995   3.765   2.865  10.173 -0.0558 -0.0666  0.1465
   62CHL1    H3 6996   3.687   2.789  10.154 -3.2667  2.7128  1.0957
   62CHL1    O3 6997   3.780   2.865  10.316 -0.2201 -0.2133 -0.1074
   62CHL1   H3' 6998   3.816   2.951  10.337 -2.5840  0.4146  1.7949
   62CHL1    C4 6999   3.896   2.837  10.100 -0.3369  0.2981  0.2665
   62CHL1   H4A 7000   3.976   2.903  10.140 -0.0528  0.4627 -0.5445
   62CHL1   H4B 7001   3.932   2.735  10.124  2.1863  0.8846 -0.6759
   62CHL1    C5 7002   3.896   2.850   9.952  0.3950  0.3350  0.0390
   62CHL1    C6 7003   3.927   2.747   9.872 -0.7991  0.4116  0.8321
   62CHL1    H6 7004   3.954   2.651   9.919 -0.3468  0.6606  1.0837
   62CHL1    C7 7005   3.915   2.755   9.722  0.1893  0.0175  0.5420
   62CHL1   H7A 7006   3.980   2.688   9.660 -1.7523 -2.6514  1.2013
   62CHL1   H7B 7007   3.812   2.716   9.707 -0.3355 -0.6300  4.6049
   62CHL1    C8 7008   3.919   2.902   9.671 -0.3495  0.0823 -0.2761
   62CHL1    H8 7009   4.016   2.946   9.702 -1.7291  2.7225  0.6635
   62CHL1   C14 7010   3.876   2.898   9.526  0.0065 -0.4338 -0.0234
   62CHL1   H14 7011   3.769   2.870   9.522 -0.2501  0.4059  0.7851
   62CHL1   C15 7012   3.934   2.801   9.423 -0.5135  0.0303 -0.1498
   62CHL1  H15A 7013   4.044   2.800   9.443 -0.6211  2.0878  0.7187
   62CHL1  H15B 7014   3.892   2.698   9.423  1.8723 -1.0103 -0.3606
   62CHL1   C16 7015   3.896   2.855   9.282  0.1230 -0.1174 -0.4894
   62CHL1  H16A 7016   3.983   2.843   9.214  0.1225 -2.8021 -0.1224
   62CHL1  H16B 7017   3.814   2.800   9.232  0.2559 -1.0637  0.2963
   62CHL1   C17 7018   3.869   3.005   9.304  0.0368 -0.1689  0.4264
   62CHL1   H17 7019   3.761   3.023   9.291  0.1354 -1.4205 -3.3062
   62CHL1   C13 7020   3.896   3.036   9.453  0.1049 -0.2536  0.2530
   62CHL1   C18 7021   4.037   3.091   9.468 -0.4611  0.0703 -0.9729
   62CHL1  H18A 7022   4.103   3.015   9.420  1.5511  0.4202  1.0401
   62CHL1  H18B 7023   4.049   3.188   9.416  2.5472 -1.0151 -2.5707
   62CHL1  H18C 7024   4.082   3.091   9.570  2.7134  1.0575 -2.2433
   62CHL1   C12 7025   3.798   3.133   9.518 -0.5137  0.6402  0.2178
   62CHL1  H12A 7026   3.819   3.235   9.480  0.8327 -0.1293 -1.2401
   62CHL1  H12B 7027   3.694   3.101   9.495 -0.4917  0.6823  0.0628
   62CHL1   C11 7028   3.808   3.132   9.667 -0.1258  0.1490  0.0046
   62CHL1  H11A 7029   3.896   3.194   9.692  0.8938 -1.9121  1.9044
   62CHL1  H11B 7030   3.711   3.178   9.696 -0.9383 -0.5839 -1.4135
   62CHL1    C9 7031   3.818   2.990   9.740  0.3819 -0.4884 -0.3893
   62CHL1    H9 7032   3.718   2.942   9.732 -0.1247  0.8586 -2.6847
   62CHL1   C10 7033   3.851   2.988   9.904  0.6100  0.2782 -0.0562
   62CHL1   C19 7034   3.949   3.094   9.939 -0.4496  0.5707 -0.3962
   62CHL1  H19A 7035   4.044   3.065   9.890 -1.3898 -2.9115 -0.4837
   62CHL1  H19B 7036   3.919   3.197   9.912 -2.9349  0.8121  2.7238
   62CHL1  H19C 7037   3.971   3.096  10.048  1.2357 -0.4920 -0.6861
   62CHL1    C1 7038   3.719   3.018   9.971  0.7700 -0.2047  0.2150
   62CHL1   H1A 7039   3.706   3.126   9.947  2.1349 -0.2280 -0.7376
   62CHL1   H1B 7040   3.625   2.967   9.941  0.9533 -1.3320  1.4678
   62CHL1    C2 7041   3.721   3.001  10.132  0.7558  0.1695  0.0080
   62CHL1   H2A 7042   3.619   3.010  10.177  0.3012 -3.6741  0.0264
   62CHL1   H2B 7043   3.786   3.084  10.168 -0.0504  0.9920 -0.3917
   62CHL1   C20 7044   3.917   3.102   9.193 -0.0322  0.9602 -0.1425
   62CHL1   H20 7045   3.922   3.202   9.243  0.0592  0.6324  0.5099
   62CHL1   C21 7046   3.825   3.086   9.072 -0.5149 -0.4008 -0.5927
   62CHL1  H21A 7047   3.850   2.985   9.033  1.6395 -0.4175  0.6797
   62CHL1  H21B 7048   3.853   3.142   8.981 -0.5355 -0.2443 -0.5029
   62CHL1  H21C 7049   3.716   3.100   9.089  0.0197  2.7664  0.7797
   62CHL1   C22 7050   4.063   3.074   9.144  0.1325 -0.2842  0.6714
   62CHL1  H22A 7051   4.142   3.062   9.222 -0.8082 -3.0699  1.2947
   62CHL1  H22B 7052   4.062   2.978   9.090 -1.9702  0.6791 -1.1443
   62CHL1   C23 7053   4.122   3.192   9.059  0.5151  0.4679  0.6198
   62CHL1  H23A 7054   4.213   3.159   9.004  0.0634 -1.2520  0.8207
   62CHL1  H23B 7055   4.044   3.213   8.982  0.6297 -0.1446  0.3265
   62CHL1   C24 7056   4.145   3.324   9.137  0.3450 -0.4877 -0.2256
   62CHL1  H24A 7057   4.044   3.354   9.172  0.4244 -0.1198 -0.3126
   62CHL1  H24B 7058   4.206   3.307   9.228 -0.1888  0.5989  0.3548
   62CHL1   C25 7059   4.205   3.441   9.054  0.0301  0.1827 -0.2141
   62CHL1   H25 7060   4.307   3.409   9.027  0.4358  0.7002  0.6574
   62CHL1   C26 7061   4.125   3.453   8.922  0.3894 -0.1732  0.2086
   62CHL1  H26A 7062   4.175   3.540   8.874  0.9511  0.2913  1.5905
   62CHL1  H26B 7063   4.135   3.358   8.864 -2.6694 -0.5544  0.1437
   62CHL1  H26C 7064   4.016   3.471   8.934  0.5216  0.7004  0.1372
   62CHL1   C27 7065   4.224   3.573   9.126  0.9799 -0.6771 -0.4880
   62CHL1  H27A 7066   4.275   3.649   9.063  0.0762  0.4249  0.0489
   62CHL1  H27B 7067   4.134   3.631   9.155  1.0441 -0.2603 -1.1120
   62CHL1  H27C 7068   4.293   3.557   9.212 -0.2097  1.5031  0.9910
   63CHL1    C3 7069   5.231   1.540   9.990  0.7705 -0.2494  0.3056
   63CHL1    H3 7070   5.159   1.456   9.974 -0.3219  1.1871 -3.2806
   63CHL1    O3 7071   5.209   1.578  10.122  0.4306  0.0250  0.1111
   63CHL1   H3' 7072   5.281   1.546  10.177 -0.9326 -1.2670  1.2347
   63CHL1    C4 7073   5.377   1.514   9.968 -0.7363  0.0532  0.7100
   63CHL1   H4A 7074   5.448   1.589  10.009  1.1394 -0.7008 -0.9808
   63CHL1   H4B 7075   5.404   1.424  10.026  1.9512  0.7819  0.7423
   63CHL1    C5 7076   5.399   1.496   9.822  0.0737  0.6053 -0.3512
   63CHL1    C6 7077   5.445   1.374   9.784 -0.0768  0.0431 -0.2851
   63CHL1    H6 7078   5.459   1.294   9.858 -1.4927 -0.5267 -0.6069
   63CHL1    C7 7079   5.474   1.341   9.643  0.4548  0.4784  0.1160
   63CHL1   H7A 7080   5.574   1.292   9.647  1.5383  2.4584 -1.0056
   63CHL1   H7B 7081   5.402   1.268   9.599 -0.9282 -0.3671  3.4729
   63CHL1    C8 7082   5.485   1.466   9.551 -0.1680 -0.3621  0.3202
   63CHL1    H8 7083   5.575   1.522   9.582 -0.8599  0.2776  1.1920
   63CHL1   C14 7084   5.494   1.427   9.405  0.2297 -0.2734  0.3785
   63CHL1   H14 7085   5.401   1.374   9.377  0.5196 -0.5621 -0.0429
   63CHL1   C15 7086   5.609   1.327   9.362  0.5220 -0.4355 -0.1266
   63CHL1  H15A 7087   5.712   1.352   9.396  0.6317 -0.4748 -0.4343
   63CHL1  H15B 7088   5.574   1.226   9.392 -3.2327  1.3526  2.3376
   63CHL1   C16 7089   5.613   1.357   9.213  0.0900  0.2594 -0.2432
   63CHL1  H16A 7090   5.717   1.389   9.193  0.8645 -1.3481  0.9421
   63CHL1  H16B 7091   5.587   1.257   9.172 -1.9560  0.5941  0.1289
   63CHL1   C17 7092   5.514   1.466   9.177  0.3813  0.2877 -0.7240
   63CHL1   H17 7093   5.411   1.424   9.174  0.7284 -0.6169 -0.1857
   63CHL1   C13 7094   5.494   1.541   9.306  0.1241 -0.2052 -0.7216
   63CHL1   C18 7095   5.618   1.632   9.328  0.7551  0.0978 -0.6910
   63CHL1  H18A 7096   5.718   1.585   9.319  1.5754  1.7546 -0.7022
   63CHL1  H18B 7097   5.611   1.716   9.256 -1.8267  0.2034 -0.4030
   63CHL1  H18C 7098   5.613   1.672   9.432  0.3122 -2.6570  0.4456
   63CHL1   C12 7099   5.368   1.626   9.322  0.1905  1.4843  0.4680
   63CHL1  H12A 7100   5.367   1.710   9.248  0.3103  0.9867 -0.1066
   63CHL1  H12B 7101   5.290   1.551   9.297  1.0817  0.9547 -0.8743
   63CHL1   C11 7102   5.345   1.670   9.469  0.3475 -0.4380 -0.1755
   63CHL1  H11A 7103   5.409   1.759   9.488  1.9909 -1.8970  1.4896
   63CHL1  H11B 7104   5.239   1.701   9.459  0.5435  0.2929 -0.0655
   63CHL1    C9 7105   5.370   1.562   9.578 -0.0367  0.2496  1.2820
   63CHL1    H9 7106   5.285   1.492   9.563  0.5041 -0.0102 -0.8560
   63CHL1   C10 7107   5.364   1.602   9.726 -0.0387 -0.4774 -0.8483
   63CHL1   C19 7108   5.462   1.719   9.755  0.0712 -1.1167 -0.5117
   63CHL1  H19A 7109   5.437   1.813   9.701  1.3930  0.2125  1.0908
   63CHL1  H19B 7110   5.452   1.742   9.863 -2.1111  0.5180 -1.0018
   63CHL1  H19C 7111   5.569   1.689   9.741  0.2871  0.0049 -1.3563
   63CHL1    C1 7112   5.217   1.637   9.758  0.1277 -0.1242 -0.1770
   63CHL1   H1A 7113   5.176   1.726   9.704 -2.7796 -0.8306  0.6920
   63CHL1   H1B 7114   5.159   1.550   9.721 -1.1567  2.0397 -3.7569
   63CHL1    C2 7115   5.184   1.655   9.902  0.4861  0.1715  0.0895
   63CHL1   H2A 7116   5.074   1.662   9.916  0.6781 -0.3918  2.2639
   63CHL1   H2B 7117   5.234   1.746   9.942 -0.5320  1.1231 -0.7192
   63CHL1   C20 7118   5.542   1.543   9.045 -0.5025  0.0780 -0.2611
   63CHL1   H20 7119   5.524   1.651   9.063  0.9852  0.1533  0.9968
   63CHL1   C21 7120   5.441   1.488   8.947  0.2944  0.9032  0.8679
   63CHL1  H21A 7121   5.449   1.545   8.853  1.1027 -0.0012  0.3722
   63CHL1  H21B 7122   5.333   1.496   8.971 -0.4603 -1.5784 -1.2872
   63CHL1  H21C 7123   5.454   1.378   8.935 -1.3607  0.5807  1.7493
   63CHL1   C22 7124   5.679   1.536   8.992  0.2329  0.5267  0.0106
   63CHL1  H22A 7125   5.760   1.569   9.060  0.0578  0.8053  0.0851
   63CHL1  H22B 7126   5.698   1.440   8.939 -1.4402  0.3930 -0.4175
   63CHL1   C23 7127   5.701   1.651   8.884  0.5394  0.2029 -0.5155
   63CHL1  H23A 7128   5.624   1.661   8.805  1.3783  2.9438 -1.0883
   63CHL1  H23B 7129   5.693   1.751   8.931  0.3345 -0.5307  1.0600
   63CHL1   C24 7130   5.843   1.639   8.819  0.4209  0.8073  0.0132
   63CHL1  H24A 7131   5.920   1.647   8.899  1.2363 -0.4677 -0.5944
   63CHL1  H24B 7132   5.864   1.536   8.781  2.4500  1.2585 -0.1982
   63CHL1   C25 7133   5.867   1.731   8.699 -0.4358  0.6072 -0.1803
   63CHL1   H25 7134   5.846   1.836   8.728  1.4687  1.5028 -1.8223
   63CHL1   C26 7135   6.019   1.725   8.661  0.0466  0.2556 -0.5532
   63CHL1  H26A 7136   6.088   1.731   8.748  1.1399 -0.9246 -1.2912
   63CHL1  H26B 7137   6.043   1.635   8.599 -3.5701 -2.3942  1.5004
   63CHL1  H26C 7138   6.036   1.822   8.610  0.3713  1.2889  1.4315
   63CHL1   C27 7139   5.770   1.690   8.579 -0.0693 -0.0599 -0.6216
   63CHL1  H27A 7140   5.797   1.587   8.547  2.5046  1.0047 -2.1575
   63CHL1  H27B 7141   5.662   1.710   8.596  0.2107  0.5679  0.5584
   63CHL1  H27C 7142   5.804   1.749   8.491  1.6422 -0.0075  0.0391
   64CHL1    C3 7143   4.502   5.081  10.115 -0.0565 -0.2044 -0.5203
   64CHL1    H3 7144   4.391   5.090  10.115  0.0750  1.6579 -0.6434
   64CHL1    O3 7145   4.528   5.065  10.252 -0.0617 -0.5503  0.0556
   64CHL1   H3' 7146   4.520   5.155  10.284 -0.3213 -0.4224 -0.3605
   64CHL1    C4 7147   4.538   4.955  10.041  0.9048  0.5971  0.0900
   64CHL1   H4A 7148   4.635   4.923  10.083  0.1043 -0.0865  1.5008
   64CHL1   H4B 7149   4.480   4.865  10.072  2.6945 -0.5376  0.3008
   64CHL1    C5 7150   4.540   4.962   9.889 -0.5423 -0.5096 -0.1297
   64CHL1    C6 7151   4.489   4.866   9.815  0.5152 -0.5018  0.0921
   64CHL1    H6 7152   4.452   4.777   9.867 -1.6225 -0.7006 -1.6097
   64CHL1    C7 7153   4.489   4.860   9.662  0.6545  0.5682  0.5732
   64CHL1   H7A 7154   4.542   4.768   9.629  1.7334  1.3812 -0.0103
   64CHL1   H7B 7155   4.385   4.853   9.622  0.7423  0.3727  0.3766
   64CHL1    C8 7156   4.560   4.984   9.597  0.3062  0.6952  0.4802
   64CHL1    H8 7157   4.668   4.964   9.578 -0.1136 -0.5637 -0.7278
   64CHL1   C14 7158   4.498   5.015   9.458  0.7036  0.0973 -1.0000
   64CHL1   H14 7159   4.399   5.056   9.486 -0.0707 -0.4443 -2.8323
   64CHL1   C15 7160   4.482   4.908   9.354 -0.3145  0.0628 -0.5925
   64CHL1  H15A 7161   4.570   4.845   9.329  0.0105  0.6763 -1.0153
   64CHL1  H15B 7162   4.396   4.846   9.389 -0.0083  1.0183  2.0765
   64CHL1   C16 7163   4.447   4.979   9.226  1.0942 -0.5490  0.4290
   64CHL1  H16A 7164   4.501   4.916   9.151 -0.8293 -1.8527  0.0767
   64CHL1  H16B 7165   4.340   4.973   9.200  1.0944  1.0388  0.0056
   64CHL1   C17 7166   4.481   5.128   9.249 -0.3031  1.0964  0.9555
   64CHL1   H17 7167   4.381   5.174   9.266 -0.1094  1.4248  1.2101
   64CHL1   C13 7168   4.557   5.130   9.381 -0.3016  0.5643  0.1943
   64CHL1   C18 7169   4.703   5.097   9.344 -0.4537 -0.0655 -1.1150
   64CHL1  H18A 7170   4.715   5.009   9.277 -2.7781 -1.4403  0.0987
   64CHL1  H18B 7171   4.743   5.176   9.278 -0.5352  0.8199 -0.1186
   64CHL1  H18C 7172   4.772   5.088   9.430 -0.5966  0.1175 -0.9799
   64CHL1   C12 7173   4.545   5.258   9.461 -0.2903 -0.3194 -0.6351
   64CHL1  H12A 7174   4.600   5.345   9.418  0.0320  0.4879  1.2724
   64CHL1  H12B 7175   4.438   5.278   9.481 -0.0333  0.3820  0.0988
   64CHL1   C11 7176   4.601   5.232   9.601 -0.3313  0.5719 -0.1824
   64CHL1  H11A 7177   4.712   5.242   9.605 -0.2600  2.4493 -3.2362
   64CHL1  H11B 7178   4.578   5.318   9.668  1.4262  1.0694 -0.1544
   64CHL1    C9 7179   4.543   5.110   9.682 -0.7400  0.0538  0.0934
   64CHL1    H9 7180   4.434   5.130   9.683 -0.8593 -0.5755 -0.4332
   64CHL1   C10 7181   4.601   5.091   9.828  0.3760  0.0110 -0.7523
   64CHL1   C19 7182   4.754   5.078   9.825 -0.0440 -0.0190 -0.0803
   64CHL1  H19A 7183   4.812   5.165   9.789  0.8856 -0.1165  1.1065
   64CHL1  H19B 7184   4.785   5.067   9.931 -1.3467 -0.9789  0.2341
   64CHL1  H19C 7185   4.783   4.989   9.765 -0.5948  0.2591 -0.7661
   64CHL1    C1 7186   4.570   5.216   9.912  0.3171 -0.5262 -0.1524
   64CHL1   H1A 7187   4.617   5.308   9.871  1.0375 -0.4859  0.7229
   64CHL1   H1B 7188   4.463   5.240   9.896  0.7500  0.6698 -1.4539
   64CHL1    C2 7189   4.591   5.202  10.064  0.0263 -1.1106 -0.4657
   64CHL1   H2A 7190   4.551   5.290  10.118  0.5338 -0.7633 -0.6498
   64CHL1   H2B 7191   4.697   5.189  10.095  0.1723  1.2401  0.2111
   64CHL1   C20 7192   4.532   5.193   9.113  0.3173  0.0277 -0.7209
   64CHL1   H20 7193   4.632   5.147   9.097  0.5314  0.4959 -0.7611
   64CHL1   C21 7194   4.549   5.348   9.139  0.6561  0.5009  0.5345
   64CHL1  H21A 7195   4.546   5.405   9.044  0.1454 -1.1930 -0.5132
   64CHL1  H21B 7196   4.647   5.355   9.193  0.4256 -1.6084  1.3116
   64CHL1  H21C 7197   4.462   5.383   9.198 -0.2184  0.2985 -0.6207
   64CHL1   C22 7198   4.434   5.165   8.991  0.4081 -0.7020  0.8426
   64CHL1  H22A 7199   4.426   5.054   8.987  0.9431 -0.7041 -1.0410
   64CHL1  H22B 7200   4.338   5.201   9.034 -0.5089 -0.9913 -0.8789
   64CHL1   C23 7201   4.470   5.238   8.863 -0.1709 -0.1587  0.6605
   64CHL1  H23A 7202   4.457   5.348   8.872  0.2664 -0.0332 -0.1356
   64CHL1  H23B 7203   4.578   5.218   8.849 -0.3468 -1.5842  1.1790
   64CHL1   C24 7204   4.390   5.195   8.735  0.4902  0.3368 -0.5893
   64CHL1  H24A 7205   4.397   5.084   8.729 -2.1285 -0.0657  1.7940
   64CHL1  H24B 7206   4.283   5.226   8.738  0.4124  0.0462  1.9138
   64CHL1   C25 7207   4.438   5.249   8.603 -0.3016 -0.1910 -0.0881
   64CHL1   H25 7208   4.547   5.226   8.599 -0.1731  0.4646 -0.5285
   64CHL1   C26 7209   4.354   5.198   8.482 -0.6294  0.0228  0.6210
   64CHL1  H26A 7210   4.248   5.228   8.471 -0.9041 -0.3261  2.0907
   64CHL1  H26B 7211   4.406   5.224   8.388 -0.7604  2.0636  1.0737
   64CHL1  H26C 7212   4.350   5.086   8.482  0.1247 -0.0149 -0.1390
   64CHL1   C27 7213   4.425   5.404   8.608 -0.5769 -1.0902  0.5665
   64CHL1  H27A 7214   4.467   5.445   8.514  1.1772 -1.3551  1.2050
   64CHL1  H27B 7215   4.329   5.454   8.632 -0.6169 -0.2349 -1.1817
   64CHL1  H27C 7216   4.494   5.433   8.690  0.1025 -2.2801  0.4502
   65CHL1    C3 7217   0.928   0.502  10.294  0.3304 -0.4091 -0.2733
   65CHL1    H3 7218   0.912   0.603  10.250  0.0257 -1.3546 -2.4285
   65CHL1    O3 7219   0.932   0.517  10.435 -0.0903  0.1148  0.8285
   65CHL1   H3' 7220   1.016   0.558  10.458 -0.7571  2.0389  0.0785
   65CHL1    C4 7221   0.814   0.407  10.255  0.2061 -0.5186 -0.0698
   65CHL1   H4A 7222   0.842   0.311  10.302  1.9398 -0.5720 -1.1326
   65CHL1   H4B 7223   0.719   0.437  10.305  1.6731 -0.1386  2.6506
   65CHL1    C5 7224   0.796   0.383  10.105 -0.0965 -0.6574  0.0944
   65CHL1    C6 7225   0.683   0.416  10.037 -0.2019  0.1915 -0.7812
   65CHL1    H6 7226   0.590   0.444  10.089 -0.5334 -1.0037 -0.6945
   65CHL1    C7 7227   0.659   0.396   9.894 -1.2025 -0.0399  0.4895
   65CHL1   H7A 7228   0.571   0.333   9.865 -1.6772  0.4474  0.8531
   65CHL1   H7B 7229   0.647   0.493   9.843  2.1834  0.5663  0.6615
   65CHL1    C8 7230   0.780   0.331   9.831 -1.0250 -0.7818  0.5001
   65CHL1    H8 7231   0.766   0.222   9.850  2.1869 -1.2749  0.4899
   65CHL1   C14 7232   0.773   0.359   9.680  0.5478  0.3662 -0.1049
   65CHL1   H14 7233   0.799   0.467   9.669  1.1696  0.2191 -0.1208
   65CHL1   C15 7234   0.642   0.344   9.606  0.6808 -0.4766 -0.0776
   65CHL1  H15A 7235   0.591   0.258   9.655  1.7123 -2.0927 -1.7226
   65CHL1  H15B 7236   0.580   0.436   9.616  2.4424  0.6436  1.2619
   65CHL1   C16 7237   0.682   0.332   9.462  0.7520  0.9867  0.3309
   65CHL1  H16A 7238   0.647   0.238   9.414  0.0831  1.1669  0.4481
   65CHL1  H16B 7239   0.657   0.424   9.405  1.3979 -0.8348 -3.1338
   65CHL1   C17 7240   0.827   0.315   9.453 -0.3982 -0.0151  0.0508
   65CHL1   H17 7241   0.869   0.416   9.431 -2.4270  1.2715  1.6734
   65CHL1   C13 7242   0.876   0.282   9.595 -0.7535  0.2413 -0.3170
   65CHL1   C18 7243   0.856   0.124   9.608 -0.1264 -1.3137  0.1724
   65CHL1  H18A 7244   0.750   0.099   9.586 -0.9678  0.4567  1.8769
   65CHL1  H18B 7245   0.930   0.080   9.537  1.7327 -0.1550  1.2996
   65CHL1  H18C 7246   0.882   0.081   9.707 -2.1291  0.5432  1.6000
   65CHL1   C12 7247   1.018   0.324   9.640  0.2540  0.3854  0.2192
   65CHL1  H12A 7248   1.086   0.257   9.584  1.7265  1.9952  0.0049
   65CHL1  H12B 7249   1.048   0.427   9.612  1.4486  0.3515  1.2787
   65CHL1   C11 7250   1.033   0.300   9.796 -0.6997  0.2945  0.4160
   65CHL1  H11A 7251   1.028   0.192   9.822 -0.9243  0.0602 -0.5486
   65CHL1  H11B 7252   1.132   0.336   9.830 -0.8087 -0.0687  1.1533
   65CHL1    C9 7253   0.920   0.365   9.884 -0.3262  0.0283  0.1300
   65CHL1    H9 7254   0.918   0.475   9.873 -1.5176  0.4199  3.2115
   65CHL1   C10 7255   0.929   0.340  10.036  0.0956  0.2940 -0.0800
   65CHL1   C19 7256   0.961   0.186  10.061  0.0951  0.1765 -0.5809
   65CHL1  H19A 7257   0.939   0.151  10.164  2.1837  0.9573  0.1761
   65CHL1  H19B 7258   0.906   0.117   9.993 -0.6395  0.2185 -0.0458
   65CHL1  H19C 7259   1.068   0.158  10.049 -0.5417 -2.5008 -0.7112
   65CHL1    C1 7260   1.054   0.411  10.088  1.0614 -0.3530  0.1395
   65CHL1   H1A 7261   1.148   0.365  10.051 -0.0582 -0.3898 -2.8833
   65CHL1   H1B 7262   1.057   0.515  10.049  0.4064  0.4375  2.0649
   65CHL1    C2 7263   1.054   0.439  10.243 -1.0783  0.2455  0.5763
   65CHL1   H2A 7264   1.144   0.500  10.265 -1.4282  1.3761 -0.9505
   65CHL1   H2B 7265   1.071   0.342  10.294 -0.0641 -0.7767 -1.6178
   65CHL1   C20 7266   0.872   0.225   9.336  0.1330 -0.7369 -0.5126
   65CHL1   H20 7267   0.841   0.119   9.349  2.8497 -1.4911  0.3217
   65CHL1   C21 7268   1.030   0.234   9.315  0.0346  0.2213  0.3310
   65CHL1  H21A 7269   1.061   0.182   9.222  2.1305  0.4596  0.8268
   65CHL1  H21B 7270   1.082   0.175   9.394 -0.2207  0.1321  0.4343
   65CHL1  H21C 7271   1.054   0.342   9.307 -2.2893  0.6252 -3.4637
   65CHL1   C22 7272   0.814   0.280   9.205  0.2355 -0.3689  0.4068
   65CHL1  H22A 7273   0.705   0.290   9.224  0.4794 -0.5788  2.0685
   65CHL1  H22B 7274   0.862   0.377   9.181 -0.4309 -0.2374 -0.4585
   65CHL1   C23 7275   0.822   0.188   9.079  0.3713 -0.3426 -0.3495
   65CHL1  H23A 7276   0.922   0.143   9.061  0.1040 -1.1130  0.0370
   65CHL1  H23B 7277   0.751   0.112   9.120 -0.6286  1.2398  0.9691
   65CHL1   C24 7278   0.785   0.256   8.949  0.3007 -0.6595  0.5534
   65CHL1  H24A 7279   0.870   0.316   8.910  0.2841 -1.0580 -0.1066
   65CHL1  H24B 7280   0.778   0.175   8.873 -0.4208  0.1001 -0.2100
   65CHL1   C25 7281   0.645   0.332   8.949  0.7648  0.3572  0.1366
   65CHL1   H25 7282   0.652   0.397   9.039 -0.1079 -1.8340  1.8986
   65CHL1   C26 7283   0.637   0.426   8.829  0.3873  0.0248 -0.6154
   65CHL1  H26A 7284   0.738   0.472   8.835 -0.2076  1.1531  1.7659
   65CHL1  H26B 7285   0.632   0.367   8.734 -0.2838 -1.0114  0.0417
   65CHL1  H26C 7286   0.554   0.499   8.831 -1.1986 -1.6937 -1.1589
   65CHL1   C27 7287   0.523   0.248   8.983 -0.0334 -0.1520  0.2368
   65CHL1  H27A 7288   0.524   0.163   8.912 -1.3347  1.4801 -1.8698
   65CHL1  H27B 7289   0.524   0.209   9.087 -1.2638  2.8981  1.5227
   65CHL1  H27C 7290   0.426   0.302   8.973  0.0147  0.4523  2.5569
   66CHL1    C3 7291   6.197   5.993  10.659  0.5969  0.5903 -0.1863
   66CHL1    H3 7292   6.091   5.983  10.690  0.1985  4.2084 -0.0230
   66CHL1    O3 7293   6.280   5.978  10.773 -0.4974 -0.1511  0.5683
   66CHL1   H3' 7294   6.369   5.977  10.737 -0.8792 -0.6937 -0.4039
   66CHL1    C4 7295   6.226   5.881  10.553 -0.2006 -0.9292 -0.0730
   66CHL1   H4A 7296   6.331   5.896  10.520 -0.4504  1.4763  0.0301
   66CHL1   H4B 7297   6.208   5.781  10.598  0.3400  0.1456  2.7722
   66CHL1    C5 7298   6.137   5.913  10.434 -0.5682  0.8108  0.2524
   66CHL1    C6 7299   6.044   5.824  10.387 -0.3548 -0.7982  0.0537
   66CHL1    H6 7300   6.031   5.727  10.437 -1.6441 -1.4619 -1.4951
   66CHL1    C7 7301   5.959   5.841  10.266 -0.5344  0.5233  0.1491
   66CHL1   H7A 7302   5.944   5.739  10.223 -0.6965  0.3577  0.5924
   66CHL1   H7B 7303   5.859   5.872  10.303 -0.5457 -0.5640  1.0937
   66CHL1    C8 7304   6.008   5.954  10.176 -0.6924  0.2060  0.8709
   66CHL1    H8 7305   6.097   5.920  10.118 -1.0965 -0.9847  0.9120
   66CHL1   C14 7306   5.905   5.990  10.073  0.5287  0.2493 -0.1556
   66CHL1   H14 7307   5.813   6.020  10.128  0.7249 -2.7253  2.0498
   66CHL1   C15 7308   5.863   5.880   9.983  0.2493  0.1690 -0.1787
   66CHL1  H15A 7309   5.956   5.840   9.937  1.1179  3.0749 -1.2212
   66CHL1  H15B 7310   5.814   5.794  10.033  0.3366 -1.8130 -3.2040
   66CHL1   C16 7311   5.779   5.951   9.878  0.3009  1.3125  0.1109
   66CHL1  H16A 7312   5.797   5.905   9.779  0.8281 -0.8823  1.1553
   66CHL1  H16B 7313   5.673   5.942   9.912 -0.1271 -0.4553 -1.4899
   66CHL1   C17 7314   5.815   6.100   9.888  0.4295 -0.4620 -0.0580
   66CHL1   H17 7315   5.739   6.166   9.935  0.9679  1.1562 -1.3997
   66CHL1   C13 7316   5.943   6.109   9.981  0.2667 -0.1379  0.6507
   66CHL1   C18 7317   6.067   6.069   9.898 -0.1685 -0.4948 -0.1779
   66CHL1  H18A 7318   6.091   6.155   9.831 -2.2133  0.3772  0.1267
   66CHL1  H18B 7319   6.152   6.041   9.965 -1.0101  0.9937  1.6297
   66CHL1  H18C 7320   6.042   5.980   9.837 -1.7447 -1.2045  1.3924
   66CHL1   C12 7321   5.971   6.230  10.068 -0.0125  0.4098  0.4255
   66CHL1  H12A 7322   5.997   6.317  10.003 -0.6673  1.4365  1.4980
   66CHL1  H12B 7323   5.883   6.251  10.134 -0.7304 -0.7513 -0.1319
   66CHL1   C11 7324   6.085   6.199  10.166  0.5741 -0.6664 -0.2502
   66CHL1  H11A 7325   6.183   6.196  10.113  1.1079 -0.6773  0.7142
   66CHL1  H11B 7326   6.089   6.288  10.233  0.7476 -1.5063  0.8651
   66CHL1    C9 7327   6.047   6.078  10.256  0.6702 -0.5699 -0.4727
   66CHL1    H9 7328   5.955   6.106  10.311  1.5747  0.6282  0.4955
   66CHL1   C10 7329   6.152   6.053  10.371 -0.0886 -0.4020 -0.5633
   66CHL1   C19 7330   6.291   6.050  10.304 -0.8114 -0.2539 -0.5350
   66CHL1  H19A 7331   6.318   6.148  10.259  0.0695  0.0041  0.4924
   66CHL1  H19B 7332   6.374   6.021  10.371 -0.1970  0.2142 -1.0841
   66CHL1  H19C 7333   6.291   5.978  10.220 -1.5556 -0.3010 -0.5069
   66CHL1    C1 7334   6.144   6.171  10.476 -0.8740  0.2846  0.5550
   66CHL1   H1A 7335   6.192   6.260  10.430  3.2438 -1.9738 -0.0305
   66CHL1   H1B 7336   6.039   6.195  10.503 -1.1344 -0.9973  0.7413
   66CHL1    C2 7337   6.230   6.138  10.602  0.2546  0.6819  0.4080
   66CHL1   H2A 7338   6.192   6.209  10.678 -3.8765 -0.1792 -0.5991
   66CHL1   H2B 7339   6.340   6.148  10.586  0.7893 -1.2779  2.3239
   66CHL1   C20 7340   5.827   6.160   9.745 -0.1055  0.0283 -0.2667
   66CHL1   H20 7341   5.912   6.108   9.696  1.0938  0.0552  1.6718
   66CHL1   C21 7342   5.866   6.312   9.751  0.3454  0.7425  0.0566
   66CHL1  H21A 7343   5.856   6.350   9.647 -0.0332  0.6473  0.0566
   66CHL1  H21B 7344   5.969   6.318   9.793  1.1364 -0.0363 -1.6389
   66CHL1  H21C 7345   5.793   6.370   9.811  0.4446  0.9260 -0.0016
   66CHL1   C22 7346   5.694   6.145   9.664  0.3516 -1.2633 -0.2901
   66CHL1  H22A 7347   5.626   6.066   9.702 -0.6867 -0.2419  0.0205
   66CHL1  H22B 7348   5.636   6.240   9.664  2.6337  0.2235 -0.7107
   66CHL1   C23 7349   5.731   6.113   9.520 -0.6423  0.2716  0.4022
   66CHL1  H23A 7350   5.801   6.027   9.524  0.3108  1.0300  0.3173
   66CHL1  H23B 7351   5.633   6.096   9.471 -0.0924  3.1956 -2.0308
   66CHL1   C24 7352   5.798   6.230   9.443 -0.7902  0.1787 -0.5381
   66CHL1  H24A 7353   5.737   6.321   9.463 -0.2746  0.8493 -1.8794
   66CHL1  H24B 7354   5.904   6.245   9.473 -1.0447  0.6925  0.1175
   66CHL1   C25 7355   5.808   6.205   9.294  0.7790  0.8754  0.1923
   66CHL1   H25 7356   5.830   6.305   9.249 -1.2390  1.3838  0.2190
   66CHL1   C26 7357   5.927   6.109   9.241  0.2820 -0.4831 -0.1817
   66CHL1  H26A 7358   5.914   6.013   9.294 -0.2310  0.0024  0.5962
   66CHL1  H26B 7359   5.916   6.095   9.131  1.7939 -1.2350 -0.2625
   66CHL1  H26C 7360   6.021   6.162   9.267 -0.4448  1.0501 -0.5572
   66CHL1   C27 7361   5.681   6.156   9.230  0.4380  0.0419 -0.1363
   66CHL1  H27A 7362   5.604   6.234   9.248  1.0972  0.8379 -0.6909
   66CHL1  H27B 7363   5.694   6.147   9.120 -2.3739  0.7895 -0.6120
   66CHL1  H27C 7364   5.652   6.052   9.257  1.1838  0.3119  1.8564
   67CHL1    C3 7365   2.371   0.064  10.174 -0.0931  0.4270 -0.2225
   67CHL1    H3 7366   2.301   0.150  10.172  0.0847  0.5724 -0.2341
   67CHL1    O3 7367   2.387   0.036  10.312  0.1011  0.0284  0.1572
   67CHL1   H3' 7368   2.450  -0.036  10.320  0.3801  0.2883  0.3422
   67CHL1    C4 7369   2.298  -0.048  10.104  0.9015  0.3325  0.7832
   67CHL1   H4A 7370   2.353  -0.143  10.126 -0.9932 -0.5462  2.0019
   67CHL1   H4B 7371   2.201  -0.069  10.155 -0.1810  0.4092 -1.1763
   67CHL1    C5 7372   2.270  -0.036   9.955  0.1569 -0.6152  0.2637
   67CHL1    C6 7373   2.145  -0.051   9.906 -0.1278 -0.0605  0.4994
   67CHL1    H6 7374   2.059  -0.063   9.974 -0.9860  1.1982 -0.3234
   67CHL1    C7 7375   2.124  -0.042   9.760  0.2526  0.5205  0.1270
   67CHL1   H7A 7376   2.062  -0.128   9.729  0.9120  0.3798 -0.8514
   67CHL1   H7B 7377   2.065   0.048   9.730 -1.3017 -0.5529 -0.1368
   67CHL1    C8 7378   2.247  -0.051   9.669  0.7326 -0.8689 -0.2688
   67CHL1    H8 7379   2.269  -0.160   9.662  0.3898 -0.9894  0.4455
   67CHL1   C14 7380   2.220   0.005   9.532 -0.0073  0.8090  0.3495
   67CHL1   H14 7381   2.205   0.114   9.549  1.2927  1.3808 -1.8166
   67CHL1   C15 7382   2.090  -0.051   9.465  0.6905 -0.4113  0.2908
   67CHL1  H15A 7383   2.095  -0.161   9.474  0.5452 -0.3629  0.9976
   67CHL1  H15B 7384   2.004   0.000   9.513 -1.1064 -0.6744 -2.3973
   67CHL1   C16 7385   2.109  -0.016   9.319  0.6910  0.4613  0.2977
   67CHL1  H16A 7386   2.108  -0.118   9.274  0.5717  0.7237 -0.2980
   67CHL1  H16B 7387   2.033   0.050   9.272  1.0848  0.0964 -0.9045
   67CHL1   C17 7388   2.249   0.053   9.299  0.7731  0.2008 -0.5408
   67CHL1   H17 7389   2.251   0.161   9.325  2.8291  1.0236 -3.6475
   67CHL1   C13 7390   2.325  -0.005   9.423 -0.4451 -0.5110  0.1366
   67CHL1   C18 7391   2.374  -0.151   9.406 -0.0061  0.0609 -0.0186
   67CHL1  H18A 7392   2.442  -0.146   9.318  1.3153 -0.5604  0.9150
   67CHL1  H18B 7393   2.427  -0.195   9.493 -0.7012  0.8817  0.8417
   67CHL1  H18C 7394   2.291  -0.222   9.386 -0.0933  0.6608 -2.0226
   67CHL1   C12 7395   2.443   0.077   9.481  0.3638  0.2739  0.3325
   67CHL1  H12A 7396   2.537   0.066   9.423  1.0830 -2.2116  1.8004
   67CHL1  H12B 7397   2.413   0.184   9.482  0.4211  0.4196 -2.7183
   67CHL1   C11 7398   2.476   0.038   9.629 -0.4279 -0.0811 -0.2890
   67CHL1  H11A 7399   2.526  -0.061   9.632 -0.2404  0.0310  0.9135
   67CHL1  H11B 7400   2.556   0.107   9.662  0.6573 -0.6576 -1.5984
   67CHL1    C9 7401   2.362   0.027   9.730 -0.5752  0.1390  0.0427
   67CHL1    H9 7402   2.338   0.135   9.738 -0.6523  0.2180 -1.0124
   67CHL1   C10 7403   2.401  -0.011   9.874  0.0578  0.6491  0.0552
   67CHL1   C19 7404   2.480  -0.147   9.875 -0.3071 -0.4430  0.6097
   67CHL1  H19A 7405   2.567  -0.144   9.806 -2.1682 -0.7548 -1.8926
   67CHL1  H19B 7406   2.513  -0.177   9.977  0.0098 -0.3452  0.5347
   67CHL1  H19C 7407   2.418  -0.233   9.840  1.1382 -1.4998  0.5611
   67CHL1    C1 7408   2.483   0.107   9.943  0.1978  0.2094 -0.4715
   67CHL1   H1A 7409   2.574   0.128   9.883  1.5042  1.8780  1.9461
   67CHL1   H1B 7410   2.432   0.205   9.939  0.6585  0.4463 -0.6764
   67CHL1    C2 7411   2.510   0.090  10.102  0.2741  0.4679 -0.0473
   67CHL1   H2A 7412   2.560   0.175  10.153  1.6598 -0.7103  0.6241
   67CHL1   H2B 7413   2.580   0.012  10.137  0.2737  1.9452  3.7512
   67CHL1   C20 7414   2.302   0.028   9.159  0.4041 -0.2559 -0.4982
   67CHL1   H20 7415   2.329  -0.080   9.151  1.5370 -0.0656  0.4218
   67CHL1   C21 7416   2.432   0.111   9.136 -0.0541 -0.1697  0.0616
   67CHL1  H21A 7417   2.404   0.219   9.139 -0.1990 -0.2301  0.9800
   67CHL1  H21B 7418   2.498   0.088   9.050  1.3066 -1.0869  1.3195
   67CHL1  H21C 7419   2.495   0.093   9.225 -1.4238  3.2430  1.9262
   67CHL1   C22 7420   2.197   0.070   9.051  0.6523  0.0179 -0.3781
   67CHL1  H22A 7421   2.115  -0.005   9.043  0.1126  0.0866  3.0822
   67CHL1  H22B 7422   2.160   0.173   9.067 -0.9449 -0.2646 -1.8502
   67CHL1   C23 7423   2.245   0.071   8.907 -0.3750  0.1993 -0.2210
   67CHL1  H23A 7424   2.155   0.104   8.851 -0.2865  1.4133  0.3321
   67CHL1  H23B 7425   2.334   0.136   8.906 -0.6615  0.7045  2.0434
   67CHL1   C24 7426   2.282  -0.068   8.853  0.0871  0.5004  0.0017
   67CHL1  H24A 7427   2.391  -0.085   8.863  0.1108  0.2972 -0.5778
   67CHL1  H24B 7428   2.216  -0.133   8.914 -0.2512 -0.9091 -1.7743
   67CHL1   C25 7429   2.247  -0.096   8.705  0.2264 -0.4733  0.0360
   67CHL1   H25 7430   2.286  -0.012   8.644  1.0323 -1.7231 -1.2511
   67CHL1   C26 7431   2.330  -0.217   8.644  0.1131  0.4430  0.3933
   67CHL1  H26A 7432   2.437  -0.193   8.628  0.5268 -1.9304 -0.8974
   67CHL1  H26B 7433   2.319  -0.305   8.711  0.1645 -0.8228 -1.2069
   67CHL1  H26C 7434   2.278  -0.243   8.549 -1.0574 -1.5461  1.5018
   67CHL1   C27 7435   2.103  -0.101   8.670 -0.2116 -0.0118 -0.7527
   67CHL1  H27A 7436   2.056  -0.001   8.658 -2.3343 -1.0223 -1.4464
   67CHL1  H27B 7437   2.078  -0.148   8.572  2.1276 -2.2401 -0.3810
   67CHL1  H27C 7438   2.042  -0.149   8.749  0.5301 -1.5410 -1.0691
   68CHL1    C3 7439   1.589   1.118  10.052  0.1513 -0.4467  1.4836
   68CHL1    H3 7440   1.643   1.214  10.036 -0.5213 -0.1151  1.1564
   68CHL1    O3 7441   1.591   1.087  10.189  0.3685  0.5489 -0.3234
   68CHL1   H3' 7442   1.586   0.991  10.196  3.5583  0.3114  0.3175
   68CHL1    C4 7443   1.444   1.129  10.010  0.5055 -0.3405  0.8499
   68CHL1   H4A 7444   1.395   1.036  10.046 -0.7233  0.0105  0.1628
   68CHL1   H4B 7445   1.386   1.205  10.066 -0.2074 -1.9677  2.3907
   68CHL1    C5 7446   1.418   1.140   9.863 -0.0115  0.5055  0.8659
   68CHL1    C6 7447   1.352   1.248   9.820  0.0201  0.5331 -0.4764
   68CHL1    H6 7448   1.295   1.310   9.890 -3.0566  1.7483 -3.7499
   68CHL1    C7 7449   1.314   1.280   9.683 -0.5184  0.4012 -0.1041
   68CHL1   H7A 7450   1.209   1.315   9.683  0.5360  3.9910  0.6334
   68CHL1   H7B 7451   1.380   1.360   9.643 -1.3548  0.2240 -1.9318
   68CHL1    C8 7452   1.351   1.163   9.587  0.3885 -0.0572  0.0224
   68CHL1    H8 7453   1.279   1.082   9.614  0.5300  0.2610  1.4520
   68CHL1   C14 7454   1.349   1.212   9.442  0.3646  0.2292  0.5836
   68CHL1   H14 7455   1.426   1.291   9.441  0.5134  0.1324  2.2719
   68CHL1   C15 7456   1.221   1.275   9.377  0.2475 -0.8083  0.2601
   68CHL1  H15A 7457   1.131   1.228   9.423 -0.4251  0.0389 -0.1665
   68CHL1  H15B 7458   1.230   1.383   9.400 -0.7716  0.0977 -2.9685
   68CHL1   C16 7459   1.227   1.244   9.227 -0.1508 -0.3601 -0.1278
   68CHL1  H16A 7460   1.146   1.174   9.199 -0.5342 -0.7206  1.7340
   68CHL1  H16B 7461   1.213   1.334   9.164 -0.8799  0.4554  1.1548
   68CHL1   C17 7462   1.366   1.174   9.209  0.0077 -0.7323  0.1180
   68CHL1   H17 7463   1.433   1.262   9.200 -0.6872 -0.1198  0.8215
   68CHL1   C13 7464   1.393   1.099   9.344 -0.4497 -0.3461 -0.5870
   68CHL1   C18 7465   1.296   0.973   9.350 -0.5082  0.1677 -0.2686
   68CHL1  H18A 7466   1.190   0.993   9.322 -0.3579 -1.1520 -1.9115
   68CHL1  H18B 7467   1.330   0.897   9.277 -2.0211 -0.6300 -0.1744
   68CHL1  H18C 7468   1.287   0.932   9.452  0.0994 -0.6197 -0.5250
   68CHL1   C12 7469   1.535   1.049   9.370 -0.6737 -0.1379 -0.0528
   68CHL1  H12A 7470   1.557   0.958   9.309  1.2683  0.2392  0.0264
   68CHL1  H12B 7471   1.598   1.131   9.332 -1.0820  1.1407  1.8869
   68CHL1   C11 7472   1.561   1.004   9.518  0.4141 -0.1482  0.3757
   68CHL1  H11A 7473   1.523   0.900   9.529 -1.3774  0.5464  1.3566
   68CHL1  H11B 7474   1.669   0.991   9.539  0.4258  0.8986  0.9879
   68CHL1    C9 7475   1.487   1.100   9.622 -0.1206  0.1634 -0.0432
   68CHL1    H9 7476   1.551   1.190   9.635  1.8905 -1.1317 -0.5414
   68CHL1   C10 7477   1.498   1.050   9.769 -0.0811 -0.0736  0.2817
   68CHL1   C19 7478   1.443   0.902   9.767 -0.0282 -0.0952  0.9063
   68CHL1  H19A 7479   1.357   0.896   9.697  2.1950  3.2269 -2.4648
   68CHL1  H19B 7480   1.513   0.825   9.728 -0.1130  0.0356  0.4929
   68CHL1  H19C 7481   1.421   0.870   9.871  0.2925  0.5180  1.1655
   68CHL1    C1 7482   1.643   1.034   9.812  0.1807 -1.5846 -0.1902
   68CHL1   H1A 7483   1.695   0.955   9.755  0.1609 -0.0604 -2.4727
   68CHL1   H1B 7484   1.690   1.135   9.801 -3.3514  0.3170  0.6485
   68CHL1    C2 7485   1.657   1.006   9.964 -0.4731  0.2841 -0.1469
   68CHL1   H2A 7486   1.761   0.985   9.998  0.3154  0.6455 -2.1731
   68CHL1   H2B 7487   1.601   0.913   9.987 -0.0220 -0.1536 -0.7566
   68CHL1   C20 7488   1.379   1.095   9.077 -0.8846  0.1567 -0.0501
   68CHL1   H20 7489   1.345   0.991   9.096 -2.3751  0.8332  1.1579
   68CHL1   C21 7490   1.535   1.086   9.034 -0.3847 -0.3337 -0.6796
   68CHL1  H21A 7491   1.547   1.119   8.929 -1.2280  1.4362 -0.2477
   68CHL1  H21B 7492   1.576   0.985   9.057  0.1358 -0.4501 -2.0323
   68CHL1  H21C 7493   1.593   1.162   9.092 -0.1833 -0.8798 -0.1500
   68CHL1   C22 7494   1.290   1.161   8.964  0.0019 -0.2221 -0.8328
   68CHL1  H22A 7495   1.185   1.159   8.998  0.0130  1.8370 -0.5380
   68CHL1  H22B 7496   1.323   1.267   8.959  0.1505 -0.2151  0.0992
   68CHL1   C23 7497   1.311   1.102   8.819  0.2045 -0.0860  0.3069
   68CHL1  H23A 7498   1.405   1.118   8.762 -1.5592 -0.9958 -3.1384
   68CHL1  H23B 7499   1.298   0.992   8.823 -1.2607 -0.1537 -3.0445
   68CHL1   C24 7500   1.199   1.153   8.726  0.7637 -0.6822  0.2715
   68CHL1  H24A 7501   1.106   1.095   8.741  0.1909  0.0604 -0.3630
   68CHL1  H24B 7502   1.184   1.259   8.756  1.0171 -0.6737  0.3733
   68CHL1   C25 7503   1.232   1.129   8.571  0.3396  0.3447 -0.2538
   68CHL1   H25 7504   1.330   1.180   8.560  1.3854 -1.9180 -2.6066
   68CHL1   C26 7505   1.254   0.985   8.528 -0.6022  0.7980 -0.4241
   68CHL1  H26A 7506   1.161   0.926   8.540  0.2058 -0.0876  1.9098
   68CHL1  H26B 7507   1.295   0.985   8.424 -0.8129  0.1406 -0.5109
   68CHL1  H26C 7508   1.328   0.938   8.596 -0.6542  2.2226  0.6604
   68CHL1   C27 7509   1.139   1.191   8.475 -0.2408 -0.0609  0.1908
   68CHL1  H27A 7510   1.041   1.139   8.462 -1.6225  2.8241 -2.2719
   68CHL1  H27B 7511   1.114   1.295   8.504  0.3813  0.8565 -2.3150
   68CHL1  H27C 7512   1.197   1.196   8.380 -0.4273 -2.7279 -0.1405
   69CHL1    C3 7513   6.013   1.023   6.826 -0.3304  0.2484 -0.0089
   69CHL1    H3 7514   6.117   1.062   6.824  0.0851 -0.8472 -0.8454
   69CHL1    O3 7515   5.971   0.980   6.695  0.4470  0.3603  0.1766
   69CHL1   H3' 7516   6.029   0.908   6.671  1.2941  1.3864 -1.0116
   69CHL1    C4 7517   5.990   0.902   6.916  0.4341 -0.5617  0.1263
   69CHL1   H4A 7518   5.887   0.861   6.914 -0.0243  0.5705 -1.3945
   69CHL1   H4B 7519   6.045   0.818   6.870  0.4837  0.2173 -1.2951
   69CHL1    C5 7520   6.048   0.945   7.051  0.5583  0.3915  0.0981
   69CHL1    C6 7521   6.151   0.886   7.105 -0.3349  0.6808  0.2187
   69CHL1    H6 7522   6.194   0.798   7.055  3.1899  1.0267  2.2927
   69CHL1    C7 7523   6.208   0.913   7.240  0.1538  0.6789 -0.1717
   69CHL1   H7A 7524   6.234   0.817   7.288 -0.6162  0.2224 -0.6464
   69CHL1   H7B 7525   6.295   0.980   7.220  1.7235 -1.6658 -1.6100
   69CHL1    C8 7526   6.101   0.985   7.327 -0.0602 -0.9068  0.3516
   69CHL1    H8 7527   6.029   0.905   7.355 -0.1388 -0.6296  0.9624
   69CHL1   C14 7528   6.161   1.045   7.457  0.3128  0.4310  0.1852
   69CHL1   H14 7529   6.235   1.124   7.433  0.2372 -0.0571 -1.7714
   69CHL1   C15 7530   6.227   0.940   7.548 -0.1833 -0.2419  0.6081
   69CHL1  H15A 7531   6.156   0.857   7.566 -0.4664  0.1661  1.4577
   69CHL1  H15B 7532   6.321   0.902   7.503  1.5033  3.4161  0.6962
   69CHL1   C16 7533   6.248   1.010   7.685  0.2566 -0.1206  0.8395
   69CHL1  H16A 7534   6.202   0.945   7.763  1.3680 -1.4223  0.4559
   69CHL1  H16B 7535   6.357   1.021   7.707  0.2323 -2.0702  2.2105
   69CHL1   C17 7536   6.159   1.142   7.680 -0.5874 -0.0317 -0.3761
   69CHL1   H17 7537   6.229   1.223   7.651 -0.1302 -0.4348 -0.4300
   69CHL1   C13 7538   6.067   1.117   7.555  0.7175  0.6433 -0.1623
   69CHL1   C18 7539   5.952   1.023   7.604  0.3652 -0.6684  0.0431
   69CHL1  H18A 7540   5.861   1.084   7.620 -0.2223 -0.9956 -1.7652
   69CHL1  H18B 7541   5.907   0.960   7.524 -0.1729 -2.0329  1.3787
   69CHL1  H18C 7542   5.965   0.955   7.690 -2.1045  0.7273  1.6455
   69CHL1   C12 7543   6.020   1.239   7.472  0.2839  0.5707 -0.0895
   69CHL1  H12A 7544   5.940   1.296   7.522 -0.2571 -0.2589  0.0019
   69CHL1  H12B 7545   6.111   1.300   7.453  0.6783  1.1732  3.1501
   69CHL1   C11 7546   5.951   1.197   7.336 -0.8969  0.1344 -0.8136
   69CHL1  H11A 7547   5.858   1.160   7.384 -0.2590  0.2254  0.5471
   69CHL1  H11B 7548   5.944   1.287   7.271 -0.3808  0.3698 -0.5516
   69CHL1    C9 7549   6.035   1.098   7.248 -0.4706 -0.1599  0.8460
   69CHL1    H9 7550   6.121   1.162   7.218 -0.8225  0.3782  0.9713
   69CHL1   C10 7551   5.965   1.048   7.117  0.1183  0.2422 -0.3448
   69CHL1   C19 7552   5.827   0.990   7.165 -0.4259  0.1613 -0.3296
   69CHL1  H19A 7553   5.774   0.959   7.072 -0.5563 -0.9618  0.1030
   69CHL1  H19B 7554   5.849   0.907   7.236 -1.2918  0.7037  0.5969
   69CHL1  H19C 7555   5.771   1.071   7.216 -0.8383 -1.2888  1.6517
   69CHL1    C1 7556   5.950   1.171   7.022  0.0541 -0.6089  0.0843
   69CHL1   H1A 7557   5.896   1.260   7.060  2.3084 -0.1095  2.4195
   69CHL1   H1B 7558   6.049   1.220   7.010  0.1373 -0.6860  0.4541
   69CHL1    C2 7559   5.916   1.131   6.873 -0.1923  0.7732  0.0351
   69CHL1   H2A 7560   5.925   1.222   6.810  2.6766  1.0354  0.7034
   69CHL1   H2B 7561   5.812   1.092   6.869 -0.3569  1.2501 -0.6679
   69CHL1   C20 7562   6.096   1.192   7.813 -0.3744 -0.6275 -0.6495
   69CHL1   H20 7563   6.005   1.130   7.828 -0.1013 -1.4439 -2.1745
   69CHL1   C21 7564   6.053   1.340   7.799  0.8448 -0.0105  0.8915
   69CHL1  H21A 7565   6.140   1.397   7.760  1.7121 -2.7392 -1.5084
   69CHL1  H21B 7566   6.012   1.385   7.892 -1.5830 -1.8233  0.7934
   69CHL1  H21C 7567   5.965   1.350   7.732 -0.5536  0.5771  2.7165
   69CHL1   C22 7568   6.186   1.175   7.930 -0.4909 -0.4119  0.1747
   69CHL1  H22A 7569   6.228   1.073   7.945  1.9270  0.7554  2.0492
   69CHL1  H22B 7570   6.277   1.237   7.914 -1.0512  0.7329  1.3058
   69CHL1   C23 7571   6.140   1.225   8.070 -0.4991  0.1600  0.3274
   69CHL1  H23A 7572   6.096   1.327   8.068  1.5124  1.0809 -1.0894
   69CHL1  H23B 7573   6.064   1.155   8.111  0.1400  0.9084  2.9696
   69CHL1   C24 7574   6.252   1.228   8.178 -0.6112  0.2780 -0.1570
   69CHL1  H24A 7575   6.327   1.163   8.129 -0.2181 -1.8043  2.9250
   69CHL1  H24B 7576   6.299   1.328   8.192 -1.1017  0.9425 -2.7081
   69CHL1   C25 7577   6.198   1.188   8.317 -0.1639  0.6270 -0.3201
   69CHL1   H25 7578   6.145   1.092   8.303 -0.2132 -0.0050  3.2887
   69CHL1   C26 7579   6.306   1.159   8.415 -0.2962 -0.0976  0.6110
   69CHL1  H26A 7580   6.388   1.112   8.357  0.4991 -0.2397  1.8107
   69CHL1  H26B 7581   6.343   1.255   8.458  0.7001 -0.3722  0.3816
   69CHL1  H26C 7582   6.286   1.089   8.499  0.3341 -0.3510  0.5543
   69CHL1   C27 7583   6.100   1.292   8.370 -0.1687  0.0549  0.4510
   69CHL1  H27A 7584   6.050   1.278   8.468  1.7927  0.0371  1.5142
   69CHL1  H27B 7585   6.156   1.388   8.376 -0.7120  0.4767 -0.9707
   69CHL1  H27C 7586   6.023   1.303   8.291 -0.7974 -2.5475  0.6100
   70CHL1    C3 7587   0.165   3.295   6.984 -0.7840 -0.4620 -0.3316
   70CHL1    H3 7588   0.089   3.375   6.991  2.2344  2.5215  1.2641
   70CHL1    O3 7589   0.178   3.261   6.846  0.3895  0.8572 -0.4342
   70CHL1   H3' 7590   0.236   3.185   6.851  1.6730  1.8569  1.1403
   70CHL1    C4 7591   0.298   3.361   7.025  0.3473 -0.3319  0.4595
   70CHL1   H4A 7592   0.387   3.303   6.993  0.6590  0.5670 -0.3510
   70CHL1   H4B 7593   0.308   3.459   6.973  0.0353 -0.6849 -0.2799
   70CHL1    C5 7594   0.301   3.391   7.172 -0.6895  0.5944  0.1317
   70CHL1    C6 7595   0.331   3.512   7.222  0.0858  0.4743 -0.5181
   70CHL1    H6 7596   0.348   3.598   7.156  2.1188 -0.7440 -1.6813
   70CHL1    C7 7597   0.345   3.545   7.366 -0.0017 -0.1256  0.5781
   70CHL1   H7A 7598   0.421   3.622   7.390  0.2506 -0.7439  1.7911
   70CHL1   H7B 7599   0.251   3.591   7.402 -0.3567  1.6928 -2.2820
   70CHL1    C8 7600   0.354   3.426   7.462 -1.0295  0.3291 -0.0038
   70CHL1    H8 7601   0.455   3.380   7.458 -1.8094 -1.5890  0.7828
   70CHL1   C14 7602   0.338   3.467   7.612  1.0183 -0.2357 -0.3646
   70CHL1   H14 7603   0.235   3.509   7.620  1.6010  1.0575  0.7441
   70CHL1   C15 7604   0.425   3.568   7.669  0.3520  0.0209 -0.3129
   70CHL1  H15A 7605   0.533   3.545   7.658  0.0472 -0.6395 -2.2570
   70CHL1  H15B 7606   0.417   3.663   7.611  1.3839 -0.2357 -0.8897
   70CHL1   C16 7607   0.394   3.558   7.824  0.2505 -0.2433  0.5031
   70CHL1  H16A 7608   0.493   3.544   7.872  0.1480  3.7561  2.3233
   70CHL1  H16B 7609   0.340   3.649   7.858  0.2799  0.2314 -0.6819
   70CHL1   C17 7610   0.310   3.428   7.841  0.1713 -0.7965  0.3541
   70CHL1   H17 7611   0.207   3.469   7.838  0.5082  0.1521  1.1354
   70CHL1   C13 7612   0.331   3.354   7.709  0.3056 -0.7066  0.1814
   70CHL1   C18 7613   0.458   3.274   7.710 -0.4412 -0.3607  0.8724
   70CHL1  H18A 7614   0.548   3.329   7.743 -0.8581 -0.3249  1.9846
   70CHL1  H18B 7615   0.445   3.187   7.778  1.1307 -1.2978  0.0406
   70CHL1  H18C 7616   0.483   3.228   7.611 -1.3372  1.5902 -0.3298
   70CHL1   C12 7617   0.218   3.258   7.669  0.3610 -0.1665  0.4134
   70CHL1  H12A 7618   0.212   3.165   7.728  1.3282 -0.0017  0.7945
   70CHL1  H12B 7619   0.122   3.312   7.676  0.3956  0.1383 -1.0638
   70CHL1   C11 7620   0.236   3.205   7.525 -0.0194 -0.0259  0.6863
   70CHL1  H11A 7621   0.325   3.138   7.527 -0.0758 -0.1240  0.1317
   70CHL1  H11B 7622   0.145   3.153   7.490 -2.1904  3.8499  0.0988
   70CHL1    C9 7623   0.257   3.319   7.418  0.0555  0.4907 -0.0124
   70CHL1    H9 7624   0.154   3.362   7.420 -0.5554 -0.8638 -0.7163
   70CHL1   C10 7625   0.276   3.272   7.272 -0.1499  0.3206  0.1508
   70CHL1   C19 7626   0.395   3.172   7.263  0.0602  0.4021 -0.8766
   70CHL1  H19A 7627   0.403   3.140   7.157 -2.4320  0.4225 -1.1266
   70CHL1  H19B 7628   0.484   3.226   7.300  1.0286 -0.4345 -1.9233
   70CHL1  H19C 7629   0.376   3.076   7.314  0.8629 -0.0451 -1.4034
   70CHL1    C1 7630   0.150   3.193   7.223  0.6469  0.0119  0.2752
   70CHL1   H1A 7631   0.140   3.100   7.282 -0.2891 -0.3482 -0.4244
   70CHL1   H1B 7632   0.063   3.256   7.250  1.7312  0.4870  2.9557
   70CHL1    C2 7633   0.138   3.164   7.069  0.2521  0.3163 -0.7592
   70CHL1   H2A 7634   0.039   3.115   7.054 -0.0608  0.2903  1.1462
   70CHL1   H2B 7635   0.221   3.092   7.053  0.7847  0.0818  2.4712
   70CHL1   C20 7636   0.336   3.358   7.977  0.1918 -0.0940  0.3320
   70CHL1   H20 7637   0.432   3.303   7.967  0.1490 -0.6286  2.4639
   70CHL1   C21 7638   0.227   3.254   8.012 -0.2206 -0.2416 -0.3796
   70CHL1  H21A 7639   0.130   3.305   8.033  0.8203  1.7262 -0.1936
   70CHL1  H21B 7640   0.256   3.202   8.106 -0.0153 -0.2314 -0.4370
   70CHL1  H21C 7641   0.219   3.184   7.927  1.7723 -2.1286  0.8744
   70CHL1   C22 7642   0.357   3.463   8.087 -0.0820  0.7119  0.0446
   70CHL1  H22A 7643   0.430   3.542   8.059 -0.0476  0.6656  0.0027
   70CHL1  H22B 7644   0.262   3.516   8.108  0.5400  2.8963 -2.2391
   70CHL1   C23 7645   0.405   3.388   8.214 -0.2952  0.0309 -0.8692
   70CHL1  H23A 7646   0.332   3.326   8.269  0.0585 -2.2527 -2.7701
   70CHL1  H23B 7647   0.485   3.316   8.184 -0.1918 -0.4983  0.6120
   70CHL1   C24 7648   0.478   3.483   8.310 -0.3130 -0.6388 -0.3595
   70CHL1  H24A 7649   0.539   3.434   8.388  0.6331 -0.8195 -1.1932
   70CHL1  H24B 7650   0.560   3.534   8.255  0.4248  1.6249  2.5740
   70CHL1   C25 7651   0.372   3.572   8.385  0.1899  0.6385 -0.2891
   70CHL1   H25 7652   0.298   3.578   8.302  3.4650 -0.2755 -3.5866
   70CHL1   C26 7653   0.308   3.509   8.509  0.0559  0.1795 -0.1931
   70CHL1  H26A 7654   0.245   3.420   8.486  1.0810 -0.5308 -0.3225
   70CHL1  H26B 7655   0.375   3.460   8.584 -0.9766  0.3687  0.8900
   70CHL1  H26C 7656   0.248   3.586   8.562 -2.1838 -0.2831 -1.9286
   70CHL1   C27 7657   0.418   3.714   8.415 -0.3050  0.3243  0.4714
   70CHL1  H27A 7658   0.487   3.706   8.502  0.7913 -0.9484 -0.4809
   70CHL1  H27B 7659   0.466   3.754   8.323 -1.9140  1.3535  0.0276
   70CHL1  H27C 7660   0.327   3.776   8.433 -0.4605  0.1314  0.3574
   71CHL1    C3 7661   6.278   5.456   6.892 -0.2727  0.1670  0.1985
   71CHL1    H3 7662   6.328   5.357   6.902 -0.5422 -0.0807 -0.8229
   71CHL1    O3 7663   6.285   5.484   6.752 -0.1363  0.5050 -0.5432
   71CHL1   H3' 7664   6.376   5.509   6.734  0.1416  2.1323  2.3386
   71CHL1    C4 7665   6.128   5.436   6.934  0.0338  0.2567 -0.2137
   71CHL1   H4A 7666   6.070   5.530   6.923 -4.1952 -1.9331  1.4082
   71CHL1   H4B 7667   6.087   5.357   6.867 -0.2162 -0.9315  1.2902
   71CHL1    C5 7668   6.120   5.398   7.081 -0.0575  0.7852  0.1354
   71CHL1    C6 7669   6.073   5.276   7.112 -0.0650 -0.7373 -0.0396
   71CHL1    H6 7670   6.025   5.211   7.039 -1.1897 -0.4914  0.4665
   71CHL1    C7 7671   6.060   5.224   7.254  0.7209  0.3875  0.4438
   71CHL1   H7A 7672   5.958   5.186   7.278  0.8665 -0.3602 -0.1186
   71CHL1   H7B 7673   6.127   5.140   7.281  0.7900  0.4073  0.3308
   71CHL1    C8 7674   6.100   5.342   7.354 -0.1407  0.5025 -0.2031
   71CHL1    H8 7675   6.011   5.408   7.345  0.3294  0.9071 -2.7787
   71CHL1   C14 7676   6.134   5.275   7.487 -0.6324 -0.5538  0.0129
   71CHL1   H14 7677   6.219   5.207   7.462 -1.3094 -0.5127 -2.6982
   71CHL1   C15 7678   6.027   5.171   7.543  0.4229  0.0124  0.6819
   71CHL1  H15A 7679   5.926   5.216   7.546  1.7378  3.1849  2.1052
   71CHL1  H15B 7680   6.039   5.075   7.489  1.4855  0.9691 -0.8705
   71CHL1   C16 7681   6.067   5.167   7.695  0.6314  0.1415  0.2426
   71CHL1  H16A 7682   5.980   5.189   7.760  1.1076  0.7259  0.6970
   71CHL1  H16B 7683   6.113   5.069   7.717 -1.4216 -0.6263  1.3812
   71CHL1   C17 7684   6.173   5.277   7.726 -0.0885 -0.9329  0.0356
   71CHL1   H17 7685   6.273   5.229   7.724 -0.0101 -0.8691  1.5489
   71CHL1   C13 7686   6.161   5.372   7.601  0.4424  0.4863  0.3262
   71CHL1   C18 7687   6.043   5.468   7.617  0.3217 -0.1500 -0.5384
   71CHL1  H18A 7688   6.062   5.545   7.694  0.0079 -0.2799 -0.3323
   71CHL1  H18B 7689   6.010   5.521   7.526 -0.1132  0.7478  0.1380
   71CHL1  H18C 7690   5.955   5.410   7.652 -0.5362  0.8194 -1.0461
   71CHL1   C12 7691   6.286   5.452   7.558  0.8351 -0.7729  0.0556
   71CHL1  H12A 7692   6.308   5.532   7.633  2.4427 -0.8055 -0.3360
   71CHL1  H12B 7693   6.379   5.391   7.559  0.2676 -1.7240  2.2611
   71CHL1   C11 7694   6.272   5.526   7.426  0.2183  0.5660 -0.1488
   71CHL1  H11A 7695   6.195   5.606   7.437  1.8288  1.9863  1.2773
   71CHL1  H11B 7696   6.373   5.565   7.401  0.5348 -1.0531 -1.5482
   71CHL1    C9 7697   6.223   5.429   7.315  0.5401 -0.4395  0.3806
   71CHL1    H9 7698   6.301   5.350   7.307  1.0669  0.0025  1.0274
   71CHL1   C10 7699   6.198   5.495   7.177  0.3948  0.1710  0.2846
   71CHL1   C19 7700   6.115   5.631   7.201 -0.3701  0.3176  0.3771
   71CHL1  H19A 7701   6.064   5.663   7.107  0.1910  1.1019  0.3265
   71CHL1  H19B 7702   6.038   5.610   7.278 -3.0320  1.9457 -1.6430
   71CHL1  H19C 7703   6.179   5.714   7.237  0.1223  1.2691 -2.4292
   71CHL1    C1 7704   6.345   5.522   7.126 -0.2111 -1.4471  0.2993
   71CHL1   H1A 7705   6.391   5.609   7.178 -0.7051 -0.7045 -0.4661
   71CHL1   H1B 7706   6.406   5.431   7.141 -1.8946 -2.4892  1.2086
   71CHL1    C2 7707   6.356   5.553   6.977  0.1474 -0.1477  0.4976
   71CHL1   H2A 7708   6.462   5.560   6.944 -0.2456  3.1819 -0.4112
   71CHL1   H2B 7709   6.317   5.657   6.964  1.5216  0.6677  2.3845
   71CHL1   C20 7710   6.158   5.334   7.866 -0.6843 -0.5920  0.4236
   71CHL1   H20 7711   6.056   5.380   7.867 -1.8993 -3.1246  0.1139
   71CHL1   C21 7712   6.266   5.445   7.893  0.3093 -0.2291  0.8819
   71CHL1  H21A 7713   6.263   5.537   7.831  2.2939 -1.6411 -1.4935
   71CHL1  H21B 7714   6.365   5.396   7.895  0.7419  0.6055  3.1514
   71CHL1  H21C 7715   6.251   5.483   7.996  2.6550  0.5097  1.0129
   71CHL1   C22 7716   6.171   5.227   7.976  0.3205  0.4422 -0.8125
   71CHL1  H22A 7717   6.115   5.136   7.944  0.0198  0.3960 -0.1713
   71CHL1  H22B 7718   6.273   5.201   8.010 -0.4034 -2.3866 -0.5170
   71CHL1   C23 7719   6.098   5.268   8.109  0.2358 -0.0816  0.3258
   71CHL1  H23A 7720   6.155   5.350   8.158  2.4609 -1.3866  0.0210
   71CHL1  H23B 7721   5.998   5.309   8.079 -0.2282 -1.3750  0.0492
   71CHL1   C24 7722   6.080   5.153   8.212 -0.5075  1.1166  0.1221
   71CHL1  H24A 7723   6.023   5.069   8.166  1.9352  0.2740 -1.5891
   71CHL1  H24B 7724   6.180   5.113   8.240 -1.3070 -1.1544 -0.0267
   71CHL1   C25 7725   6.003   5.211   8.331 -0.5413 -0.0536  0.0675
   71CHL1   H25 7726   5.940   5.295   8.297  0.6952  1.7371  1.9521
   71CHL1   C26 7727   5.904   5.111   8.396  0.4027 -0.6783  0.6515
   71CHL1  H26A 7728   5.844   5.062   8.316 -0.0432  0.4026  0.2944
   71CHL1  H26B 7729   5.960   5.034   8.452  0.6396  0.2973  1.8004
   71CHL1  H26C 7730   5.840   5.168   8.468  2.5014 -1.0322  2.9102
   71CHL1   C27 7731   6.093   5.277   8.437 -0.7728  0.4227  0.3444
   71CHL1  H27A 7732   6.158   5.197   8.477  0.2283 -0.1294 -2.1959
   71CHL1  H27B 7733   6.172   5.343   8.394  0.4281  2.7121  5.3481
   71CHL1  H27C 7734   6.043   5.322   8.525  0.5266 -0.0635  1.3606
   72CHL1    C3 7735   0.902   3.850   7.140  0.2013 -0.4915 -0.2488
   72CHL1    H3 7736   0.971   3.937   7.136 -0.7602  0.4554  1.9661
   72CHL1    O3 7737   0.879   3.811   7.009  0.6546 -0.2087 -0.2833
   72CHL1   H3' 7738   0.809   3.869   6.978 -0.4193 -2.1258 -1.5985
   72CHL1    C4 7739   0.955   3.729   7.218  0.2640  0.1768  0.4079
   72CHL1   H4A 7740   0.884   3.645   7.199 -0.7423  0.9387  0.6972
   72CHL1   H4B 7741   1.054   3.706   7.174 -0.0784 -0.1092 -0.2346
   72CHL1    C5 7742   0.966   3.763   7.368  0.2905 -0.5316  0.4776
   72CHL1    C6 7743   1.079   3.738   7.434 -0.2448 -0.0042  0.1627
   72CHL1    H6 7744   1.168   3.694   7.386 -0.5077 -0.2183 -0.1367
   72CHL1    C7 7745   1.087   3.756   7.591 -0.3071 -0.0666  0.8489
   72CHL1   H7A 7746   1.142   3.672   7.639 -1.2220  0.8228  3.6820
   72CHL1   H7B 7747   1.141   3.853   7.594 -0.3586  0.0217 -0.4887
   72CHL1    C8 7748   0.948   3.770   7.658  0.1916 -0.0809  0.4898
   72CHL1    H8 7749   0.900   3.671   7.646  0.2543 -0.2673  1.6547
   72CHL1   C14 7750   0.970   3.808   7.803 -0.6149 -0.3259  0.5998
   72CHL1   H14 7751   1.012   3.911   7.808 -2.1723  0.6707 -3.2290
   72CHL1   C15 7752   1.066   3.721   7.886 -0.3549  0.6378  0.3718
   72CHL1  H15A 7753   1.049   3.613   7.866 -3.3917  0.9189  0.8675
   72CHL1  H15B 7754   1.174   3.739   7.870  0.2340 -1.9948  0.9310
   72CHL1   C16 7755   1.022   3.742   8.030 -0.6919  0.2360  0.4566
   72CHL1  H16A 7756   0.985   3.647   8.074 -0.3052 -0.8376 -1.4276
   72CHL1  H16B 7757   1.105   3.780   8.092  0.3055 -1.7305  0.3950
   72CHL1   C17 7758   0.903   3.848   8.020 -0.2596  0.1692 -0.7311
   72CHL1   H17 7759   0.963   3.942   8.017  1.3518 -0.7575  0.4976
   72CHL1   C13 7760   0.839   3.813   7.885 -0.2891  0.0713  0.2978
   72CHL1   C18 7761   0.762   3.677   7.878  0.5020 -0.0142  0.2540
   72CHL1  H18A 7762   0.818   3.601   7.937 -0.3293 -0.7284  0.1440
   72CHL1  H18B 7763   0.671   3.692   7.940  1.7261 -1.9977  2.7396
   72CHL1  H18C 7764   0.732   3.630   7.782 -0.2493 -0.0590  0.5061
   72CHL1   C12 7765   0.754   3.925   7.820  0.8288 -0.3476  0.5605
   72CHL1  H12A 7766   0.658   3.929   7.875  0.6424 -2.1956  0.4510
   72CHL1  H12B 7767   0.814   4.016   7.837  1.9682 -1.3715  2.4052
   72CHL1   C11 7768   0.730   3.893   7.669 -0.2087  0.0663 -0.7108
   72CHL1  H11A 7769   0.672   3.798   7.671 -0.8437  0.3268 -3.2235
   72CHL1  H11B 7770   0.664   3.968   7.621 -1.5641 -0.6262 -0.0007
   72CHL1    C9 7771   0.859   3.866   7.584  0.0498 -0.0852  0.2889
   72CHL1    H9 7772   0.909   3.965   7.585 -2.3100  1.1736 -0.5228
   72CHL1   C10 7773   0.836   3.822   7.436  0.4673  0.4677  0.3426
   72CHL1   C19 7774   0.729   3.704   7.439 -0.1494 -0.2001  0.1250
   72CHL1  H19A 7775   0.711   3.652   7.342  1.3504 -3.6137  1.5045
   72CHL1  H19B 7776   0.773   3.615   7.488  1.2579  0.9478  1.0203
   72CHL1  H19C 7777   0.629   3.727   7.480 -0.4129 -0.7212 -0.2158
   72CHL1    C1 7778   0.786   3.940   7.354  0.2479 -0.6267  0.4798
   72CHL1   H1A 7779   0.688   3.982   7.384  0.0873 -1.0606  0.5688
   72CHL1   H1B 7780   0.856   4.026   7.363 -1.3315  0.6521  0.9227
   72CHL1    C2 7781   0.771   3.906   7.200 -0.7006 -0.0782 -0.1401
   72CHL1   H2A 7782   0.726   3.993   7.147 -3.4327 -0.8709  0.6842
   72CHL1   H2B 7783   0.687   3.833   7.192 -3.6323  3.1134 -1.0397
   72CHL1   C20 7784   0.820   3.864   8.144 -0.5880  0.4527 -0.3093
   72CHL1   H20 7785   0.726   3.811   8.119  0.2104 -0.0846 -2.3521
   72CHL1   C21 7786   0.792   4.020   8.162 -0.6483  0.0231 -0.1657
   72CHL1  H21A 7787   0.759   4.072   8.070 -1.0796  1.7774  0.9392
   72CHL1  H21B 7788   0.885   4.075   8.184 -0.3307 -0.4192 -0.3900
   72CHL1  H21C 7789   0.708   4.041   8.232 -2.7181 -1.8630 -1.8747
   72CHL1   C22 7790   0.886   3.812   8.272 -0.1597  0.9148  0.0998
   72CHL1  H22A 7791   0.902   3.703   8.265  0.2163  0.8324  1.9198
   72CHL1  H22B 7792   0.986   3.861   8.284  0.7131 -0.7957  0.0388
   72CHL1   C23 7793   0.801   3.845   8.403  0.0572 -0.0177 -0.6039
   72CHL1  H23A 7794   0.798   3.955   8.418 -0.1475 -0.1407  0.2655
   72CHL1  H23B 7795   0.702   3.794   8.395  0.1805 -0.0232 -3.0904
   72CHL1   C24 7796   0.871   3.788   8.527  0.1838 -0.1631 -1.1337
   72CHL1  H24A 7797   0.883   3.680   8.506 -1.6106 -0.5541 -0.3260
   72CHL1  H24B 7798   0.971   3.832   8.544  0.7495 -2.0155  0.8695
   72CHL1   C25 7799   0.791   3.811   8.660  0.2559 -0.3065 -0.1617
   72CHL1   H25 7800   0.685   3.789   8.634  0.6565  0.3044 -2.5701
   72CHL1   C26 7801   0.835   3.712   8.765 -0.5866 -0.7989  0.0637
   72CHL1  H26A 7802   0.830   3.607   8.731  3.0485 -1.5491  1.3809
   72CHL1  H26B 7803   0.940   3.736   8.793 -0.6996 -0.7428  0.4398
   72CHL1  H26C 7804   0.780   3.727   8.860 -0.0248  0.5721  0.2071
   72CHL1   C27 7805   0.809   3.947   8.722  0.5460 -0.4698  0.0317
   72CHL1  H27A 7806   0.734   3.976   8.798  1.3249  1.5955  0.0880
   72CHL1  H27B 7807   0.908   3.956   8.772  0.8215  1.5407 -0.7460
   72CHL1  H27C 7808   0.795   4.018   8.637  0.5594 -1.8803 -1.1987
   73CHL1    C3 7809   0.111   1.577   6.989 -0.3487  1.2127 -0.6357
   73CHL1    H3 7810   0.217   1.548   7.008 -0.9410  1.3779  4.2186
   73CHL1    O3 7811   0.066   1.562   6.858 -0.4321 -0.6247  0.5973
   73CHL1   H3' 7812  -0.004   1.625   6.843  0.1185 -0.2583 -0.5383
   73CHL1    C4 7813   0.019   1.488   7.080  0.4179 -0.2680 -0.3277
   73CHL1   H4A 7814  -0.087   1.490   7.049  0.3339  2.0347 -0.0357
   73CHL1   H4B 7815   0.048   1.382   7.061  0.6605 -0.4247  0.8218
   73CHL1    C5 7816   0.043   1.527   7.230  0.3574  0.1640  0.4843
   73CHL1    C6 7817   0.088   1.432   7.320 -0.2933  0.2853 -0.0397
   73CHL1    H6 7818   0.099   1.328   7.285 -1.4613  0.5293 -1.2248
   73CHL1    C7 7819   0.113   1.474   7.464 -0.5875 -0.1198 -0.8680
   73CHL1   H7A 7820   0.073   1.394   7.530  0.8165  0.3773  0.6558
   73CHL1   H7B 7821   0.223   1.466   7.480 -0.7284  0.4938  0.5936
   73CHL1    C8 7822   0.062   1.612   7.512  0.1281  0.8731 -0.2239
   73CHL1    H8 7823  -0.048   1.605   7.530  0.4853 -0.3672  1.7945
   73CHL1   C14 7824   0.124   1.656   7.639  0.6354 -0.3311 -0.0567
   73CHL1   H14 7825   0.235   1.664   7.629  0.6569  1.9458  1.4508
   73CHL1   C15 7826   0.093   1.572   7.761  0.3069  0.4382  0.1044
   73CHL1  H15A 7827  -0.002   1.516   7.749  0.5594 -0.0572  0.3725
   73CHL1  H15B 7828   0.168   1.490   7.765  0.0030  0.1699  0.4199
   73CHL1   C16 7829   0.104   1.662   7.890  0.4379  0.4114  0.1893
   73CHL1  H16A 7830   0.008   1.657   7.945  0.5074 -1.6536  0.2127
   73CHL1  H16B 7831   0.187   1.626   7.956  0.6209  0.3527 -0.0714
   73CHL1   C17 7832   0.130   1.802   7.832 -0.0481 -0.4340 -0.0062
   73CHL1   H17 7833   0.239   1.823   7.838 -0.4302  1.1883  3.4007
   73CHL1   C13 7834   0.081   1.801   7.681 -0.1614  0.0292  0.8677
   73CHL1   C18 7835  -0.080   1.806   7.682  0.4048  1.1227 -0.3156
   73CHL1  H18A 7836  -0.129   1.735   7.752  0.7151 -0.0948 -1.3115
   73CHL1  H18B 7837  -0.113   1.907   7.716  0.2781  0.9156  0.1973
   73CHL1  H18C 7838  -0.130   1.779   7.587 -0.5526  1.5893  0.0390
   73CHL1   C12 7839   0.130   1.902   7.579  0.0518  0.3369  0.4494
   73CHL1  H12A 7840   0.095   2.006   7.596 -2.1130 -0.5687  1.9797
   73CHL1  H12B 7841   0.241   1.895   7.579  0.1983  1.5792  2.6386
   73CHL1   C11 7842   0.084   1.862   7.440  0.3625 -1.0190 -0.0100
   73CHL1  H11A 7843  -0.021   1.895   7.428  0.1418 -1.8790 -0.5729
   73CHL1  H11B 7844   0.144   1.924   7.371 -0.0304 -2.4085 -1.6617
   73CHL1    C9 7845   0.095   1.710   7.402  0.0088  0.0421  0.1422
   73CHL1    H9 7846   0.205   1.700   7.394  0.3180  1.1856  2.3160
   73CHL1   C10 7847   0.040   1.675   7.260  0.2091  0.2706 -0.7019
   73CHL1   C19 7848  -0.101   1.716   7.256  0.1652 -0.5082  0.1618
   73CHL1  H19A 7849  -0.118   1.824   7.236  0.2459 -0.7796 -1.4729
   73CHL1  H19B 7850  -0.156   1.670   7.171  3.6099  0.3279 -2.8106
   73CHL1  H19C 7851  -0.156   1.690   7.349 -0.5245 -0.6457 -0.2831
   73CHL1    C1 7852   0.124   1.753   7.156 -0.3291 -0.3286  0.7418
   73CHL1   H1A 7853   0.099   1.861   7.172  3.4293  0.3823  2.8667
   73CHL1   H1B 7854   0.228   1.733   7.189  0.4202  1.0689 -0.6395
   73CHL1    C2 7855   0.093   1.723   7.012 -0.6134  0.7670 -0.6550
   73CHL1   H2A 7856   0.160   1.786   6.949  0.4896  2.7602  2.2645
   73CHL1   H2B 7857  -0.013   1.755   7.004 -1.5247 -0.9217  2.6871
   73CHL1   C20 7858   0.069   1.913   7.926  0.2508 -0.5257  0.2033
   73CHL1   H20 7859  -0.041   1.915   7.907  0.4120  1.3009 -0.7379
   73CHL1   C21 7860   0.139   2.043   7.883 -0.1065 -0.2158 -0.4034
   73CHL1  H21A 7861   0.110   2.131   7.946 -1.5214  0.6169 -2.1436
   73CHL1  H21B 7862   0.109   2.060   7.778 -0.2467 -1.2185 -0.5360
   73CHL1  H21C 7863   0.248   2.023   7.879 -0.1112 -0.4957  0.5157
   73CHL1   C22 7864   0.097   1.876   8.071  0.6011 -0.2283  0.1285
   73CHL1  H22A 7865   0.048   1.786   8.115 -0.7472  0.6767  0.5511
   73CHL1  H22B 7866   0.205   1.855   8.080  0.4748 -2.0669 -1.6878
   73CHL1   C23 7867   0.068   1.989   8.177 -0.5667  0.5275  0.7637
   73CHL1  H23A 7868   0.124   2.082   8.154 -0.2537 -0.2836 -2.1798
   73CHL1  H23B 7869  -0.035   2.025   8.159 -0.8597  0.6734  2.5597
   73CHL1   C24 7870   0.083   1.952   8.324  0.0210  0.1707 -0.2044
   73CHL1  H24A 7871   0.033   1.855   8.345 -0.3074  0.1894 -0.8879
   73CHL1  H24B 7872   0.192   1.929   8.336  0.0089 -1.0346 -1.9391
   73CHL1   C25 7873   0.053   2.069   8.425  0.5194 -0.1630  1.0774
   73CHL1   H25 7874   0.131   2.145   8.406  0.9122 -0.8848 -0.2519
   73CHL1   C26 7875  -0.078   2.146   8.401  0.0436  0.6248  0.2747
   73CHL1  H26A 7876  -0.070   2.211   8.311 -0.4322  2.3394  1.4133
   73CHL1  H26B 7877  -0.159   2.072   8.386  0.0624  0.0234  2.6707
   73CHL1  H26C 7878  -0.098   2.201   8.496  1.3498  1.5378  0.0558
   73CHL1   C27 7879   0.069   2.009   8.569  0.4125 -0.2977 -0.1745
   73CHL1  H27A 7880   0.065   2.090   8.645 -0.6116 -1.7569  1.4146
   73CHL1  H27B 7881  -0.019   1.947   8.594 -0.4020  0.3447 -1.3419
   73CHL1  H27C 7882   0.166   1.955   8.564  0.7236  0.3114 -0.9391
   74CHL1    C3 7883   5.302   4.967   7.024  0.1852  0.3188  0.1023
   74CHL1    H3 7884   5.390   5.028   7.055  0.5825  0.5336 -1.3784
   74CHL1    O3 7885   5.290   4.971   6.884 -0.3871  0.4610  0.2015
   74CHL1   H3' 7886   5.199   4.944   6.868 -0.3440 -0.3262  1.2049
   74CHL1    C4 7887   5.324   4.818   7.061 -0.1629  0.5090  0.0967
   74CHL1   H4A 7888   5.239   4.768   7.010 -0.4763  0.6787  0.4497
   74CHL1   H4B 7889   5.412   4.770   7.014 -0.6771 -0.3103 -0.0609
   74CHL1    C5 7890   5.328   4.792   7.214  0.2265  0.1814 -0.1006
   74CHL1    C6 7891   5.432   4.729   7.274  1.5411  0.8777  0.0622
   74CHL1    H6 7892   5.519   4.715   7.209 -0.0072 -0.0344 -1.9374
   74CHL1    C7 7893   5.441   4.695   7.422  0.5110  0.4417  0.1836
   74CHL1   H7A 7894   5.479   4.591   7.432  0.7239  0.4045 -0.8878
   74CHL1   H7B 7895   5.519   4.752   7.477  0.0910 -0.8667  2.2538
   74CHL1    C8 7896   5.300   4.715   7.493 -0.6021  0.3635  0.0566
   74CHL1    H8 7897   5.232   4.629   7.474  0.2693 -0.0165 -1.5058
   74CHL1   C14 7898   5.318   4.720   7.650  0.0194 -0.4163 -0.4283
   74CHL1   H14 7899   5.394   4.800   7.668 -2.1141  1.6212  0.0739
   74CHL1   C15 7900   5.385   4.595   7.727  0.0717 -0.2501  0.0159
   74CHL1  H15A 7901   5.323   4.510   7.693  2.0790 -1.7014 -0.2023
   74CHL1  H15B 7902   5.495   4.593   7.709  0.1498  2.4506 -0.2372
   74CHL1   C16 7903   5.351   4.614   7.877 -0.3360 -0.0551  0.4230
   74CHL1  H16A 7904   5.285   4.529   7.901  1.2625 -1.7769 -0.9264
   74CHL1  H16B 7905   5.440   4.614   7.944 -1.0663 -1.0725  1.4147
   74CHL1   C17 7906   5.266   4.743   7.884 -1.2110 -0.4040 -0.7740
   74CHL1   H17 7907   5.346   4.820   7.887 -0.1432 -1.4923  0.7546
   74CHL1   C13 7908   5.207   4.758   7.738  0.1830  0.1030 -0.2172
   74CHL1   C18 7909   5.082   4.664   7.733  0.3564  0.5771 -0.0901
   74CHL1  H18A 7910   5.055   4.655   7.626  1.2666  1.5210 -0.4230
   74CHL1  H18B 7911   5.110   4.564   7.772  1.1584 -0.1995 -2.4750
   74CHL1  H18C 7912   5.001   4.701   7.799  1.4085  2.1725  0.3825
   74CHL1   C12 7913   5.164   4.901   7.690  0.2502 -0.6216 -0.1076
   74CHL1  H12A 7914   5.081   4.949   7.747  0.6437  0.6325 -0.5557
   74CHL1  H12B 7915   5.250   4.970   7.706  0.3140 -0.4706 -1.0536
   74CHL1   C11 7916   5.126   4.913   7.536 -0.1873 -0.2872  0.1040
   74CHL1  H11A 7917   5.041   4.844   7.516  0.7368 -1.2099 -0.7495
   74CHL1  H11B 7918   5.108   5.022   7.521  0.1282 -0.3343 -0.6720
   74CHL1    C9 7919   5.240   4.854   7.451 -0.0569  0.5269 -0.0301
   74CHL1    H9 7920   5.330   4.915   7.468  1.2322 -1.4435  0.5414
   74CHL1   C10 7921   5.211   4.848   7.294  0.7767 -1.0102 -0.2516
   74CHL1   C19 7922   5.084   4.755   7.265  0.1010 -0.6599 -0.3883
   74CHL1  H19A 7923   5.044   4.775   7.163 -0.9576  2.0363  0.4688
   74CHL1  H19B 7924   5.121   4.651   7.264 -1.0221 -1.0714 -1.0175
   74CHL1  H19C 7925   5.005   4.774   7.341  0.1691 -0.2701 -0.4100
   74CHL1    C1 7926   5.188   4.994   7.245  0.5822 -0.1257 -1.4596
   74CHL1   H1A 7927   5.089   5.020   7.287  1.8835  4.2695 -0.6829
   74CHL1   H1B 7928   5.256   5.062   7.300 -1.0297 -0.5972  1.3144
   74CHL1    C2 7929   5.177   5.013   7.089 -0.3564 -0.6250 -0.1288
   74CHL1   H2A 7930   5.167   5.120   7.058  3.2305  0.8322  2.9879
   74CHL1   H2B 7931   5.094   4.947   7.054 -0.1621 -0.2841 -1.2935
   74CHL1   C20 7932   5.165   4.750   8.009  0.1714  0.0463 -0.1082
   74CHL1   H20 7933   5.096   4.663   8.008 -0.8727  0.8537 -0.1989
   74CHL1   C21 7934   5.080   4.882   8.013  0.0254  0.0765  0.4033
   74CHL1  H21A 7935   5.128   4.979   7.986  0.9574  0.5547  3.4692
   74CHL1  H21B 7936   5.020   4.888   8.106 -0.7628 -2.2082  0.0928
   74CHL1  H21C 7937   5.007   4.876   7.929  1.3758  3.2642 -1.1812
   74CHL1   C22 7938   5.243   4.728   8.143  0.2109  0.0774 -0.2181
   74CHL1  H22A 7939   5.318   4.647   8.135  1.8257  1.5599 -0.6329
   74CHL1  H22B 7940   5.298   4.821   8.168 -0.8658  0.1227  2.2136
   74CHL1   C23 7941   5.154   4.704   8.269  0.5162  0.5276  0.7910
   74CHL1  H23A 7942   5.083   4.789   8.278  0.7294  0.7656  0.2784
   74CHL1  H23B 7943   5.106   4.606   8.248  3.2096 -0.4848 -1.2558
   74CHL1   C24 7944   5.234   4.700   8.396 -0.3548 -0.2095 -0.4601
   74CHL1  H24A 7945   5.321   4.633   8.381 -0.2826 -0.8932  2.5228
   74CHL1  H24B 7946   5.276   4.798   8.428 -0.4860  0.3147 -1.8337
   74CHL1   C25 7947   5.162   4.642   8.518 -0.0375 -0.1088  0.3476
   74CHL1   H25 7948   5.137   4.536   8.494 -0.0461 -0.4397  1.7381
   74CHL1   C26 7949   5.263   4.637   8.636  0.6163  0.2538  0.2252
   74CHL1  H26A 7950   5.222   4.593   8.729 -0.4547 -2.3566 -1.3767
   74CHL1  H26B 7951   5.350   4.579   8.599 -1.3872 -1.8326 -1.4883
   74CHL1  H26C 7952   5.314   4.735   8.650  2.7818 -0.9279  1.1522
   74CHL1   C27 7953   5.036   4.723   8.559 -0.5880  0.5967  0.5819
   74CHL1  H27A 7954   4.997   4.683   8.655  0.5255 -0.4867  0.6107
   74CHL1  H27B 7955   5.048   4.833   8.560 -2.7932  0.9551 -1.5962
   74CHL1  H27C 7956   4.963   4.700   8.478  2.2871 -1.5736 -1.6409
   75CHL1    C3 7957   2.398   6.278   6.707 -0.2180  0.0101  0.1199
   75CHL1    H3 7958   2.469   6.201   6.745  0.5337  0.9128  0.5952
   75CHL1    O3 7959   2.360   6.254   6.573  0.2971 -0.7179  0.4207
   75CHL1   H3' 7960   2.364   6.337   6.524 -2.1902 -1.8808 -2.0828
   75CHL1    C4 7961   2.262   6.255   6.784 -0.3297 -1.2065 -0.0951
   75CHL1   H4A 7962   2.184   6.329   6.755  0.5961 -0.7563 -1.6010
   75CHL1   H4B 7963   2.217   6.157   6.757 -0.3168 -1.8848  2.1516
   75CHL1    C5 7964   2.296   6.278   6.932  0.7091 -0.3923  0.5603
   75CHL1    C6 7965   2.276   6.182   7.013  0.1660  0.6086 -0.0134
   75CHL1    H6 7966   2.226   6.089   6.985  0.1013  1.5569 -3.4435
   75CHL1    C7 7967   2.308   6.194   7.156  0.2180  0.0860 -0.0033
   75CHL1   H7A 7968   2.236   6.140   7.220  2.3472 -4.6317 -1.1374
   75CHL1   H7B 7969   2.403   6.142   7.181 -1.2932 -1.2472  3.7168
   75CHL1    C8 7970   2.311   6.338   7.219  1.2724  0.3511 -0.5000
   75CHL1    H8 7971   2.208   6.377   7.208  1.0513 -0.0593  0.0706
   75CHL1   C14 7972   2.364   6.342   7.365 -0.2984  0.1737 -0.1449
   75CHL1   H14 7973   2.468   6.303   7.367 -0.3941 -0.0638  0.3842
   75CHL1   C15 7974   2.292   6.257   7.478 -1.0368  0.2663  0.1770
   75CHL1  H15A 7975   2.186   6.248   7.447 -0.7510  2.1131 -1.5526
   75CHL1  H15B 7976   2.340   6.157   7.483  2.4430  1.5257 -3.0870
   75CHL1   C16 7977   2.324   6.314   7.617 -0.6837 -0.7014  0.9592
   75CHL1  H16A 7978   2.231   6.332   7.674  0.4856  0.7547  2.4649
   75CHL1  H16B 7979   2.397   6.245   7.665 -0.2951 -0.5212  0.6389
   75CHL1   C17 7980   2.403   6.450   7.583  0.4561 -0.7237 -0.4394
   75CHL1   H17 7981   2.513   6.438   7.587  0.6156  0.8913  0.9486
   75CHL1   C13 7982   2.364   6.483   7.432  0.0001 -0.0525 -0.1775
   75CHL1   C18 7983   2.218   6.544   7.429 -0.2260 -0.0727  0.0218
   75CHL1  H18A 7984   2.224   6.653   7.451 -0.8045  0.1846 -1.0360
   75CHL1  H18B 7985   2.183   6.546   7.324  1.3331 -2.3945 -0.6281
   75CHL1  H18C 7986   2.151   6.489   7.498  0.0595 -1.9220 -1.1339
   75CHL1   C12 7987   2.472   6.552   7.343  0.0561 -0.4181  0.4721
   75CHL1  H12A 7988   2.490   6.657   7.373 -0.2875 -0.6069  1.3802
   75CHL1  H12B 7989   2.564   6.491   7.358  0.4122 -0.1707 -0.6020
   75CHL1   C11 7990   2.416   6.558   7.197 -0.6646  0.0594 -0.2772
   75CHL1  H11A 7991   2.319   6.611   7.199 -1.4313 -1.3105  1.0357
   75CHL1  H11B 7992   2.495   6.611   7.141  0.8438 -2.1869 -0.4303
   75CHL1    C9 7993   2.402   6.416   7.133  0.1484  0.3725  0.5864
   75CHL1    H9 7994   2.505   6.374   7.143 -0.1294 -0.5648 -0.3577
   75CHL1   C10 7995   2.356   6.416   6.979 -0.2331 -0.0259  0.3914
   75CHL1   C19 7996   2.238   6.518   6.954 -0.2442  0.5385  0.2849
   75CHL1  H19A 7997   2.145   6.506   7.013 -1.6813  2.9318 -1.2776
   75CHL1  H19B 7998   2.280   6.619   6.972  2.1113  0.1027 -2.0688
   75CHL1  H19C 7999   2.215   6.516   6.845  0.9298 -0.6490  0.0353
   75CHL1    C1 8000   2.483   6.435   6.888 -0.0550  0.0942 -0.0481
   75CHL1   H1A 8001   2.523   6.536   6.911 -1.5163  0.3910  1.3092
   75CHL1   H1B 8002   2.565   6.367   6.920  0.0972 -0.0468 -0.7235
   75CHL1    C2 8003   2.457   6.415   6.733  0.1744  0.3964 -0.5374
   75CHL1   H2A 8004   2.552   6.430   6.679 -0.2639 -0.7125 -1.6623
   75CHL1   H2B 8005   2.378   6.489   6.708 -0.2792  0.7368  1.7324
   75CHL1   C20 8006   2.382   6.560   7.693  0.2014  0.0673  0.1277
   75CHL1   H20 8007   2.275   6.587   7.679  0.1387  0.4554  1.2848
   75CHL1   C21 8008   2.463   6.682   7.658 -1.0600 -0.3515  0.6887
   75CHL1  H21A 8009   2.429   6.712   7.557  1.8983 -0.2521 -0.3650
   75CHL1  H21B 8010   2.572   6.668   7.673 -0.6258  1.2658 -0.6343
   75CHL1  H21C 8011   2.451   6.761   7.735  0.0888 -0.8306  1.3883
   75CHL1   C22 8012   2.415   6.509   7.834  0.7168  0.2969 -0.1786
   75CHL1  H22A 8013   2.370   6.408   7.846 -0.4579  0.7769 -0.3297
   75CHL1  H22B 8014   2.524   6.508   7.854  1.2397 -0.8996 -2.7028
   75CHL1   C23 8015   2.336   6.590   7.942  0.2118  0.5778 -0.9296
   75CHL1  H23A 8016   2.354   6.700   7.943  0.6599  0.5050 -0.1199
   75CHL1  H23B 8017   2.231   6.592   7.905 -0.2040  0.1765  0.2009
   75CHL1   C24 8018   2.355   6.544   8.085  0.3702  0.0076 -0.2200
   75CHL1  H24A 8019   2.375   6.435   8.085  0.1370 -0.0397 -0.6981
   75CHL1  H24B 8020   2.444   6.592   8.132 -0.8560  2.6024 -0.3773
   75CHL1   C25 8021   2.235   6.585   8.182  0.0251  0.2781  0.2009
   75CHL1   H25 8022   2.145   6.585   8.118 -0.0760 -0.1770  0.3441
   75CHL1   C26 8023   2.214   6.478   8.292  0.0571 -0.0180 -0.2499
   75CHL1  H26A 8024   2.122   6.496   8.350  0.4106 -1.0195  0.6645
   75CHL1  H26B 8025   2.199   6.374   8.257  1.6064 -0.8630  1.4109
   75CHL1  H26C 8026   2.301   6.473   8.361  1.8323 -0.1296 -2.3613
   75CHL1   C27 8027   2.254   6.727   8.236  0.6833  0.0272 -0.4009
   75CHL1  H27A 8028   2.182   6.727   8.321 -0.3795  1.6948 -1.2334
   75CHL1  H27B 8029   2.354   6.750   8.278 -0.2180 -0.3386  2.1817
   75CHL1  H27C 8030   2.225   6.801   8.158 -0.5316  0.5737  0.5261
   76CHL1    C3 8031   0.298   2.217   7.354  0.7879  0.2266  0.3552
   76CHL1    H3 8032   0.216   2.144   7.371 -0.0592  0.7073 -1.4605
   76CHL1    O3 8033   0.310   2.222   7.212  0.1929  0.3893  0.1253
   76CHL1   H3' 8034   0.234   2.268   7.176 -0.2859 -0.7753 -0.3866
   76CHL1    C4 8035   0.279   2.359   7.400 -1.0935 -0.3588  0.0164
   76CHL1   H4A 8036   0.367   2.414   7.362 -1.0062 -2.3835 -3.0895
   76CHL1   H4B 8037   0.184   2.402   7.362 -0.5862 -0.6337 -1.6208
   76CHL1    C5 8038   0.277   2.359   7.551 -0.0220  0.1043 -0.4825
   76CHL1    C6 8039   0.171   2.405   7.619  0.2673 -0.2096  0.0760
   76CHL1    H6 8040   0.085   2.438   7.560  0.0813 -2.2244 -0.8858
   76CHL1    C7 8041   0.163   2.421   7.770 -0.4884 -0.3446 -0.7618
   76CHL1   H7A 8042   0.112   2.515   7.802 -1.6733 -0.5356 -2.0078
   76CHL1   H7B 8043   0.090   2.345   7.805 -0.7735 -0.6303 -1.9180
   76CHL1    C8 8044   0.297   2.407   7.840  0.9240  0.4363 -0.9904
   76CHL1    H8 8045   0.356   2.499   7.821 -1.4794  2.3200  0.1053
   76CHL1   C14 8046   0.281   2.384   7.992 -0.3666  0.1525  0.5916
   76CHL1   H14 8047   0.221   2.290   7.993  0.5870 -0.4733  0.5062
   76CHL1   C15 8048   0.191   2.492   8.070  0.0392  0.2125 -0.5096
   76CHL1  H15A 8049   0.231   2.592   8.044  0.6362 -0.2930 -1.6125
   76CHL1  H15B 8050   0.086   2.466   8.048  1.0725 -3.8877 -1.3981
   76CHL1   C16 8051   0.232   2.459   8.217 -0.2608 -0.0490 -0.1009
   76CHL1  H16A 8052   0.252   2.550   8.279 -1.6538 -1.2651  2.2905
   76CHL1  H16B 8053   0.160   2.406   8.283  0.6109  1.1513  1.9200
   76CHL1   C17 8054   0.353   2.361   8.212  0.2534 -0.0484 -0.5046
   76CHL1   H17 8055   0.313   2.257   8.211  1.9234 -0.8288  2.6600
   76CHL1   C13 8056   0.411   2.369   8.073 -0.5510  0.3578  0.3835
   76CHL1   C18 8057   0.495   2.497   8.068 -0.6772  0.0955  0.2650
   76CHL1  H18A 8058   0.515   2.533   7.965 -1.3751 -1.9092 -0.6211
   76CHL1  H18B 8059   0.444   2.579   8.124 -0.2636  1.6931 -1.5792
   76CHL1  H18C 8060   0.588   2.473   8.125 -0.3018  0.5529 -0.1424
   76CHL1   C12 8061   0.482   2.248   8.006 -0.6475  0.6964  0.3771
   76CHL1  H12A 8062   0.580   2.232   8.055 -0.5933 -1.7379 -0.4284
   76CHL1  H12B 8063   0.426   2.156   8.032 -0.4136  0.3472 -0.3301
   76CHL1   C11 8064   0.505   2.263   7.855 -0.2155 -0.6549 -0.4077
   76CHL1  H11A 8065   0.581   2.345   7.858 -0.5194 -0.3839  2.0092
   76CHL1  H11B 8066   0.542   2.162   7.826 -1.8393 -1.1473 -0.8573
   76CHL1    C9 8067   0.373   2.287   7.775  0.1277 -0.0869  0.1345
   76CHL1    H9 8068   0.311   2.196   7.789 -0.8019  0.2401 -1.5734
   76CHL1   C10 8069   0.399   2.307   7.624 -0.1628 -0.2255  0.5954
   76CHL1   C19 8070   0.515   2.409   7.599 -0.2950  0.0382 -0.4834
   76CHL1  H19A 8071   0.606   2.357   7.638  0.0387  0.7468 -0.2990
   76CHL1  H19B 8072   0.534   2.429   7.492  0.7740  1.6528 -0.0279
   76CHL1  H19C 8073   0.493   2.502   7.655 -1.4174 -0.4824 -0.0275
   76CHL1    C1 8074   0.439   2.174   7.563  0.2662 -0.4488  0.8553
   76CHL1   H1A 8075   0.544   2.155   7.593  0.8957  0.1874 -0.8536
   76CHL1   H1B 8076   0.371   2.096   7.603  1.0128 -1.5487  0.0292
   76CHL1    C2 8077   0.429   2.164   7.407 -0.4553 -1.0406 -1.5453
   76CHL1   H2A 8078   0.436   2.056   7.382 -0.9117 -1.4991  0.1826
   76CHL1   H2B 8079   0.525   2.211   7.375  1.2307 -2.4915  1.0463
   76CHL1   C20 8080   0.446   2.382   8.339 -0.8255 -0.9590  0.0504
   76CHL1   H20 8081   0.481   2.487   8.340  1.9515 -1.7951  1.1491
   76CHL1   C21 8082   0.580   2.292   8.332  0.3395 -0.3628 -0.5002
   76CHL1  H21A 8083   0.645   2.314   8.245 -1.2988  2.9859 -1.0447
   76CHL1  H21B 8084   0.553   2.185   8.346  2.1466 -0.6943  0.8415
   76CHL1  H21C 8085   0.644   2.319   8.419 -1.1037 -1.2349  0.8922
   76CHL1   C22 8086   0.373   2.352   8.472  0.2041  0.5638 -0.1758
   76CHL1  H22A 8087   0.266   2.380   8.482  0.4397  1.4254  0.0586
   76CHL1  H22B 8088   0.368   2.242   8.484  0.7587  0.6223  0.7038
   76CHL1   C23 8089   0.454   2.400   8.591  0.0153  0.2492 -0.0611
   76CHL1  H23A 8090   0.550   2.347   8.606 -1.1515 -1.9101  0.1711
   76CHL1  H23B 8091   0.467   2.510   8.590 -1.5824  0.5039  1.3187
   76CHL1   C24 8092   0.365   2.389   8.719  0.3814  0.7042 -0.4805
   76CHL1  H24A 8093   0.274   2.453   8.717  0.4670  0.8883  0.7409
   76CHL1  H24B 8094   0.326   2.285   8.725  0.4617  0.7110  3.7754
   76CHL1   C25 8095   0.428   2.403   8.859 -0.8144  0.5549 -0.0462
   76CHL1   H25 8096   0.509   2.326   8.861  0.5959  1.9564 -0.6481
   76CHL1   C26 8097   0.503   2.540   8.886  0.2420 -0.0343 -0.2430
   76CHL1  H26A 8098   0.538   2.543   8.991 -1.4933 -2.1954  0.4876
   76CHL1  H26B 8099   0.576   2.569   8.808 -1.8102 -1.2968 -2.7849
   76CHL1  H26C 8100   0.426   2.621   8.891 -0.1153 -0.4165  0.5967
   76CHL1   C27 8101   0.324   2.378   8.969 -0.1086 -0.7907 -0.7492
   76CHL1  H27A 8102   0.252   2.298   8.942  1.1018 -2.8155  1.5883
   76CHL1  H27B 8103   0.374   2.358   9.067  0.8191  2.6464 -0.3841
   76CHL1  H27C 8104   0.261   2.467   8.986  0.6613 -0.4286  0.3719
   77CHL1    C3 8105   1.467   1.265   6.946  0.1912  0.3125 -0.4068
   77CHL1    H3 8106   1.374   1.312   6.985  0.9886 -0.3236  2.5194
   77CHL1    O3 8107   1.484   1.316   6.812 -0.0876 -0.0865 -0.0184
   77CHL1   H3' 8108   1.558   1.268   6.773  0.7597  2.8115 -2.4160
   77CHL1    C4 8109   1.585   1.303   7.037 -0.0454  0.2528  0.6264
   77CHL1   H4A 8110   1.676   1.251   7.001 -1.0697 -0.0796 -1.6948
   77CHL1   H4B 8111   1.605   1.412   7.023 -1.3432  0.5286  0.8398
   77CHL1    C5 8112   1.555   1.262   7.180  0.3634 -0.3571  0.5792
   77CHL1    C6 8113   1.547   1.350   7.284  0.8647  0.2056 -0.0624
   77CHL1    H6 8114   1.563   1.456   7.259 -0.9889  0.0339 -2.3402
   77CHL1    C7 8115   1.538   1.315   7.430  0.1755 -0.2060  0.8449
   77CHL1   H7A 8116   1.617   1.364   7.491  0.2848  0.4281  0.2022
   77CHL1   H7B 8117   1.432   1.347   7.444  0.3650  0.3994  0.9387
   77CHL1    C8 8118   1.545   1.158   7.447 -0.4164  0.0615  0.2662
   77CHL1    H8 8119   1.653   1.136   7.433 -0.2623  0.0148  1.3898
   77CHL1   C14 8120   1.491   1.124   7.588 -0.2712 -0.1078  0.1104
   77CHL1   H14 8121   1.386   1.158   7.585 -0.8149 -1.7343 -2.6315
   77CHL1   C15 8122   1.563   1.190   7.705 -0.5080  0.5146  0.2424
   77CHL1  H15A 8123   1.673   1.178   7.699 -0.7110 -1.2477 -0.7648
   77CHL1  H15B 8124   1.528   1.293   7.728 -3.0429 -0.7706  2.8891
   77CHL1   C16 8125   1.524   1.099   7.823 -0.3894  0.0249 -0.4873
   77CHL1  H16A 8126   1.616   1.059   7.869 -1.8766 -0.7948  1.9532
   77CHL1  H16B 8127   1.458   1.146   7.899  0.4133 -0.7202  0.7069
   77CHL1   C17 8128   1.442   0.984   7.767  0.4260 -1.0166 -0.2460
   77CHL1   H17 8129   1.338   1.021   7.751 -0.3438 -3.0712 -0.2899
   77CHL1   C13 8130   1.496   0.971   7.618  0.9685 -0.7090 -0.7778
   77CHL1   C18 8131   1.637   0.918   7.613  0.1607  0.1680 -0.0542
   77CHL1  H18A 8132   1.680   0.926   7.511  0.5680  0.2512  0.1213
   77CHL1  H18B 8133   1.696   0.978   7.685 -1.2098  0.2886  1.0148
   77CHL1  H18C 8134   1.649   0.814   7.651 -0.3962  0.8914  2.2721
   77CHL1   C12 8135   1.402   0.903   7.513 -0.3361 -0.2423 -0.4287
   77CHL1  H12A 8136   1.403   0.796   7.542  1.0327  0.7301  3.7956
   77CHL1  H12B 8137   1.301   0.949   7.519 -0.2186  0.0658 -0.7909
   77CHL1   C11 8138   1.453   0.922   7.369 -0.4468 -0.7289  0.4625
   77CHL1  H11A 8139   1.552   0.873   7.370 -0.3001 -0.4522 -0.1933
   77CHL1  H11B 8140   1.398   0.873   7.286  1.8553 -0.8612 -1.0582
   77CHL1    C9 8141   1.469   1.075   7.337  0.0333  0.0877  0.4089
   77CHL1    H9 8142   1.371   1.127   7.343  1.0482  2.2448 -0.3468
   77CHL1   C10 8143   1.525   1.106   7.199  0.4174  0.9328 -0.7551
   77CHL1   C19 8144   1.652   1.018   7.165 -0.3031  0.6593  0.1775
   77CHL1  H19A 8145   1.637   0.912   7.138  0.3289  0.9904 -1.5807
   77CHL1  H19B 8146   1.698   1.069   7.078  0.2547 -0.3973 -0.1571
   77CHL1  H19C 8147   1.733   1.024   7.241 -1.3073 -1.7650  1.5460
   77CHL1    C1 8148   1.418   1.064   7.095  0.3260 -0.1263  0.0035
   77CHL1   H1A 8149   1.402   0.954   7.088 -2.3293  0.2247 -0.6020
   77CHL1   H1B 8150   1.320   1.098   7.134 -0.0105 -0.5119 -0.4935
   77CHL1    C2 8151   1.444   1.114   6.949  0.1609 -0.6030  0.0811
   77CHL1   H2A 8152   1.353   1.095   6.888  0.3986  1.3041 -0.9299
   77CHL1   H2B 8153   1.526   1.060   6.897 -0.5960 -2.3730  0.6461
   77CHL1   C20 8154   1.439   0.858   7.857 -0.7348  0.0289  0.6655
   77CHL1   H20 8155   1.520   0.796   7.812 -0.4012  2.2765 -2.1453
   77CHL1   C21 8156   1.318   0.785   7.814 -0.5281  0.0706  0.2012
   77CHL1  H21A 8157   1.231   0.846   7.846  0.1572  0.3089  1.6561
   77CHL1  H21B 8158   1.314   0.681   7.851 -2.9044 -0.2861 -0.8647
   77CHL1  H21C 8159   1.319   0.770   7.704 -0.8842  1.6907 -0.0522
   77CHL1   C22 8160   1.443   0.875   8.011 -0.1139  0.6269  0.3552
   77CHL1  H22A 8161   1.533   0.930   8.043  0.9714 -0.5242 -0.6216
   77CHL1  H22B 8162   1.354   0.937   8.034 -2.0711 -1.1582 -1.8358
   77CHL1   C23 8163   1.422   0.738   8.084 -0.6134 -0.5988 -0.1440
   77CHL1  H23A 8164   1.328   0.681   8.067  0.2173 -2.2609  0.5566
   77CHL1  H23B 8165   1.504   0.669   8.052 -0.8641 -0.2642 -1.5842
   77CHL1   C24 8166   1.433   0.757   8.233 -0.4806  0.6229  0.2327
   77CHL1  H24A 8167   1.538   0.791   8.241 -0.4234  0.4471  0.2371
   77CHL1  H24B 8168   1.364   0.837   8.268  0.0241  0.6770  1.1245
   77CHL1   C25 8169   1.410   0.629   8.314 -0.5372 -0.3707  0.8176
   77CHL1   H25 8170   1.441   0.541   8.253 -0.6740 -0.2113  0.5150
   77CHL1   C26 8171   1.494   0.633   8.446  0.5988 -0.3875  0.4553
   77CHL1  H26A 8172   1.603   0.649   8.440  0.7201 -0.5409  1.9283
   77CHL1  H26B 8173   1.444   0.703   8.516 -0.3768 -1.1464  0.5514
   77CHL1  H26C 8174   1.481   0.532   8.493  0.6448  0.3035  2.0214
   77CHL1   C27 8175   1.261   0.595   8.343 -0.1672 -0.3732 -0.2569
   77CHL1  H27A 8176   1.191   0.617   8.260 -1.2557 -0.8364  0.5069
   77CHL1  H27B 8177   1.255   0.487   8.369  0.7979 -0.7037 -1.3104
   77CHL1  H27C 8178   1.226   0.646   8.436 -1.3779  1.2920 -1.5720
   78CHL1    C3 8179   2.013   2.399   6.583  0.1302  0.4206  0.2787
   78CHL1    H3 8180   2.122   2.400   6.605  0.7539  0.9265 -2.4184
   78CHL1    O3 8181   2.007   2.453   6.449  0.1037 -0.1651 -0.6724
   78CHL1   H3' 8182   1.921   2.435   6.412  0.1827 -1.0789 -0.4331
   78CHL1    C4 8183   1.954   2.259   6.582  0.3292 -0.0027 -0.2199
   78CHL1   H4A 8184   1.856   2.250   6.531  1.2158 -0.8700 -1.8511
   78CHL1   H4B 8185   2.017   2.205   6.509  1.1016  1.6486 -0.8094
   78CHL1    C5 8186   1.966   2.202   6.729 -0.2515 -0.0883  0.2450
   78CHL1    C6 8187   2.042   2.091   6.749 -0.7346  0.4317 -0.2646
   78CHL1    H6 8188   2.078   2.035   6.661 -0.8353 -0.8571  0.4850
   78CHL1    C7 8189   2.073   2.038   6.893 -0.1670  0.1116  0.4542
   78CHL1   H7A 8190   2.057   1.928   6.890 -0.0311 -0.0059  2.5886
   78CHL1   H7B 8191   2.179   2.058   6.919 -0.3770  0.7615  0.8388
   78CHL1    C8 8192   1.986   2.103   7.002 -0.2738 -0.2447 -0.0877
   78CHL1    H8 8193   1.882   2.062   7.003 -0.9541  1.3912  0.8947
   78CHL1   C14 8194   2.052   2.071   7.136  0.0177  0.1275 -0.0158
   78CHL1   H14 8195   2.146   2.129   7.131  0.3305 -0.2774  1.0195
   78CHL1   C15 8196   2.087   1.929   7.168  0.2775 -0.9295 -0.2685
   78CHL1  H15A 8197   1.991   1.878   7.146 -0.7151 -0.5358  2.6757
   78CHL1  H15B 8198   2.175   1.883   7.119  0.9072 -1.1695  1.0231
   78CHL1   C16 8199   2.105   1.930   7.322  0.3172 -0.8140  0.2301
   78CHL1  H16A 8200   2.031   1.858   7.363 -0.1688 -1.4928 -1.7336
   78CHL1  H16B 8201   2.202   1.891   7.362  0.5960 -0.2984  0.0588
   78CHL1   C17 8202   2.077   2.077   7.379  0.2298 -0.3474  0.4186
   78CHL1   H17 8203   2.175   2.128   7.365 -0.3480  0.2002 -2.3236
   78CHL1   C13 8204   1.988   2.130   7.264 -0.7537  0.0414  0.0161
   78CHL1   C18 8205   1.842   2.083   7.295  0.3557 -0.3160  1.0091
   78CHL1  H18A 8206   1.829   1.975   7.317  1.2973 -1.1238 -1.9635
   78CHL1  H18B 8207   1.803   2.147   7.377  1.7309  0.1835  1.3038
   78CHL1  H18C 8208   1.768   2.098   7.213 -0.3678  1.2483  1.9104
   78CHL1   C12 8209   1.979   2.279   7.239 -0.6230 -0.5076  0.0584
   78CHL1  H12A 8210   1.932   2.321   7.330  1.6525 -0.7331  1.4096
   78CHL1  H12B 8211   2.085   2.308   7.255 -1.3843  1.6104  1.7332
   78CHL1   C11 8212   1.920   2.323   7.104 -0.6011 -0.4119  0.1986
   78CHL1  H11A 8213   1.811   2.303   7.096 -0.6893  0.1725 -0.0714
   78CHL1  H11B 8214   1.945   2.431   7.106  0.0293 -0.5125 -1.1819
   78CHL1    C9 8215   1.980   2.246   6.981 -0.0133  0.1565  0.3191
   78CHL1    H9 8216   2.088   2.269   6.970  0.4323 -1.9401 -0.0612
   78CHL1   C10 8217   1.914   2.287   6.844 -0.0537 -0.0471 -0.4801
   78CHL1   C19 8218   1.766   2.266   6.843 -0.0039  0.2082  0.0891
   78CHL1  H19A 8219   1.729   2.291   6.742 -0.1606 -2.9635 -0.7185
   78CHL1  H19B 8220   1.742   2.160   6.866  2.0642 -0.0011  1.6986
   78CHL1  H19C 8221   1.719   2.336   6.917 -0.2368 -0.1312  0.2638
   78CHL1    C1 8222   1.939   2.441   6.818  0.2330 -1.0015 -0.6541
   78CHL1   H1A 8223   1.870   2.506   6.876  0.4250  0.7278 -2.2870
   78CHL1   H1B 8224   2.035   2.464   6.868 -0.7258  0.9723  0.3901
   78CHL1    C2 8225   1.929   2.494   6.674  0.0785  0.2022 -0.4428
   78CHL1   H2A 8226   1.959   2.601   6.671  1.6613 -0.2197 -0.6286
   78CHL1   H2B 8227   1.822   2.496   6.643  0.2250 -0.5592 -1.0206
   78CHL1   C20 8228   2.037   2.080   7.523  0.1456  0.2537 -0.8595
   78CHL1   H20 8229   1.950   2.013   7.539  1.1426 -0.9838 -0.4769
   78CHL1   C21 8230   1.995   2.221   7.580 -0.0043  0.3234  0.0484
   78CHL1  H21A 8231   1.905   2.259   7.527  0.2669  0.6451 -0.1781
   78CHL1  H21B 8232   2.073   2.297   7.561  0.0160  0.3944  0.4101
   78CHL1  H21C 8233   1.958   2.226   7.685 -2.1113 -2.1150 -0.4555
   78CHL1   C22 8234   2.152   2.018   7.606  0.1236 -0.7210  0.4177
   78CHL1  H22A 8235   2.179   1.915   7.575  0.8131 -1.1602  2.3194
   78CHL1  H22B 8236   2.241   2.079   7.578 -0.4542 -1.0416 -2.3235
   78CHL1   C23 8237   2.137   2.027   7.758 -0.3566 -0.0847 -0.0420
   78CHL1  H23A 8238   2.120   2.133   7.785 -2.5261 -0.6460  1.0369
   78CHL1  H23B 8239   2.046   1.963   7.763  0.3524 -1.4394 -2.5603
   78CHL1   C24 8240   2.256   1.965   7.827 -0.1574  0.4202 -0.0400
   78CHL1  H24A 8241   2.267   1.862   7.785 -0.1507  0.9130 -1.2789
   78CHL1  H24B 8242   2.353   2.016   7.808 -0.3932  0.8617 -0.0471
   78CHL1   C25 8243   2.251   1.959   7.975 -0.4551 -0.0162  0.1240
   78CHL1   H25 8244   2.151   1.920   8.004  1.0762 -3.2813  1.4293
   78CHL1   C26 8245   2.348   1.862   8.042 -0.6596  0.1346 -0.0382
   78CHL1  H26A 8246   2.451   1.902   8.040 -0.4923 -0.2234  0.7772
   78CHL1  H26B 8247   2.311   1.870   8.147  0.7266 -1.2855  0.6074
   78CHL1  H26C 8248   2.340   1.754   8.017 -0.9186 -0.2520  1.5877
   78CHL1   C27 8249   2.258   2.103   8.039 -0.3421 -0.2770  0.2562
   78CHL1  H27A 8250   2.158   2.151   8.024 -1.1958 -1.9820  0.2785
   78CHL1  H27B 8251   2.281   2.105   8.147  1.9213 -2.1865 -0.1291
   78CHL1  H27C 8252   2.328   2.162   7.976 -4.8463  2.5966 -2.6496
   79CHL1    C3 8253   6.709   2.819   7.015  0.0803  0.2994  0.3014
   79CHL1    H3 8254   6.772   2.910   7.013  0.8616 -0.0705  3.0875
   79CHL1    O3 8255   6.694   2.774   6.878  0.4663  0.1764  0.3178
   79CHL1   H3' 8256   6.782   2.775   6.841  0.8034 -1.3186  1.0109
   79CHL1    C4 8257   6.778   2.714   7.101 -0.5231  0.0039  0.4511
   79CHL1   H4A 8258   6.704   2.632   7.109 -0.6441  0.2061  1.5676
   79CHL1   H4B 8259   6.861   2.662   7.049 -1.0019 -0.7935  0.4678
   79CHL1    C5 8260   6.808   2.762   7.242 -0.1169  0.0878  0.1952
   79CHL1    C6 8261   6.924   2.753   7.303  0.7186  0.0690  0.2709
   79CHL1    H6 8262   7.009   2.718   7.242  1.0653  0.7256  0.3687
   79CHL1    C7 8263   6.951   2.800   7.447  0.4942  0.4540  0.3984
   79CHL1   H7A 8264   7.006   2.718   7.499 -1.2409 -2.6684 -2.2476
   79CHL1   H7B 8265   7.007   2.896   7.442 -0.5536  1.2101  2.2559
   79CHL1    C8 8266   6.821   2.830   7.529  0.5290 -0.0187 -0.0917
   79CHL1    H8 8267   6.774   2.732   7.552 -3.0087  1.5663  0.0605
   79CHL1   C14 8268   6.852   2.904   7.661 -0.5757  0.7809 -0.2323
   79CHL1   H14 8269   6.891   3.004   7.631 -0.8314  0.6728 -0.9228
   79CHL1   C15 8270   6.967   2.850   7.748 -0.2943 -0.0798  0.6954
   79CHL1  H15A 8271   6.965   2.740   7.741 -1.2559  0.0350 -3.0730
   79CHL1  H15B 8272   7.071   2.873   7.717 -0.2185 -1.7763 -0.4396
   79CHL1   C16 8273   6.929   2.913   7.884  0.4045 -0.2143 -0.6278
   79CHL1  H16A 8274   6.929   2.826   7.953  0.4216 -0.0467 -0.4131
   79CHL1  H16B 8275   7.020   2.964   7.925  0.2504 -1.4307  1.3827
   79CHL1   C17 8276   6.793   2.987   7.874 -0.0132  0.0932  0.0506
   79CHL1   H17 8277   6.823   3.092   7.852  2.7335 -0.7263 -0.5123
   79CHL1   C13 8278   6.727   2.923   7.748 -0.9007  0.1540  0.1795
   79CHL1   C18 8279   6.675   2.781   7.795  0.3354 -0.0226  0.0608
   79CHL1  H18A 8280   6.649   2.726   7.702  0.4300 -0.8127  0.4936
   79CHL1  H18B 8281   6.749   2.723   7.853 -0.2935  0.5419  1.4616
   79CHL1  H18C 8282   6.578   2.795   7.847 -0.9732  0.7384 -2.4215
   79CHL1   C12 8283   6.633   3.013   7.659  0.5672  0.4183 -0.2439
   79CHL1  H12A 8284   6.542   3.046   7.716  0.1028  0.1611 -0.8284
   79CHL1  H12B 8285   6.684   3.105   7.625  2.4082  0.3575  2.1133
   79CHL1   C11 8286   6.590   2.933   7.533  0.0398 -0.5082 -0.4107
   79CHL1  H11A 8287   6.548   2.840   7.576  1.6044 -0.7380  0.7111
   79CHL1  H11B 8288   6.505   2.985   7.482  0.7082  0.8981 -0.1559
   79CHL1    C9 8289   6.713   2.902   7.447 -0.3856 -0.0527  0.0373
   79CHL1    H9 8290   6.763   2.999   7.424  1.6824 -1.1946 -0.5916
   79CHL1   C10 8291   6.681   2.828   7.316  0.2243 -0.0183  0.3610
   79CHL1   C19 8292   6.587   2.710   7.350 -0.2267 -0.1400 -0.0140
   79CHL1  H19A 8293   6.488   2.751   7.381 -0.9239 -1.2131 -0.7518
   79CHL1  H19B 8294   6.568   2.635   7.271  1.0333 -1.0865  0.5369
   79CHL1  H19C 8295   6.629   2.649   7.433  2.4791  2.0808  0.4028
   79CHL1    C1 8296   6.612   2.929   7.210  0.0008  0.6290 -0.4690
   79CHL1   H1A 8297   6.517   2.970   7.251  0.0495  0.8561 -0.5796
   79CHL1   H1B 8298   6.684   3.009   7.182  0.1490 -0.4934 -3.7461
   79CHL1    C2 8299   6.572   2.862   7.074 -0.2395  0.3502 -0.2653
   79CHL1   H2A 8300   6.529   2.944   7.013 -0.1276  0.9623  0.4620
   79CHL1   H2B 8301   6.518   2.766   7.087  1.5144 -0.8389 -1.2847
   79CHL1   C20 8302   6.725   2.981   8.014  0.5032  0.2562  0.7005
   79CHL1   H20 8303   6.721   2.875   8.048 -0.3133 -0.2482 -0.8984
   79CHL1   C21 8304   6.576   3.030   7.999  0.5324 -0.0496  0.1168
   79CHL1  H21A 8305   6.533   3.043   8.101  0.5441  1.8418 -0.0791
   79CHL1  H21B 8306   6.510   2.956   7.947  1.8095 -1.1388  0.0014
   79CHL1  H21C 8307   6.583   3.129   7.949  1.9409 -1.0937 -1.8977
   79CHL1   C22 8308   6.799   3.074   8.106 -0.4905  0.1494  0.0139
   79CHL1  H22A 8309   6.905   3.042   8.118 -0.8545 -0.4423  2.0436
   79CHL1  H22B 8310   6.787   3.179   8.072  0.4312  0.3581  0.2887
   79CHL1   C23 8311   6.752   3.076   8.256  0.2077 -0.5972 -0.2240
   79CHL1  H23A 8312   6.653   3.125   8.267 -0.3063 -1.4934 -0.6791
   79CHL1  H23B 8313   6.743   2.968   8.283  3.3587 -1.4117 -1.9458
   79CHL1   C24 8314   6.854   3.141   8.351  0.6648 -0.9030  0.3724
   79CHL1  H24A 8315   6.955   3.099   8.333  0.9733  0.2156 -0.6002
   79CHL1  H24B 8316   6.858   3.246   8.316  0.4426 -0.9914  0.0704
   79CHL1   C25 8317   6.829   3.124   8.505 -0.2738  0.1995  0.3319
   79CHL1   H25 8318   6.818   3.015   8.521 -0.6194  0.1062 -0.5113
   79CHL1   C26 8319   6.943   3.163   8.588  0.2668  0.6590 -0.6116
   79CHL1  H26A 8320   6.944   3.106   8.683 -0.6454  1.7269  0.0638
   79CHL1  H26B 8321   7.042   3.144   8.541 -0.4033 -0.4797 -1.6205
   79CHL1  H26C 8322   6.936   3.267   8.626  1.1307  0.7592 -0.6891
   79CHL1   C27 8323   6.703   3.197   8.565 -0.2846  0.5014  0.7819
   79CHL1  H27A 8324   6.614   3.177   8.502 -0.6706  0.9491  1.1738
   79CHL1  H27B 8325   6.685   3.166   8.670 -2.2336 -1.2393  0.0115
   79CHL1  H27C 8326   6.710   3.308   8.572  0.7919  0.3697  2.1678
   80CHL1    C3 8327   5.540   0.549   7.068 -0.4864  0.1056  0.3770
   80CHL1    H3 8328   5.430   0.541   7.071 -0.3835 -1.1411  2.6741
   80CHL1    O3 8329   5.602   0.514   6.943 -0.3996 -0.2405  0.1356
   80CHL1   H3' 8330   5.692   0.547   6.948 -1.0931  2.5986 -2.6819
   80CHL1    C4 8331   5.588   0.690   7.087 -0.4194  0.4514  0.4363
   80CHL1   H4A 8332   5.697   0.701   7.070 -0.6122  3.1200  0.6095
   80CHL1   H4B 8333   5.549   0.752   7.004 -0.3368 -0.7563 -0.5219
   80CHL1    C5 8334   5.544   0.733   7.225 -0.2419  0.0104 -0.2117
   80CHL1    C6 8335   5.461   0.837   7.245 -0.6085  0.0025 -0.2409
   80CHL1    H6 8336   5.420   0.896   7.162 -4.3526  0.4130  1.7042
   80CHL1    C7 8337   5.431   0.901   7.376 -0.0764 -0.5851 -0.2079
   80CHL1   H7A 8338   5.435   1.011   7.367  1.6409 -0.7159 -1.6736
   80CHL1   H7B 8339   5.329   0.874   7.408  0.2644 -2.3626 -0.5016
   80CHL1    C8 8340   5.522   0.849   7.487 -0.0101 -0.6677 -0.8622
   80CHL1    H8 8341   5.622   0.895   7.474 -0.3729  0.0340 -1.2100
   80CHL1   C14 8342   5.465   0.895   7.617 -0.2633 -0.5765 -0.2865
   80CHL1   H14 8343   5.364   0.851   7.635 -1.9044  3.3142  1.2110
   80CHL1   C15 8344   5.442   1.045   7.644  1.1718  0.5317  0.7555
   80CHL1  H15A 8345   5.535   1.103   7.626  1.6371 -0.5802 -0.5905
   80CHL1  H15B 8346   5.353   1.071   7.583  0.4868  0.1829  1.5794
   80CHL1   C16 8347   5.410   1.052   7.796  0.9259 -0.4072  0.0652
   80CHL1  H16A 8348   5.462   1.142   7.836  0.5331  0.4646 -1.3221
   80CHL1  H16B 8349   5.302   1.073   7.807  1.4168  2.6556 -0.0065
   80CHL1   C17 8350   5.452   0.909   7.852 -0.0750  0.1241 -0.0807
   80CHL1   H17 8351   5.361   0.845   7.850  1.3588 -2.1569  1.9774
   80CHL1   C13 8352   5.538   0.838   7.748 -0.0325  0.1147  0.5929
   80CHL1   C18 8353   5.685   0.884   7.756  0.1814  0.0526 -0.4305
   80CHL1  H18A 8354   5.740   0.853   7.847  0.7486 -2.7076 -1.6107
   80CHL1  H18B 8355   5.743   0.861   7.664  1.5805 -0.1050  0.4679
   80CHL1  H18C 8356   5.683   0.995   7.755  2.0275  0.2177 -3.9720
   80CHL1   C12 8357   5.538   0.691   7.743  0.1360  0.1636 -0.0050
   80CHL1  H12A 8358   5.595   0.652   7.830 -0.8404  1.3912  1.2348
   80CHL1  H12B 8359   5.434   0.652   7.744  0.5036 -1.0233 -2.1258
   80CHL1   C11 8360   5.606   0.644   7.615 -0.3737  0.0133  0.1285
   80CHL1  H11A 8361   5.715   0.659   7.601 -0.5325  0.3711 -0.7711
   80CHL1  H11B 8362   5.587   0.535   7.607 -0.9827  0.1446 -0.2780
   80CHL1    C9 8363   5.543   0.700   7.481  0.2425 -0.1972  0.2256
   80CHL1    H9 8364   5.437   0.667   7.481  0.1716 -0.1816 -2.2186
   80CHL1   C10 8365   5.596   0.646   7.344 -0.3031  0.2788  0.2171
   80CHL1   C19 8366   5.750   0.647   7.350 -0.5568 -0.1298  0.5842
   80CHL1  H19A 8367   5.795   0.643   7.248 -0.9017 -1.1844  0.4660
   80CHL1  H19B 8368   5.797   0.737   7.396  0.3208 -0.5876  0.6094
   80CHL1  H19C 8369   5.786   0.567   7.419  3.0311  2.8149  2.5346
   80CHL1    C1 8370   5.545   0.503   7.313  0.5672  0.3225  0.1304
   80CHL1   H1A 8371   5.574   0.439   7.399  0.5392  0.7361  0.4541
   80CHL1   H1B 8372   5.435   0.514   7.327  0.4096  0.6756 -1.2890
   80CHL1    C2 8373   5.589   0.457   7.176 -0.3267  0.6166 -0.2170
   80CHL1   H2A 8374   5.546   0.355   7.165 -0.5363  0.7019 -0.1996
   80CHL1   H2B 8375   5.699   0.449   7.188 -0.4079  0.0667  0.1689
   80CHL1   C20 8376   5.517   0.910   8.000  0.5621  0.1171 -0.5544
   80CHL1   H20 8377   5.577   0.816   7.997 -1.8192 -1.5361  0.1153
   80CHL1   C21 8378   5.392   0.897   8.095  0.3767  0.4408  0.8601
   80CHL1  H21A 8379   5.411   0.888   8.204 -0.9825  1.9090  1.2482
   80CHL1  H21B 8380   5.330   0.811   8.061 -0.1859  1.6185 -1.2905
   80CHL1  H21C 8381   5.325   0.985   8.093 -0.2266 -0.0096 -0.0913
   80CHL1   C22 8382   5.601   1.031   8.041 -0.1360 -0.7554 -0.4761
   80CHL1  H22A 8383   5.637   1.082   7.949 -2.9110  0.9948 -0.7206
   80CHL1  H22B 8384   5.531   1.103   8.088  0.3412  0.1075 -1.0521
   80CHL1   C23 8385   5.717   0.983   8.127 -0.6844 -0.0390 -0.7405
   80CHL1  H23A 8386   5.769   0.900   8.075 -1.4362 -1.2597  0.4202
   80CHL1  H23B 8387   5.789   1.066   8.141 -1.1236  0.0575  1.1132
   80CHL1   C24 8388   5.684   0.929   8.268  0.0233  0.4919 -0.0225
   80CHL1  H24A 8389   5.633   0.999   8.337  2.0492  0.3798  1.7055
   80CHL1  H24B 8390   5.608   0.848   8.267  0.3655  0.1504  0.5020
   80CHL1   C25 8391   5.810   0.895   8.352  0.0775  0.5101 -0.1394
   80CHL1   H25 8392   5.880   0.849   8.279  0.3182 -1.0644  1.0168
   80CHL1   C26 8393   5.887   1.017   8.409  0.0915  0.0232  0.1119
   80CHL1  H26A 8394   5.890   1.095   8.331 -1.3303  2.5262  2.3639
   80CHL1  H26B 8395   5.834   1.052   8.501 -2.0869  1.3508 -1.5690
   80CHL1  H26C 8396   5.985   0.973   8.439  0.1736 -0.5459 -0.9656
   80CHL1   C27 8397   5.769   0.805   8.475 -0.9069 -0.6280  0.1397
   80CHL1  H27A 8398   5.857   0.790   8.541  2.2885 -1.3505 -3.8821
   80CHL1  H27B 8399   5.690   0.846   8.541 -0.8082 -3.7233  2.4005
   80CHL1  H27C 8400   5.740   0.706   8.434  0.9335 -0.8900 -0.6071
   81CHL1    C3 8401   5.179   5.473   6.833 -0.3413  0.0487 -0.0675
   81CHL1    H3 8402   5.176   5.367   6.801 -0.1895 -0.8149  2.5191
   81CHL1    O3 8403   5.194   5.565   6.726  0.2031 -0.5313 -0.1104
   81CHL1   H3' 8404   5.289   5.581   6.719  0.1562 -0.6354 -1.3183
   81CHL1    C4 8405   5.044   5.496   6.911 -0.1023 -0.9178 -0.5547
   81CHL1   H4A 8406   5.047   5.605   6.929  2.9699 -0.8589 -0.7964
   81CHL1   H4B 8407   4.960   5.476   6.841 -0.7201 -3.5684  0.8107
   81CHL1    C5 8408   5.027   5.434   7.045  0.1028  0.8053 -0.2808
   81CHL1    C6 8409   4.923   5.358   7.074 -0.4806 -0.0588 -0.2626
   81CHL1    H6 8410   4.838   5.351   7.005  0.6096  2.8056 -2.0389
   81CHL1    C7 8411   4.908   5.288   7.210 -0.2838 -0.2802  0.1275
   81CHL1   H7A 8412   4.804   5.298   7.248  0.3583  0.7165  1.7477
   81CHL1   H7B 8413   4.931   5.180   7.201 -0.6705 -0.1931 -4.1622
   81CHL1    C8 8414   4.994   5.357   7.313 -0.1622 -0.2522  0.2731
   81CHL1    H8 8415   4.952   5.460   7.309 -0.0593 -0.2518 -2.4715
   81CHL1   C14 8416   4.975   5.304   7.450  0.0753 -0.2065  0.2775
   81CHL1   H14 8417   5.010   5.200   7.433  1.2062  0.3267 -0.8771
   81CHL1   C15 8418   4.829   5.292   7.497 -0.2034  0.4506 -0.3002
   81CHL1  H15A 8419   4.772   5.386   7.482 -4.9595 -1.9169  1.0971
   81CHL1  H15B 8420   4.778   5.204   7.453  1.5637 -0.1395 -1.2887
   81CHL1   C16 8421   4.851   5.268   7.652  0.2934  0.9086  0.4894
   81CHL1  H16A 8422   4.784   5.341   7.700  0.1338  1.4564 -0.5337
   81CHL1  H16B 8423   4.832   5.161   7.677 -0.2894  0.5904 -1.1410
   81CHL1   C17 8424   5.003   5.282   7.685  0.6244  0.0938  0.2112
   81CHL1   H17 8425   5.037   5.177   7.678  1.5423  0.3380  0.8081
   81CHL1   C13 8426   5.063   5.364   7.566 -0.8571  0.4655 -0.0083
   81CHL1   C18 8427   5.041   5.515   7.595 -0.1153 -0.1260 -0.1685
   81CHL1  H18A 8428   5.108   5.550   7.676 -1.3532  0.1456  0.7737
   81CHL1  H18B 8429   5.056   5.578   7.504 -2.0087  1.3627  0.4731
   81CHL1  H18C 8430   4.938   5.536   7.632  0.2576  0.5248  0.5295
   81CHL1   C12 8431   5.210   5.334   7.525 -0.0328  0.6539 -0.3086
   81CHL1  H12A 8432   5.280   5.362   7.606 -0.4788  2.1293 -0.3867
   81CHL1  H12B 8433   5.217   5.226   7.502  0.3809  0.5751  0.1849
   81CHL1   C11 8434   5.248   5.397   7.389  0.4304  0.5513  0.1439
   81CHL1  H11A 8435   5.248   5.505   7.416 -2.8144  0.6088  0.3523
   81CHL1  H11B 8436   5.353   5.386   7.355  0.2453  1.6767 -0.8730
   81CHL1    C9 8437   5.144   5.367   7.272  0.1507 -0.5692 -0.6339
   81CHL1    H9 8438   5.163   5.262   7.241  1.4326 -0.3187 -0.7369
   81CHL1   C10 8439   5.150   5.450   7.139  0.4184 -0.4544  0.2244
   81CHL1   C19 8440   5.154   5.599   7.177 -0.1758 -0.4725 -0.0482
   81CHL1  H19A 8441   5.066   5.617   7.243  1.5843 -1.0887  2.6038
   81CHL1  H19B 8442   5.242   5.637   7.233  0.0842  1.4335 -1.6288
   81CHL1  H19C 8443   5.147   5.661   7.084 -0.1476  0.9344  0.8489
   81CHL1    C1 8444   5.281   5.416   7.058 -0.1341  0.1924 -0.0837
   81CHL1   H1A 8445   5.374   5.444   7.110  0.3551  0.0041 -0.8435
   81CHL1   H1B 8446   5.280   5.310   7.022 -0.6274  0.2870 -0.3708
   81CHL1    C2 8447   5.299   5.498   6.925 -0.0809 -0.0258 -0.8386
   81CHL1   H2A 8448   5.395   5.475   6.875  0.7073 -2.2165  1.4810
   81CHL1   H2B 8449   5.322   5.605   6.946  0.5227 -0.6965  2.4044
   81CHL1   C20 8450   5.028   5.333   7.824 -0.0068  0.6186 -1.1582
   81CHL1   H20 8451   4.995   5.439   7.836  0.3477  0.6033  0.1775
   81CHL1   C21 8452   5.178   5.327   7.855 -0.1681  0.0756 -0.0391
   81CHL1  H21A 8453   5.224   5.233   7.818 -1.6399 -0.7030  0.0342
   81CHL1  H21B 8454   5.206   5.333   7.962 -0.6600  1.0255  0.0503
   81CHL1  H21C 8455   5.238   5.405   7.804  1.5776 -0.2667  1.3867
   81CHL1   C22 8456   4.949   5.251   7.929  0.0804 -0.0107 -0.1244
   81CHL1  H22A 8457   4.839   5.262   7.917 -0.1618 -0.9817  1.0497
   81CHL1  H22B 8458   4.968   5.142   7.918 -3.0032 -0.4053 -3.4569
   81CHL1   C23 8459   4.977   5.304   8.075 -0.4905  0.0892 -0.0592
   81CHL1  H23A 8460   5.080   5.280   8.109 -0.9459  0.3593  1.6415
   81CHL1  H23B 8461   4.969   5.415   8.071 -1.8000 -0.0348 -2.9840
   81CHL1   C24 8462   4.867   5.256   8.167  0.2008  0.6980  0.3674
   81CHL1  H24A 8463   4.776   5.293   8.115  0.5222  0.9694 -0.0077
   81CHL1  H24B 8464   4.858   5.146   8.163  1.3716  0.5344  1.4511
   81CHL1   C25 8465   4.859   5.298   8.316 -0.2721 -0.1971  0.3730
   81CHL1   H25 8466   4.875   5.408   8.316  0.6920 -0.2660 -2.1649
   81CHL1   C26 8467   4.724   5.270   8.392  0.0163 -0.2004 -0.0998
   81CHL1  H26A 8468   4.695   5.164   8.400 -1.0179  0.1716  1.4366
   81CHL1  H26B 8469   4.733   5.304   8.497  0.2052 -2.4456  0.6459
   81CHL1  H26C 8470   4.640   5.318   8.337 -0.5426 -3.2962 -2.1739
   81CHL1   C27 8471   4.967   5.219   8.395  0.1229 -0.6294 -0.1602
   81CHL1  H27A 8472   4.955   5.109   8.388 -2.6367 -0.6886  3.1246
   81CHL1  H27B 8473   5.063   5.255   8.352 -0.8148  1.4936 -0.6319
   81CHL1  H27C 8474   4.970   5.245   8.503 -1.3960  0.8761 -0.4431
   82CHL1    C3 8475   4.789   6.735   7.060 -0.0654  0.3250 -0.0820
   82CHL1    H3 8476   4.843   6.643   7.092  1.9329  2.2716  2.6125
   82CHL1    O3 8477   4.787   6.754   6.918  0.4867  0.2188 -0.1162
   82CHL1   H3' 8478   4.854   6.696   6.882 -1.0991 -0.9757 -1.2830
   82CHL1    C4 8479   4.638   6.719   7.092  0.6338  0.0183 -0.3417
   82CHL1   H4A 8480   4.576   6.807   7.065 -0.7881 -0.9920 -0.5401
   82CHL1   H4B 8481   4.590   6.633   7.040 -1.9691 -0.4318  2.4692
   82CHL1    C5 8482   4.621   6.688   7.246  0.4321  0.8646 -0.4716
   82CHL1    C6 8483   4.566   6.572   7.290  0.0986 -0.1896  0.1310
   82CHL1    H6 8484   4.522   6.500   7.219 -2.2842  1.9146 -0.7095
   82CHL1    C7 8485   4.558   6.532   7.431  0.4036  0.0983 -0.3390
   82CHL1   H7A 8486   4.465   6.484   7.467  0.6419 -0.1014  0.0072
   82CHL1   H7B 8487   4.653   6.479   7.452  0.3856  0.3692  0.4515
   82CHL1    C8 8488   4.563   6.664   7.521 -0.0451  0.5081 -0.1138
   82CHL1    H8 8489   4.472   6.725   7.503  0.4530  1.2777 -0.0403
   82CHL1   C14 8490   4.560   6.622   7.667 -0.0400 -0.0163 -0.2115
   82CHL1   H14 8491   4.643   6.548   7.679 -0.5607 -0.5844 -0.0442
   82CHL1   C15 8492   4.431   6.554   7.722 -0.5144  0.4897  0.0654
   82CHL1  H15A 8493   4.341   6.610   7.688 -1.6131 -0.1928  1.7295
   82CHL1  H15B 8494   4.426   6.450   7.685  0.8609  0.4731 -0.1357
   82CHL1   C16 8495   4.454   6.568   7.875  0.4081 -0.0761  0.7169
   82CHL1  H16A 8496   4.368   6.627   7.914  0.6441  1.6602 -1.1937
   82CHL1  H16B 8497   4.458   6.471   7.929 -1.0118  0.1846  1.3341
   82CHL1   C17 8498   4.579   6.657   7.905  0.3031  1.0047  0.6404
   82CHL1   H17 8499   4.666   6.587   7.906 -0.2941  0.2578  0.7057
   82CHL1   C13 8500   4.589   6.738   7.772 -0.0389 -0.5707  0.4666
   82CHL1   C18 8501   4.479   6.851   7.762 -0.5429  0.4954 -0.1462
   82CHL1  H18A 8502   4.478   6.877   7.654  2.5548 -3.8071 -1.4443
   82CHL1  H18B 8503   4.383   6.816   7.805 -0.8698  1.5693  0.0398
   82CHL1  H18C 8504   4.498   6.939   7.827 -0.7171 -0.5946  1.4328
   82CHL1   C12 8505   4.730   6.790   7.734  0.4462  0.4276  0.8246
   82CHL1  H12A 8506   4.756   6.878   7.797  0.9665  2.4769 -2.0595
   82CHL1  H12B 8507   4.807   6.710   7.744  0.1541 -0.1451 -1.1210
   82CHL1   C11 8508   4.729   6.841   7.585 -0.3082 -0.1241  0.2991
   82CHL1  H11A 8509   4.665   6.931   7.593  0.7042  0.6239  0.2837
   82CHL1  H11B 8510   4.831   6.879   7.562 -0.6952  1.0239  0.4543
   82CHL1    C9 8511   4.688   6.740   7.482  0.4667  0.2713  0.7870
   82CHL1    H9 8512   4.770   6.667   7.500  2.2778  2.0263 -0.0140
   82CHL1   C10 8513   4.684   6.791   7.337  0.6604 -0.8678  0.2755
   82CHL1   C19 8514   4.600   6.925   7.337  0.3662 -0.4430  0.1951
   82CHL1  H19A 8515   4.496   6.906   7.371 -0.6652  0.8893 -1.9353
   82CHL1  H19B 8516   4.644   6.996   7.410 -0.9320  1.6165 -0.8874
   82CHL1  H19C 8517   4.595   6.969   7.234 -3.4096 -1.0212 -0.0259
   82CHL1    C1 8518   4.829   6.828   7.293  0.3011  0.1970 -1.0757
   82CHL1   H1A 8519   4.864   6.913   7.355 -0.8029  0.7406 -1.1786
   82CHL1   H1B 8520   4.884   6.736   7.323 -1.2950 -0.4435 -0.0131
   82CHL1    C2 8521   4.849   6.854   7.145  0.8075 -0.3608  0.5262
   82CHL1   H2A 8522   4.950   6.862   7.100  0.1974  2.8961 -0.5390
   82CHL1   H2B 8523   4.799   6.952   7.126  1.7931  0.4266  1.8521
   82CHL1   C20 8524   4.573   6.740   8.035 -0.7588  0.0818  0.0486
   82CHL1   H20 8525   4.488   6.811   8.035  0.8212  2.1081  1.3874
   82CHL1   C21 8526   4.699   6.825   8.057  0.8868 -0.8038  0.2947
   82CHL1  H21A 8527   4.694   6.918   7.996 -3.1286 -1.4794 -0.7018
   82CHL1  H21B 8528   4.796   6.779   8.031  1.0345  0.2743 -1.1856
   82CHL1  H21C 8529   4.695   6.851   8.165 -1.5178 -2.4376  0.6776
   82CHL1   C22 8530   4.549   6.650   8.160  0.2817  0.6028 -0.0360
   82CHL1  H22A 8531   4.545   6.720   8.245  1.1065  0.7490 -0.1097
   82CHL1  H22B 8532   4.467   6.575   8.151  0.6401  0.4290 -2.7685
   82CHL1   C23 8533   4.674   6.563   8.192 -0.0081  0.7449 -0.3462
   82CHL1  H23A 8534   4.700   6.505   8.101 -2.6115 -1.4239  0.1701
   82CHL1  H23B 8535   4.753   6.629   8.233  0.4722  0.6335 -1.0802
   82CHL1   C24 8536   4.640   6.457   8.298 -0.9952 -0.3609 -0.5930
   82CHL1  H24A 8537   4.630   6.509   8.396  1.1216 -1.4588  0.2636
   82CHL1  H24B 8538   4.539   6.418   8.274 -1.9359  1.8572 -0.5134
   82CHL1   C25 8539   4.745   6.339   8.323  0.7267  0.5670 -0.4556
   82CHL1   H25 8540   4.736   6.278   8.230 -0.4428 -1.3142  0.8119
   82CHL1   C26 8541   4.882   6.385   8.352 -0.6096  0.0645 -0.1628
   82CHL1  H26A 8542   4.903   6.452   8.438 -0.5082  1.5796 -1.3216
   82CHL1  H26B 8543   4.945   6.294   8.355 -1.1646 -0.3022  0.6992
   82CHL1  H26C 8544   4.920   6.442   8.265  1.2990  1.3548  1.4387
   82CHL1   C27 8545   4.693   6.255   8.446  0.2219 -0.5797  0.1423
   82CHL1  H27A 8546   4.768   6.180   8.479  0.3754 -0.7569 -0.5993
   82CHL1  H27B 8547   4.683   6.319   8.536 -0.8247 -1.9143  1.0195
   82CHL1  H27C 8548   4.602   6.195   8.425 -0.0581  0.2817 -1.2126
   83CHL1    C3 8549   2.582   1.742   6.782 -0.4899 -0.2872 -0.5923
   83CHL1    H3 8550   2.626   1.643   6.808  1.8729  1.3797  2.4442
   83CHL1    O3 8551   2.551   1.730   6.644 -0.0977 -1.0556  0.3166
   83CHL1   H3' 8552   2.471   1.782   6.628 -0.1984 -1.1632  0.4642
   83CHL1    C4 8553   2.454   1.764   6.859 -0.7329  0.3292 -0.1512
   83CHL1   H4A 8554   2.418   1.864   6.828 -1.4399  0.8390  2.1858
   83CHL1   H4B 8555   2.375   1.689   6.836 -0.2559 -0.2844  0.1945
   83CHL1    C5 8556   2.483   1.758   7.003 -0.5363  0.6686  0.4750
   83CHL1    C6 8557   2.418   1.674   7.087  0.2726  0.5309 -0.9919
   83CHL1    H6 8558   2.333   1.612   7.056  0.5707 -0.4612  0.1161
   83CHL1    C7 8559   2.454   1.666   7.233  0.2240 -0.3831  0.4039
   83CHL1   H7A 8560   2.367   1.641   7.297 -1.2136 -2.1826 -2.0755
   83CHL1   H7B 8561   2.509   1.571   7.249  0.2399  0.0359  3.5016
   83CHL1    C8 8562   2.527   1.793   7.289 -0.5880  0.6174  0.0821
   83CHL1    H8 8563   2.456   1.879   7.289  0.9810  1.9808 -0.3588
   83CHL1   C14 8564   2.577   1.774   7.434  0.0670  0.0730  0.1177
   83CHL1   H14 8565   2.648   1.689   7.426  0.1380 -0.0399  1.7242
   83CHL1   C15 8566   2.494   1.712   7.541  0.9800 -0.1756  0.5193
   83CHL1  H15A 8567   2.391   1.753   7.539  1.3899  0.9795 -3.4480
   83CHL1  H15B 8568   2.478   1.604   7.521  0.2036  0.1432 -0.6465
   83CHL1   C16 8569   2.570   1.735   7.666 -0.3673 -0.2271 -0.3825
   83CHL1  H16A 8570   2.499   1.784   7.737 -0.0603 -1.6475  0.9520
   83CHL1  H16B 8571   2.609   1.648   7.721  0.1288 -0.3407 -0.9076
   83CHL1   C17 8572   2.685   1.833   7.635  0.3357 -0.3237  0.5353
   83CHL1   H17 8573   2.778   1.777   7.611  0.1635 -0.6809  0.6947
   83CHL1   C13 8574   2.650   1.890   7.501 -0.0736  0.0090  0.0248
   83CHL1   C18 8575   2.564   2.015   7.514  0.7444 -0.0889 -0.1334
   83CHL1  H18A 8576   2.510   2.044   7.421  1.0701  1.1550  0.0495
   83CHL1  H18B 8577   2.478   1.989   7.579  0.2311  0.8889 -0.3950
   83CHL1  H18C 8578   2.614   2.101   7.564 -2.8155  0.1040  3.5984
   83CHL1   C12 8579   2.765   1.915   7.404  0.1886  0.9089  0.0255
   83CHL1  H12A 8580   2.826   1.999   7.444  0.0247  0.4390  1.3065
   83CHL1  H12B 8581   2.831   1.826   7.401 -1.3099 -0.2647 -2.7041
   83CHL1   C11 8582   2.718   1.945   7.258 -0.3623 -0.7643 -0.0446
   83CHL1  H11A 8583   2.655   2.036   7.260  0.4879 -0.1748  1.0917
   83CHL1  H11B 8584   2.800   1.974   7.189 -0.6710  0.0312 -0.0828
   83CHL1    C9 8585   2.640   1.833   7.190 -0.2511 -0.1354 -0.7876
   83CHL1    H9 8586   2.709   1.747   7.178 -0.2626 -0.1614 -0.6696
   83CHL1   C10 8587   2.593   1.857   7.046  0.2567 -0.3827  0.3762
   83CHL1   C19 8588   2.538   1.999   7.033 -0.0944  0.0912 -0.2532
   83CHL1  H19A 8589   2.626   2.066   7.045  0.4613 -0.8171  1.0598
   83CHL1  H19B 8590   2.500   2.022   6.932  0.5613  0.0096 -0.5255
   83CHL1  H19C 8591   2.462   2.021   7.111 -0.0410 -1.5579  0.3071
   83CHL1    C1 8592   2.718   1.846   6.947  0.2763  0.4048  0.5946
   83CHL1   H1A 8593   2.788   1.929   6.969 -0.5707  0.8603  1.6232
   83CHL1   H1B 8594   2.777   1.755   6.972 -0.7672 -0.4257  0.1056
   83CHL1    C2 8595   2.678   1.855   6.805  0.5136  0.0536 -0.6420
   83CHL1   H2A 8596   2.776   1.856   6.752  1.3755  0.9975  0.8859
   83CHL1   H2B 8597   2.627   1.953   6.798 -2.1805 -0.9107  2.6871
   83CHL1   C20 8598   2.719   1.927   7.750 -0.1197 -0.2546  0.1860
   83CHL1   H20 8599   2.627   1.987   7.767  0.1101  0.1557 -0.0120
   83CHL1   C21 8600   2.845   2.002   7.710 -0.7803 -0.6704  0.3374
   83CHL1  H21A 8601   2.875   2.071   7.791 -1.6937 -0.8589  0.8483
   83CHL1  H21B 8602   2.822   2.060   7.618 -2.2584 -0.0219  1.0930
   83CHL1  H21C 8603   2.920   1.929   7.670 -2.2678 -0.7810 -2.5121
   83CHL1   C22 8604   2.753   1.847   7.872 -0.1083 -0.3865 -0.7612
   83CHL1  H22A 8605   2.680   1.766   7.894 -0.1863 -0.3820 -1.0071
   83CHL1  H22B 8606   2.849   1.791   7.858  0.2130 -0.9420  2.8007
   83CHL1   C23 8607   2.763   1.920   8.002 -0.4520 -0.3781 -0.0360
   83CHL1  H23A 8608   2.840   2.000   7.997 -1.1600  0.3056 -0.0983
   83CHL1  H23B 8609   2.668   1.975   8.017  0.1561  1.1476 -1.4575
   83CHL1   C24 8610   2.785   1.828   8.130  0.0330 -0.2734 -0.0481
   83CHL1  H24A 8611   2.782   1.909   8.206  0.7833  1.1610 -1.4623
   83CHL1  H24B 8612   2.702   1.755   8.138  0.2649 -0.4908  0.4372
   83CHL1   C25 8613   2.914   1.741   8.129  0.3101 -0.2527  0.9124
   83CHL1   H25 8614   2.915   1.686   8.032  0.4083 -0.5362  1.0734
   83CHL1   C26 8615   3.047   1.825   8.139  0.5825 -0.3602 -0.4495
   83CHL1  H26A 8616   3.050   1.877   8.041 -0.8846 -1.4443 -1.1101
   83CHL1  H26B 8617   3.032   1.900   8.220  1.0760 -0.4353 -0.2844
   83CHL1  H26C 8618   3.140   1.769   8.161  2.6939  2.1008 -2.5277
   83CHL1   C27 8619   2.924   1.633   8.242 -0.3382 -0.4029 -0.1843
   83CHL1  H27A 8620   2.910   1.700   8.330 -0.1251  1.3439 -1.4146
   83CHL1  H27B 8621   2.841   1.561   8.226  0.3825 -1.3471  0.2182
   83CHL1  H27C 8622   3.024   1.586   8.250 -0.4464 -0.4324  1.4361
   84CHL1    C3 8623   2.640   4.539   6.932  0.2474 -1.1655  0.1374
   84CHL1    H3 8624   2.713   4.465   6.972  1.6818  0.0677 -0.1026
   84CHL1    O3 8625   2.663   4.543   6.787 -0.2356  0.4229  0.8221
   84CHL1   H3' 8626   2.654   4.636   6.764 -2.8987 -0.2731 -1.4508
   84CHL1    C4 8627   2.496   4.515   6.969  0.0878 -0.3214  0.2363
   84CHL1   H4A 8628   2.426   4.575   6.906 -2.0473 -2.3187  0.5734
   84CHL1   H4B 8629   2.469   4.413   6.934 -2.2135  0.8033 -1.5655
   84CHL1    C5 8630   2.459   4.543   7.116 -0.2146  0.1019 -0.6430
   84CHL1    C6 8631   2.403   4.451   7.199  0.3212  0.5286 -0.5871
   84CHL1    H6 8632   2.369   4.355   7.157  3.0996 -1.1727  0.7172
   84CHL1    C7 8633   2.384   4.469   7.347 -0.1682 -0.4355 -0.3330
   84CHL1   H7A 8634   2.293   4.417   7.384  0.3265 -1.1248 -0.0516
   84CHL1   H7B 8635   2.472   4.420   7.393  0.8537 -1.8391 -3.5113
   84CHL1    C8 8636   2.376   4.620   7.380  0.2670 -0.9813 -0.1597
   84CHL1    H8 8637   2.282   4.671   7.352 -0.5837 -2.3415  0.1285
   84CHL1   C14 8638   2.390   4.637   7.536  0.0294 -0.1552 -0.0023
   84CHL1   H14 8639   2.489   4.590   7.556 -0.3866 -1.1871 -0.2965
   84CHL1   C15 8640   2.301   4.562   7.630 -0.5193  0.1798  0.9114
   84CHL1  H15A 8641   2.195   4.577   7.598 -0.9404 -1.8373  1.1923
   84CHL1  H15B 8642   2.330   4.455   7.632  1.5716  0.7029  0.8676
   84CHL1   C16 8643   2.323   4.632   7.761  0.6523  0.2792 -0.0852
   84CHL1  H16A 8644   2.225   4.670   7.798 -0.1579 -0.8532 -1.0048
   84CHL1  H16B 8645   2.359   4.555   7.833  1.0936  0.2286 -0.3555
   84CHL1   C17 8646   2.414   4.762   7.737  0.1866 -0.3479 -0.6224
   84CHL1   H17 8647   2.522   4.743   7.754  0.2179  0.3973  0.1151
   84CHL1   C13 8648   2.400   4.785   7.587 -0.2903 -0.3302  0.6589
   84CHL1   C18 8649   2.266   4.858   7.564 -0.2497  0.0104 -0.8202
   84CHL1  H18A 8650   2.175   4.808   7.603  1.3708 -1.5612  1.1120
   84CHL1  H18B 8651   2.256   4.957   7.613 -1.2955 -0.5008  0.0336
   84CHL1  H18C 8652   2.253   4.875   7.454  2.0482  1.9905 -0.8699
   84CHL1   C12 8653   2.520   4.854   7.520  0.1067  0.3912  0.2496
   84CHL1  H12A 8654   2.515   4.963   7.538  0.7949  0.2508  1.4204
   84CHL1  H12B 8655   2.619   4.813   7.551 -0.7737 -1.8489  0.2886
   84CHL1   C11 8656   2.511   4.846   7.371  0.6636  0.4814  0.3828
   84CHL1  H11A 8657   2.435   4.915   7.329 -0.7935 -2.3836 -2.0928
   84CHL1  H11B 8658   2.603   4.900   7.340 -0.5725  1.6755 -1.4275
   84CHL1    C9 8659   2.497   4.694   7.326  0.0492 -0.3534 -0.6942
   84CHL1    H9 8660   2.592   4.649   7.361  1.6238  2.7169 -0.7187
   84CHL1   C10 8661   2.506   4.678   7.166 -0.1240  0.3513 -0.1970
   84CHL1   C19 8662   2.404   4.781   7.104 -0.4189  0.2275  0.1130
   84CHL1  H19A 8663   2.307   4.753   7.151  0.3196 -3.0088 -0.0515
   84CHL1  H19B 8664   2.432   4.888   7.115  0.1272  0.2277 -1.1375
   84CHL1  H19C 8665   2.391   4.761   6.995  0.2771 -1.4003  0.3021
   84CHL1    C1 8666   2.657   4.704   7.121  0.4342  0.2662 -0.1080
   84CHL1   H1A 8667   2.689   4.803   7.161  1.4805 -0.9379  2.2329
   84CHL1   H1B 8668   2.718   4.633   7.181  1.0942  0.5464 -0.4326
   84CHL1    C2 8669   2.683   4.683   6.971 -0.0673  0.4678 -0.5751
   84CHL1   H2A 8670   2.788   4.695   6.939  0.0871  1.4630  0.2644
   84CHL1   H2B 8671   2.621   4.757   6.916  0.0727  0.6478 -0.4926
   84CHL1   C20 8672   2.371   4.868   7.843 -0.4588 -0.1122  0.2529
   84CHL1   H20 8673   2.267   4.902   7.826  0.5005  2.6452 -0.5071
   84CHL1   C21 8674   2.453   4.996   7.819 -0.6484 -0.7094  0.0634
   84CHL1  H21A 8675   2.418   5.043   7.725  0.4502  1.1242  0.5046
   84CHL1  H21B 8676   2.564   4.984   7.816 -0.4429  1.0117 -1.1197
   84CHL1  H21C 8677   2.431   5.065   7.904 -1.0272  0.3612 -0.8763
   84CHL1   C22 8678   2.395   4.818   7.992 -0.3381 -0.3179 -0.0333
   84CHL1  H22A 8679   2.381   4.908   8.056 -1.2270 -0.5974  0.1847
   84CHL1  H22B 8680   2.315   4.748   8.024  0.4380 -1.1486  0.1012
   84CHL1   C23 8681   2.541   4.771   8.022  1.0757 -0.0007  0.3210
   84CHL1  H23A 8682   2.545   4.669   7.977  0.6456  0.4289 -0.7138
   84CHL1  H23B 8683   2.610   4.826   7.954  0.3945  0.7387  0.2129
   84CHL1   C24 8684   2.591   4.792   8.163 -0.2121 -0.4659 -0.2462
   84CHL1  H24A 8685   2.567   4.894   8.199 -1.0429 -1.4153  2.1575
   84CHL1  H24B 8686   2.536   4.716   8.222  0.2575 -0.2639  0.4682
   84CHL1   C25 8687   2.742   4.750   8.174 -0.6602  0.5625  0.1220
   84CHL1   H25 8688   2.801   4.804   8.097  1.9491 -0.9884  0.9198
   84CHL1   C26 8689   2.781   4.773   8.318 -0.3477 -0.2866 -0.2009
   84CHL1  H26A 8690   2.742   4.695   8.387  0.0170  0.9679  1.4786
   84CHL1  H26B 8691   2.892   4.768   8.323 -0.1203 -1.9142 -3.6264
   84CHL1  H26C 8692   2.748   4.875   8.347 -2.8097 -1.0127 -0.2149
   84CHL1   C27 8693   2.776   4.600   8.142 -0.2021 -0.6517  0.6000
   84CHL1  H27A 8694   2.774   4.576   8.033  1.3041  0.5630  0.2697
   84CHL1  H27B 8695   2.877   4.581   8.184 -0.0281 -0.0893  0.4432
   84CHL1  H27C 8696   2.706   4.536   8.201 -0.0353 -1.0251  0.3992
   85CHL1    C3 8697   2.510   1.367   6.658 -0.0779  0.0887  0.3051
   85CHL1    H3 8698   2.532   1.472   6.686 -0.2884  0.0226  0.7185
   85CHL1    O3 8699   2.486   1.341   6.518 -0.6863  0.7226 -0.0090
   85CHL1   H3' 8700   2.405   1.289   6.522 -1.0752  1.4378  2.6302
   85CHL1    C4 8701   2.625   1.280   6.702 -0.1596  0.4282  0.7463
   85CHL1   H4A 8702   2.603   1.176   6.670  1.1427  1.1777 -3.0152
   85CHL1   H4B 8703   2.716   1.309   6.645  1.9327 -3.1770  1.9408
   85CHL1    C5 8704   2.651   1.306   6.847  0.4599 -0.1428 -0.8170
   85CHL1    C6 8705   2.767   1.355   6.896  0.5608 -0.6440 -0.3760
   85CHL1    H6 8706   2.851   1.378   6.830 -0.0324 -0.5950 -1.1326
   85CHL1    C7 8707   2.794   1.361   7.044 -0.0420  0.1949  0.1480
   85CHL1   H7A 8708   2.896   1.322   7.067 -0.3882 -1.8895 -1.5931
   85CHL1   H7B 8709   2.785   1.468   7.073  0.6139  0.3768 -0.2790
   85CHL1    C8 8710   2.697   1.274   7.129  0.2522 -0.4862  0.0754
   85CHL1    H8 8711   2.718   1.168   7.104 -0.0511 -0.2275 -1.3699
   85CHL1   C14 8712   2.718   1.310   7.280  0.3416  0.0300  0.4325
   85CHL1   H14 8713   2.682   1.414   7.295  0.7025  0.5465 -1.8789
   85CHL1   C15 8714   2.865   1.307   7.331 -0.1576  0.7248  0.5344
   85CHL1  H15A 8715   2.915   1.214   7.297 -0.0031  0.8480  0.4251
   85CHL1  H15B 8716   2.921   1.394   7.291  0.3188  1.0017  1.7744
   85CHL1   C16 8717   2.852   1.308   7.485 -0.2130  0.0063 -0.2470
   85CHL1  H16A 8718   2.922   1.242   7.541 -1.2843 -0.3387  0.7286
   85CHL1  H16B 8719   2.872   1.411   7.521 -0.9090  0.1439 -0.2536
   85CHL1   C17 8720   2.699   1.269   7.513 -0.1926  0.9554 -0.3232
   85CHL1   H17 8721   2.656   1.372   7.522  0.7096  1.4547 -1.4389
   85CHL1   C13 8722   2.644   1.224   7.378  0.4909  0.5301  1.0174
   85CHL1   C18 8723   2.668   1.072   7.357 -0.0840  1.1448  0.3496
   85CHL1  H18A 8724   2.772   1.039   7.377 -1.1483 -2.1846  0.9646
   85CHL1  H18B 8725   2.601   1.020   7.429 -0.4944 -0.9916 -1.4924
   85CHL1  H18C 8726   2.637   1.043   7.255 -0.9351 -1.1648  1.1926
   85CHL1   C12 8727   2.490   1.252   7.345  0.1608  0.1987  0.2492
   85CHL1  H12A 8728   2.403   1.202   7.393  0.3222 -0.9262 -0.5820
   85CHL1  H12B 8729   2.464   1.359   7.359 -0.6265 -0.0493  0.7727
   85CHL1   C11 8730   2.464   1.220   7.190 -0.7371  0.1794  0.0841
   85CHL1  H11A 8731   2.466   1.110   7.181  0.5723  0.2811 -1.1489
   85CHL1  H11B 8732   2.363   1.258   7.163 -0.3375  0.0606 -1.6864
   85CHL1    C9 8733   2.556   1.296   7.091  0.3748  0.4500 -0.4547
   85CHL1    H9 8734   2.534   1.404   7.104 -0.5554  0.6609 -3.1083
   85CHL1   C10 8735   2.526   1.263   6.938 -0.6382  0.2644  0.3454
   85CHL1   C19 8736   2.504   1.118   6.926 -0.0095 -0.1886 -0.0688
   85CHL1  H19A 8737   2.412   1.083   6.976  1.1236 -2.9584  0.2521
   85CHL1  H19B 8738   2.486   1.089   6.820  0.0673  0.3083 -0.2226
   85CHL1  H19C 8739   2.586   1.057   6.970 -0.7886 -2.0617 -1.0795
   85CHL1    C1 8740   2.406   1.349   6.884 -0.3061  0.0829 -0.5575
   85CHL1   H1A 8741   2.313   1.332   6.942  0.0973  3.0028  1.1533
   85CHL1   H1B 8742   2.421   1.458   6.903 -0.0457  0.3220 -2.0328
   85CHL1    C2 8743   2.385   1.327   6.735  0.3219 -0.1698 -0.7138
   85CHL1   H2A 8744   2.302   1.386   6.691  1.3108  0.5483 -1.6964
   85CHL1   H2B 8745   2.357   1.221   6.717  1.3624 -0.4417 -0.8089
   85CHL1   C20 8746   2.685   1.178   7.636  0.6002  0.2541  0.2375
   85CHL1   H20 8747   2.741   1.088   7.603  1.5193  1.5622 -2.0078
   85CHL1   C21 8748   2.537   1.148   7.660 -0.5546  0.1676  0.6226
   85CHL1  H21A 8749   2.486   1.108   7.570  0.1323  0.4274  0.1075
   85CHL1  H21B 8750   2.491   1.243   7.694 -0.5779  0.5479 -0.4285
   85CHL1  H21C 8751   2.516   1.084   7.748 -0.6975 -0.0668  0.4203
   85CHL1   C22 8752   2.747   1.245   7.760  0.3537  0.4822  0.4044
   85CHL1  H22A 8753   2.853   1.274   7.742  0.4903  0.3026  0.8900
   85CHL1  H22B 8754   2.685   1.335   7.782 -2.0576  0.5199 -5.0497
   85CHL1   C23 8755   2.757   1.159   7.886  0.1811  1.3044  0.6718
   85CHL1  H23A 8756   2.655   1.130   7.918  0.5675 -1.4375 -0.2935
   85CHL1  H23B 8757   2.801   1.058   7.869 -1.5548  0.3951  1.2933
   85CHL1   C24 8758   2.821   1.232   8.005 -0.1408 -0.0800 -0.5179
   85CHL1  H24A 8759   2.928   1.257   7.991 -0.0798  0.6690  1.0749
   85CHL1  H24B 8760   2.769   1.327   8.032  2.1390  0.6849  1.4861
   85CHL1   C25 8761   2.825   1.149   8.138  0.4513  0.0800 -0.2249
   85CHL1   H25 8762   2.882   1.200   8.219 -0.5152 -0.5618  0.8864
   85CHL1   C26 8763   2.691   1.133   8.201 -0.4178  0.4389  0.0409
   85CHL1  H26A 8764   2.607   1.106   8.133  0.5610  0.3748 -1.1627
   85CHL1  H26B 8765   2.687   1.061   8.286  0.4668 -0.4368 -0.6340
   85CHL1  H26C 8766   2.672   1.229   8.254 -2.6574 -1.3685  2.8396
   85CHL1   C27 8767   2.889   1.012   8.112  0.1114 -0.1859  0.6490
   85CHL1  H27A 8768   2.816   0.950   8.056  0.4285 -0.9764  1.0929
   85CHL1  H27B 8769   2.982   1.029   8.053 -0.8765  0.6468 -0.7379
   85CHL1  H27C 8770   2.914   0.959   8.206  0.0979  1.5594  1.6750
   86CHL1    C3 8771   4.692   4.775   6.988  0.2949  0.3166 -0.3469
   86CHL1    H3 8772   4.799   4.749   6.988  0.2598  0.1104  1.1864
   86CHL1    O3 8773   4.642   4.786   6.855 -0.3472  0.3753  0.4790
   86CHL1   H3' 8774   4.549   4.786   6.877 -0.7296  1.4400 -1.0244
   86CHL1    C4 8775   4.603   4.674   7.050  0.5342 -1.1410  0.1480
   86CHL1   H4A 8776   4.495   4.690   7.032  0.9089  0.4819 -0.8011
   86CHL1   H4B 8777   4.623   4.576   7.002  1.1551 -0.8354 -0.2271
   86CHL1    C5 8778   4.626   4.673   7.200  0.6903 -0.0860 -0.1328
   86CHL1    C6 8779   4.655   4.557   7.267  0.2458 -0.3067 -0.5222
   86CHL1    H6 8780   4.677   4.460   7.219  0.5728  0.1759 -1.3503
   86CHL1    C7 8781   4.649   4.543   7.417 -0.1649  0.0981 -0.1367
   86CHL1   H7A 8782   4.571   4.475   7.457 -1.6649  1.9248  0.1567
   86CHL1   H7B 8783   4.747   4.504   7.453  0.1912  0.5256 -0.6225
   86CHL1    C8 8784   4.608   4.673   7.496  0.1188 -0.4900  0.0913
   86CHL1    H8 8785   4.497   4.674   7.491  0.0381 -3.5145 -0.4627
   86CHL1   C14 8786   4.658   4.666   7.645  0.2359  0.1750 -0.1448
   86CHL1   H14 8787   4.768   4.669   7.636  0.4333 -0.1027  1.7799
   86CHL1   C15 8788   4.634   4.539   7.729  0.7446  0.1329  0.0614
   86CHL1  H15A 8789   4.530   4.502   7.718  1.1446 -0.7749 -0.7376
   86CHL1  H15B 8790   4.707   4.459   7.705  2.9743  1.9551  0.3227
   86CHL1   C16 8791   4.646   4.591   7.878  0.2099  0.3179  0.0188
   86CHL1  H16A 8792   4.543   4.577   7.917 -0.0585 -2.4740 -1.4518
   86CHL1  H16B 8793   4.706   4.525   7.945 -1.6607  0.6049  2.1003
   86CHL1   C17 8794   4.680   4.743   7.868  0.1283 -0.1338  0.1638
   86CHL1   H17 8795   4.791   4.755   7.862 -0.0738  2.3352  0.3202
   86CHL1   C13 8796   4.622   4.785   7.731  0.2783 -0.0952  0.5534
   86CHL1   C18 8797   4.468   4.795   7.749 -0.2099 -0.5912 -0.8103
   86CHL1  H18A 8798   4.441   4.882   7.812  0.0592 -0.3449 -1.0313
   86CHL1  H18B 8799   4.421   4.807   7.649  0.0418  1.3098 -0.7337
   86CHL1  H18C 8800   4.416   4.705   7.787 -2.8955  1.1416 -0.0822
   86CHL1   C12 8801   4.685   4.910   7.656  0.3770  0.8716 -0.3339
   86CHL1  H12A 8802   4.669   5.001   7.718 -1.0158  0.1177  0.4869
   86CHL1  H12B 8803   4.795   4.906   7.666  0.2834  2.0356  1.7127
   86CHL1   C11 8804   4.630   4.925   7.513  0.9741  0.0636  1.0058
   86CHL1  H11A 8805   4.521   4.944   7.517  1.0629  0.4910  1.5777
   86CHL1  H11B 8806   4.674   5.015   7.465 -1.1857  0.9351  0.5509
   86CHL1    C9 8807   4.656   4.800   7.428 -0.1771 -0.3237  0.6097
   86CHL1    H9 8808   4.766   4.795   7.425 -0.1989 -0.3540 -0.7703
   86CHL1   C10 8809   4.616   4.808   7.275  0.1271  0.0272 -0.0160
   86CHL1   C19 8810   4.468   4.856   7.269 -0.3567  0.0449 -0.2610
   86CHL1  H19A 8811   4.403   4.793   7.333 -0.4224 -0.2763 -0.6424
   86CHL1  H19B 8812   4.465   4.962   7.302  0.1480  0.0635 -0.2652
   86CHL1  H19C 8813   4.441   4.854   7.162  1.3316  0.5735 -0.7351
   86CHL1    C1 8814   4.710   4.909   7.203  0.2521  0.1699  0.5150
   86CHL1   H1A 8815   4.706   5.014   7.239 -0.8499  0.4011 -0.2360
   86CHL1   H1B 8816   4.818   4.892   7.219 -0.0786 -0.2503  2.5460
   86CHL1    C2 8817   4.686   4.911   7.054  0.4967 -0.1828  0.4594
   86CHL1   H2A 8818   4.763   4.977   7.009  0.3559 -0.5439 -0.3420
   86CHL1   H2B 8819   4.581   4.945   7.039  0.2405 -0.8519  0.6670
   86CHL1   C20 8820   4.625   4.808   7.993 -0.9088  0.0123 -0.8687
   86CHL1   H20 8821   4.514   4.800   7.994 -0.9362  0.3010 -1.5172
   86CHL1   C21 8822   4.660   4.960   7.998 -0.4350  0.1638 -0.2649
   86CHL1  H21A 8823   4.764   4.971   7.961 -0.4659 -1.7464 -1.0557
   86CHL1  H21B 8824   4.672   5.003   8.099 -0.2916 -1.6218  0.5143
   86CHL1  H21C 8825   4.579   5.007   7.937 -0.9421 -1.5244 -0.9463
   86CHL1   C22 8826   4.671   4.740   8.130 -0.0823  0.6043  0.5887
   86CHL1  H22A 8827   4.637   4.634   8.129  2.3114 -0.3106 -2.7865
   86CHL1  H22B 8828   4.782   4.741   8.134  0.3216 -1.8675 -3.7315
   86CHL1   C23 8829   4.595   4.792   8.250  0.5390  0.5620  0.2018
   86CHL1  H23A 8830   4.602   4.900   8.272 -1.4690  0.8898 -0.5572
   86CHL1  H23B 8831   4.488   4.768   8.231  0.5501  1.4865 -1.1553
   86CHL1   C24 8832   4.638   4.723   8.378  0.6124 -0.1291 -0.5340
   86CHL1  H24A 8833   4.643   4.613   8.365  1.8953 -0.1341 -0.1188
   86CHL1  H24B 8834   4.742   4.747   8.409  1.5433 -2.2211 -1.8378
   86CHL1   C25 8835   4.556   4.758   8.503  0.7297  0.3471 -0.3243
   86CHL1   H25 8836   4.526   4.864   8.491 -0.3273 -0.0359 -1.3033
   86CHL1   C26 8837   4.435   4.661   8.510 -0.5113 -0.7783 -0.4208
   86CHL1  H26A 8838   4.377   4.660   8.415 -2.2817  0.4337  0.5818
   86CHL1  H26B 8839   4.474   4.557   8.519 -1.2884 -1.1693 -1.3023
   86CHL1  H26C 8840   4.372   4.690   8.597  0.9999  2.5779 -0.3233
   86CHL1   C27 8841   4.651   4.755   8.634  0.7888 -0.2107  0.0185
   86CHL1  H27A 8842   4.594   4.749   8.729  1.3646  0.6045  0.4322
   86CHL1  H27B 8843   4.710   4.662   8.621 -3.0968 -2.6970 -1.6289
   86CHL1  H27C 8844   4.710   4.849   8.636  0.5756 -0.0805  0.1648
   87CHL1    C3 8845   1.919   3.681   7.019 -0.2295 -0.1336 -0.4071
   87CHL1    H3 8846   1.906   3.572   7.041 -1.3482  0.1744  0.5856
   87CHL1    O3 8847   1.869   3.709   6.895  0.0816 -0.0419  0.3691
   87CHL1   H3' 8848   1.931   3.668   6.833  0.2822  2.0866 -0.9253
   87CHL1    C4 8849   1.849   3.765   7.122 -0.2763 -0.5485 -0.1759
   87CHL1   H4A 8850   1.859   3.871   7.092  0.4804 -1.0937 -2.0277
   87CHL1   H4B 8851   1.741   3.740   7.113 -0.4048 -0.5748  1.2404
   87CHL1    C5 8852   1.903   3.729   7.257  0.7590  0.2440 -0.3817
   87CHL1    C6 8853   1.816   3.683   7.354 -0.1050 -0.2847 -0.0397
   87CHL1    H6 8854   1.709   3.662   7.343  0.1268 -0.8864 -1.3663
   87CHL1    C7 8855   1.861   3.655   7.492  0.3004  0.1992 -0.3175
   87CHL1   H7A 8856   1.782   3.683   7.566  1.6386 -0.1531  1.3217
   87CHL1   H7B 8857   1.879   3.548   7.517 -1.2416 -0.0744 -0.3108
   87CHL1    C8 8858   1.985   3.742   7.531  1.1966  0.1555  0.9991
   87CHL1    H8 8859   1.948   3.845   7.548  0.2116  0.0185 -0.2015
   87CHL1   C14 8860   2.041   3.687   7.664  0.6836 -0.0433  0.2847
   87CHL1   H14 8861   2.064   3.579   7.647 -0.5584 -0.3765  0.6074
   87CHL1   C15 8862   1.937   3.678   7.784 -0.5633 -0.2460  1.4588
   87CHL1  H15A 8863   1.878   3.771   7.800  0.9321  1.0968 -0.3544
   87CHL1  H15B 8864   1.872   3.590   7.767 -0.1891 -0.3898  0.7459
   87CHL1   C16 8865   2.028   3.653   7.897 -0.2204 -0.3305 -0.2348
   87CHL1  H16A 8866   2.008   3.714   7.988  1.7517  0.2782 -0.1611
   87CHL1  H16B 8867   2.026   3.545   7.924 -1.9105 -0.3167 -0.1782
   87CHL1   C17 8868   2.180   3.671   7.850 -0.4482  1.1582  0.1614
   87CHL1   H17 8869   2.209   3.569   7.815 -0.9221  1.1915 -0.3414
   87CHL1   C13 8870   2.170   3.751   7.719 -0.1476  0.1825 -0.0754
   87CHL1   C18 8871   2.144   3.892   7.760  0.1934 -0.1336  0.1806
   87CHL1  H18A 8872   2.091   3.940   7.675 -1.5537 -1.8259  0.2481
   87CHL1  H18B 8873   2.083   3.902   7.853  0.2277 -1.1418  0.3132
   87CHL1  H18C 8874   2.241   3.947   7.770 -0.1826  0.6278 -0.2570
   87CHL1   C12 8875   2.278   3.749   7.610  0.4236  0.9251 -0.2083
   87CHL1  H12A 8876   2.370   3.791   7.656 -0.7045 -1.8717  5.4894
   87CHL1  H12B 8877   2.317   3.646   7.590 -0.2208  0.5041  0.6284
   87CHL1   C11 8878   2.227   3.808   7.478 -0.3127  0.9997 -0.5186
   87CHL1  H11A 8879   2.185   3.909   7.493 -0.3193  0.7933  1.0402
   87CHL1  H11B 8880   2.308   3.810   7.402 -0.5564  0.3934 -0.8021
   87CHL1    C9 8881   2.098   3.732   7.425  0.6252 -0.1398 -0.2877
   87CHL1    H9 8882   2.126   3.625   7.428  1.4205  0.0472 -0.6068
   87CHL1   C10 8883   2.051   3.765   7.283  0.2036 -0.5835  0.9698
   87CHL1   C19 8884   2.081   3.910   7.258  0.4819  0.5495 -0.4918
   87CHL1  H19A 8885   2.190   3.930   7.254  0.4970  0.8880  0.9870
   87CHL1  H19B 8886   2.044   3.951   7.161  3.5835  0.4145 -1.8301
   87CHL1  H19C 8887   2.046   3.980   7.336  1.7132  0.5146  0.1106
   87CHL1    C1 8888   2.122   3.680   7.172  0.6238  0.0995 -0.2920
   87CHL1   H1A 8889   2.232   3.693   7.184  0.4720  0.2472  1.1598
   87CHL1   H1B 8890   2.097   3.573   7.189  1.1336 -0.1319 -0.9666
   87CHL1    C2 8891   2.066   3.705   7.026 -0.9004  0.8166 -0.8497
   87CHL1   H2A 8892   2.133   3.643   6.963  1.1337  2.0054  0.0629
   87CHL1   H2B 8893   2.080   3.814   7.008 -1.3119  0.7367 -1.7265
   87CHL1   C20 8894   2.276   3.710   7.963  0.5758 -0.8655 -0.4413
   87CHL1   H20 8895   2.257   3.816   7.991  2.9549 -0.2653 -0.8325
   87CHL1   C21 8896   2.421   3.719   7.910 -0.0478 -0.2727  0.8461
   87CHL1  H21A 8897   2.433   3.806   7.843  0.3347 -2.4969 -2.1968
   87CHL1  H21B 8898   2.428   3.628   7.846  0.9324 -0.0397  0.6086
   87CHL1  H21C 8899   2.498   3.723   7.990  1.2946 -0.5372 -0.4001
   87CHL1   C22 8900   2.260   3.616   8.090 -0.6149 -0.3878  0.1896
   87CHL1  H22A 8901   2.156   3.629   8.128 -0.8787 -0.5471 -0.4585
   87CHL1  H22B 8902   2.267   3.511   8.054 -1.5241 -1.4759  2.9114
   87CHL1   C23 8903   2.359   3.634   8.201 -0.6525  0.0940 -0.5532
   87CHL1  H23A 8904   2.323   3.580   8.291 -1.0199 -1.0855 -1.3939
   87CHL1  H23B 8905   2.465   3.605   8.185 -0.0664  2.0341 -0.4685
   87CHL1   C24 8906   2.348   3.781   8.262  0.3963  0.3295 -0.0385
   87CHL1  H24A 8907   2.383   3.843   8.177  0.7419 -0.5120 -0.5306
   87CHL1  H24B 8908   2.243   3.806   8.291 -0.0176  1.1681 -2.0840
   87CHL1   C25 8909   2.432   3.798   8.389  0.3631  0.4727 -0.3750
   87CHL1   H25 8910   2.511   3.721   8.384  0.2224  0.2984  0.0521
   87CHL1   C26 8911   2.503   3.936   8.404 -0.0181 -0.3719 -0.2247
   87CHL1  H26A 8912   2.577   3.935   8.486 -1.0963 -0.2749  0.7792
   87CHL1  H26B 8913   2.541   3.950   8.300 -1.0589  1.7542 -0.3686
   87CHL1  H26C 8914   2.423   4.012   8.414  0.0444 -0.3413  0.0421
   87CHL1   C27 8915   2.343   3.758   8.509 -0.1175 -0.8730  0.3552
   87CHL1  H27A 8916   2.320   3.649   8.503 -0.8479 -0.7185  0.3375
   87CHL1  H27B 8917   2.399   3.790   8.600  1.6125  0.3567 -1.0722
   87CHL1  H27C 8918   2.252   3.820   8.500  1.1620  0.8645 -1.5285
   88CHL1    C3 8919   0.834   3.379   6.914 -0.7370  0.1322  0.9344
   88CHL1    H3 8920   0.853   3.488   6.925 -2.1173  0.2823  2.2322
   88CHL1    O3 8921   0.798   3.353   6.781 -0.1894 -0.2394  0.2712
   88CHL1   H3' 8922   0.703   3.339   6.785 -0.0665 -0.9838  0.9045
   88CHL1    C4 8923   0.947   3.289   6.958 -0.6294 -0.0415 -1.3190
   88CHL1   H4A 8924   0.920   3.189   6.919 -2.6075 -0.1338  0.1087
   88CHL1   H4B 8925   1.040   3.322   6.906  0.0224  1.4154  0.6374
   88CHL1    C5 8926   0.976   3.287   7.111 -0.5051 -0.4973  0.6480
   88CHL1    C6 8927   1.095   3.319   7.164  0.8426  0.6032 -0.1418
   88CHL1    H6 8928   1.173   3.347   7.092  0.1382 -2.2821 -2.2200
   88CHL1    C7 8929   1.124   3.335   7.310  0.0958 -0.5180 -0.1039
   88CHL1   H7A 8930   1.223   3.287   7.323  0.5772  0.8441  1.5855
   88CHL1   H7B 8931   1.143   3.441   7.336 -1.9066 -0.4265  1.1351
   88CHL1    C8 8932   1.014   3.264   7.391 -0.1572 -0.0495  0.3365
   88CHL1    H8 8933   1.034   3.155   7.391  1.1062  0.1735  0.8369
   88CHL1   C14 8934   1.015   3.306   7.538  0.7868  0.0868  0.1299
   88CHL1   H14 8935   0.981   3.412   7.533 -0.7164 -0.2004  2.6341
   88CHL1   C15 8936   1.153   3.311   7.607 -0.6162  0.2642 -0.3571
   88CHL1  H15A 8937   1.199   3.215   7.576 -1.2854 -0.9487  2.0991
   88CHL1  H15B 8938   1.213   3.400   7.578  1.1961 -0.3213  1.3026
   88CHL1   C16 8939   1.123   3.292   7.758  0.0903  0.6283  0.0409
   88CHL1  H16A 8940   1.152   3.195   7.804  0.0038  1.4293  1.9024
   88CHL1  H16B 8941   1.172   3.374   7.815  0.9900  0.3950 -0.3879
   88CHL1   C17 8942   0.970   3.299   7.766 -0.1275  0.2201 -0.6009
   88CHL1   H17 8943   0.937   3.405   7.758  0.0560  0.2468 -1.0184
   88CHL1   C13 8944   0.923   3.235   7.634  0.2843 -0.9054  0.4221
   88CHL1   C18 8945   0.947   3.083   7.632 -0.2965  0.0253  0.7479
   88CHL1  H18A 8946   1.041   3.063   7.687  1.4092  1.7144 -1.3657
   88CHL1  H18B 8947   0.854   3.037   7.672 -0.5345 -0.4761 -0.3395
   88CHL1  H18C 8948   0.960   3.034   7.533  0.6142 -0.0776  0.9142
   88CHL1   C12 8949   0.786   3.275   7.588 -0.0490  0.4938  0.4181
   88CHL1  H12A 8950   0.709   3.224   7.651 -0.5970  1.1708  0.3132
   88CHL1  H12B 8951   0.778   3.385   7.595  1.1089  0.5006  2.1570
   88CHL1   C11 8952   0.756   3.245   7.445  0.5796  0.2942 -0.2022
   88CHL1  H11A 8953   0.750   3.134   7.444  1.7253  0.2219 -1.1173
   88CHL1  H11B 8954   0.656   3.286   7.419  0.7271  0.9794  0.3100
   88CHL1    C9 8955   0.871   3.291   7.345 -0.2669 -0.1136 -0.4250
   88CHL1    H9 8956   0.871   3.402   7.348 -1.1547 -0.1283  1.3113
   88CHL1   C10 8957   0.843   3.266   7.196  0.6248 -0.1177  0.5166
   88CHL1   C19 8958   0.798   3.123   7.188  0.3739 -0.1883 -0.5727
   88CHL1  H19A 8959   0.695   3.116   7.229  0.1693 -0.7545 -1.1689
   88CHL1  H19B 8960   0.784   3.111   7.078  1.0170 -1.5800 -0.5284
   88CHL1  H19C 8961   0.867   3.057   7.245  1.7524  0.8543 -0.9929
   88CHL1    C1 8962   0.729   3.365   7.140 -0.1361 -0.1788  0.0041
   88CHL1   H1A 8963   0.640   3.343   7.204  0.6574  2.0271  2.0051
   88CHL1   H1B 8964   0.746   3.472   7.165 -1.1129  0.4972 -1.9737
   88CHL1    C2 8965   0.704   3.343   6.988 -0.3024 -0.5672  0.3159
   88CHL1   H2A 8966   0.623   3.415   6.962  1.1757  2.4213  3.2950
   88CHL1   H2B 8967   0.668   3.241   6.961 -1.9973 -0.2861  1.3796
   88CHL1   C20 8968   0.913   3.235   7.901 -0.1668 -0.5454  0.5228
   88CHL1   H20 8969   0.923   3.125   7.893  1.4119 -0.5615  2.0296
   88CHL1   C21 8970   0.761   3.253   7.933  0.2533 -0.0837  0.7724
   88CHL1  H21A 8971   0.742   3.176   8.011 -0.6552 -3.0019 -2.1172
   88CHL1  H21B 8972   0.700   3.213   7.849  1.7820  2.0100 -1.4943
   88CHL1  H21C 8973   0.736   3.359   7.957 -1.1042 -0.6436  2.0066
   88CHL1   C22 8974   1.001   3.278   8.027 -0.9302 -0.8233  0.0509
   88CHL1  H22A 8975   1.101   3.232   8.018 -0.5696  0.1727 -1.4010
   88CHL1  H22B 8976   1.012   3.388   8.031  2.1266 -1.0840  2.1818
   88CHL1   C23 8977   0.953   3.233   8.170  0.1626  0.2694  0.4705
   88CHL1  H23A 8978   0.849   3.248   8.206  1.0903 -0.2007  3.6958
   88CHL1  H23B 8979   0.966   3.124   8.184 -0.3228  0.0783 -0.4842
   88CHL1   C24 8980   1.021   3.301   8.290 -0.3228  0.5645 -0.1608
   88CHL1  H24A 8981   1.119   3.249   8.289 -0.1194  0.9160 -1.7100
   88CHL1  H24B 8982   1.040   3.410   8.278 -2.0310  1.0209  0.9497
   88CHL1   C25 8983   0.949   3.281   8.424 -0.0225 -0.4349  0.5499
   88CHL1   H25 8984   0.849   3.328   8.417  0.9190  1.6334  0.1632
   88CHL1   C26 8985   0.934   3.132   8.458 -0.2301 -0.0132  0.1485
   88CHL1  H26A 8986   0.898   3.066   8.377  0.3115 -1.2855  0.9143
   88CHL1  H26B 8987   1.028   3.093   8.503  0.9264  1.8431 -0.5545
   88CHL1  H26C 8988   0.846   3.123   8.524 -0.9712 -1.5799 -1.0044
   88CHL1   C27 8989   1.031   3.348   8.540 -0.3809  0.2698 -0.2469
   88CHL1  H27A 8990   0.986   3.317   8.636 -1.0578  1.3995 -0.1868
   88CHL1  H27B 8991   1.139   3.325   8.521 -0.8793 -1.0409 -1.8190
   88CHL1  H27C 8992   1.015   3.457   8.550  0.9217  0.3841  0.7885
   89CHL1    C3 8993   5.066   4.477   6.970 -0.1232 -0.8731  0.2863
   89CHL1    H3 8994   5.053   4.571   7.028 -2.8427 -1.2466  0.4188
   89CHL1    O3 8995   5.099   4.510   6.835 -0.2714 -0.0507 -0.2212
   89CHL1   H3' 8996   5.024   4.565   6.810  0.4366  0.9750 -0.1650
   89CHL1    C4 8997   5.175   4.381   7.029  0.6476 -0.0718  0.5177
   89CHL1   H4A 8998   5.174   4.289   6.968  1.0257  0.7037 -0.7024
   89CHL1   H4B 8999   5.272   4.436   7.029  1.2539 -1.1136  0.2009
   89CHL1    C5 9000   5.131   4.330   7.166 -0.0307 -0.5233  0.2835
   89CHL1    C6 9001   5.219   4.348   7.269  0.6558 -1.1040 -0.3167
   89CHL1    H6 9002   5.315   4.398   7.250  0.1108  0.3357  0.4877
   89CHL1    C7 9003   5.194   4.308   7.411  0.7352 -0.2342  0.1380
   89CHL1   H7A 9004   5.280   4.252   7.452  0.0477  1.1724  3.8406
   89CHL1   H7B 9005   5.173   4.393   7.479  0.1065 -1.0229  0.9411
   89CHL1    C8 9006   5.070   4.221   7.426  0.1324 -0.1876 -0.9707
   89CHL1    H8 9007   5.093   4.115   7.402 -1.3112 -0.8515  0.3881
   89CHL1   C14 9008   5.035   4.224   7.577  0.3154 -0.0573 -0.7477
   89CHL1   H14 9009   5.005   4.330   7.591 -3.0360 -0.8205 -1.2228
   89CHL1   C15 9010   5.144   4.185   7.684  0.3125  0.2728 -0.0728
   89CHL1  H15A 9011   5.181   4.088   7.643  1.8124 -0.0289  1.8358
   89CHL1  H15B 9012   5.229   4.254   7.702  0.5680 -0.8613  3.9903
   89CHL1   C16 9013   5.064   4.160   7.809 -0.2725 -0.0163  0.2303
   89CHL1  H16A 9014   5.093   4.061   7.850  1.5249 -0.3141 -1.5939
   89CHL1  H16B 9015   5.068   4.248   7.877 -1.5560  1.4707 -1.5183
   89CHL1   C17 9016   4.908   4.150   7.768 -0.6096  0.0779 -0.5220
   89CHL1   H17 9017   4.866   4.250   7.792 -0.6960  0.2542 -1.3606
   89CHL1   C13 9018   4.910   4.143   7.615  0.3375 -0.1549 -0.1912
   89CHL1   C18 9019   4.913   3.991   7.572 -0.5914 -0.1943 -0.5217
   89CHL1  H18A 9020   4.992   3.934   7.625 -2.3659 -1.4015  0.9493
   89CHL1  H18B 9021   4.815   3.939   7.586 -0.8660  0.6413  0.8990
   89CHL1  H18C 9022   4.924   3.973   7.463 -2.2053 -0.0842 -0.7379
   89CHL1   C12 9023   4.793   4.209   7.534  0.2548 -0.0102 -0.1728
   89CHL1  H12A 9024   4.700   4.151   7.551 -0.1721  1.2770  2.5166
   89CHL1  H12B 9025   4.798   4.316   7.563  0.3063  0.7897 -2.8719
   89CHL1   C11 9026   4.817   4.204   7.377 -0.1164  0.5712 -0.2252
   89CHL1  H11A 9027   4.815   4.099   7.341  1.2360 -0.2472  1.8496
   89CHL1  H11B 9028   4.729   4.245   7.324  0.3956 -1.0177 -2.4064
   89CHL1    C9 9029   4.950   4.266   7.340 -0.9221 -0.0394  0.2082
   89CHL1    H9 9030   4.935   4.374   7.360  0.8934  0.5053 -1.1380
   89CHL1   C10 9031   4.990   4.272   7.188  0.4996  0.1282  0.1576
   89CHL1   C19 9032   4.980   4.132   7.127  0.5707 -0.6308 -0.1539
   89CHL1  H19A 9033   5.052   4.071   7.185  1.0941 -0.8452 -1.0114
   89CHL1  H19B 9034   4.877   4.091   7.135  0.1337  0.4506  0.0466
   89CHL1  H19C 9035   5.012   4.126   7.021  0.2676 -0.0130 -0.2850
   89CHL1    C1 9036   4.896   4.366   7.115  0.5824 -0.2034  0.5377
   89CHL1   H1A 9037   4.798   4.314   7.108  0.4530 -0.0273  1.0375
   89CHL1   H1B 9038   4.888   4.457   7.178 -0.3937  0.2869 -0.2435
   89CHL1    C2 9039   4.929   4.407   6.971 -0.0198 -0.4733  0.0023
   89CHL1   H2A 9040   4.855   4.480   6.932 -1.9927 -2.7063 -0.7087
   89CHL1   H2B 9041   4.932   4.324   6.897  0.3094 -0.2803 -0.1976
   89CHL1   C20 9042   4.831   4.035   7.843 -0.4058 -0.2673 -0.2643
   89CHL1   H20 9043   4.876   3.937   7.819  1.6091  0.4021  0.5637
   89CHL1   C21 9044   4.681   4.036   7.809 -0.0771 -0.2925  0.0972
   89CHL1  H21A 9045   4.627   4.131   7.828 -1.1510 -1.1910  1.7460
   89CHL1  H21B 9046   4.633   3.963   7.877  0.6823  0.0361  1.0216
   89CHL1  H21C 9047   4.656   4.005   7.705  0.4742  1.8988 -0.7410
   89CHL1   C22 9048   4.857   4.035   7.998 -0.6418 -0.2558  0.4512
   89CHL1  H22A 9049   4.820   3.936   8.033  3.0360 -1.2805  1.8867
   89CHL1  H22B 9050   4.965   4.015   8.015 -0.6582 -0.9754 -0.2215
   89CHL1   C23 9051   4.805   4.156   8.074  0.1134 -0.3332 -0.2005
   89CHL1  H23A 9052   4.858   4.247   8.038  0.5281  0.1564  1.5474
   89CHL1  H23B 9053   4.697   4.168   8.055  0.3762 -0.5902 -1.9683
   89CHL1   C24 9054   4.856   4.171   8.215 -0.2929  0.0041 -0.0125
   89CHL1  H24A 9055   4.817   4.090   8.281  2.1283  0.6012  2.3121
   89CHL1  H24B 9056   4.967   4.171   8.222 -0.3425 -0.8151  1.2548
   89CHL1   C25 9057   4.804   4.299   8.280  0.1922 -0.0790  0.0198
   89CHL1   H25 9058   4.814   4.383   8.209  1.3002  0.0301  0.2874
   89CHL1   C26 9059   4.662   4.276   8.317  0.7809 -0.2528  0.1664
   89CHL1  H26A 9060   4.608   4.367   8.351  2.5215  0.8958 -0.0052
   89CHL1  H26B 9061   4.600   4.250   8.229 -0.7678  0.5983  0.9680
   89CHL1  H26C 9062   4.653   4.186   8.382 -0.8561 -1.2663 -1.3755
   89CHL1   C27 9063   4.895   4.328   8.402  0.8671  0.3031  0.0657
   89CHL1  H27A 9064   5.004   4.329   8.377  1.3736  2.6569  1.9992
   89CHL1  H27B 9065   4.862   4.426   8.443  0.8162  0.4531 -0.3239
   89CHL1  H27C 9066   4.862   4.256   8.479 -1.6361  1.8380  0.5459
   90CHL1    C3 9067   3.685   1.887   6.980 -0.2611  0.1551 -0.1372
   90CHL1    H3 9068   3.583   1.907   7.018  0.6826  1.3111  2.0039
   90CHL1    O3 9069   3.687   1.916   6.841  0.3291 -0.0674 -0.3077
   90CHL1   H3' 9070   3.770   1.893   6.799  0.3819  3.0152 -2.1834
   90CHL1    C4 9071   3.778   1.983   7.064  0.2612  0.0663  0.6941
   90CHL1   H4A 9072   3.883   1.966   7.031 -0.1699 -0.2258 -0.5709
   90CHL1   H4B 9073   3.753   2.082   7.021 -0.9442 -1.0100 -1.2588
   90CHL1    C5 9074   3.758   1.966   7.210 -0.1997  0.0072  0.1992
   90CHL1    C6 9075   3.731   2.056   7.298  0.2763  0.2124  0.1277
   90CHL1    H6 9076   3.732   2.160   7.263  1.3620  0.8524  1.9145
   90CHL1    C7 9077   3.724   2.037   7.450 -0.1170 -0.4409  0.1048
   90CHL1   H7A 9078   3.766   2.124   7.504 -0.2661 -0.5620  0.4162
   90CHL1   H7B 9079   3.621   2.037   7.492 -0.7642  0.3593 -1.3951
   90CHL1    C8 9080   3.771   1.896   7.499 -0.3487 -0.1047  0.0805
   90CHL1    H8 9081   3.881   1.890   7.490 -0.3814 -2.0090  0.5965
   90CHL1   C14 9082   3.738   1.875   7.643  0.4493 -0.2264 -0.1841
   90CHL1   H14 9083   3.627   1.878   7.643  0.3954 -1.7005 -0.5287
   90CHL1   C15 9084   3.779   1.979   7.746 -0.3452  0.0985 -0.2094
   90CHL1  H15A 9085   3.888   1.996   7.735 -0.0573 -2.3048 -1.9485
   90CHL1  H15B 9086   3.723   2.074   7.737 -3.8326 -1.6762  0.7239
   90CHL1   C16 9087   3.730   1.918   7.880  0.2646  0.8504  0.5535
   90CHL1  H16A 9088   3.804   1.952   7.956 -1.9003  0.6006  2.8938
   90CHL1  H16B 9089   3.628   1.953   7.907 -0.2521 -1.4401  1.8269
   90CHL1   C17 9090   3.723   1.763   7.850  0.4269 -0.1412  0.4094
   90CHL1   H17 9091   3.615   1.747   7.835  0.2298  2.9832 -2.6243
   90CHL1   C13 9092   3.775   1.743   7.706 -0.5261  0.0778  0.3348
   90CHL1   C18 9093   3.926   1.729   7.705  0.2088 -0.0674  0.8171
   90CHL1  H18A 9094   3.961   1.755   7.602 -0.8100  1.3344  0.8019
   90CHL1  H18B 9095   3.976   1.796   7.778 -1.4100  3.1618 -0.8191
   90CHL1  H18C 9096   3.946   1.621   7.721 -2.8042 -0.7131  0.6968
   90CHL1   C12 9097   3.704   1.636   7.620 -0.1346  0.3280 -0.3170
   90CHL1  H12A 9098   3.720   1.533   7.658 -2.5816  0.7565  2.1774
   90CHL1  H12B 9099   3.594   1.649   7.635 -0.0392  0.8860 -0.0830
   90CHL1   C11 9100   3.737   1.647   7.467  0.9788  0.0510  0.2023
   90CHL1  H11A 9101   3.844   1.616   7.461  0.6389 -0.9180 -1.3817
   90CHL1  H11B 9102   3.673   1.576   7.411  0.6522  1.5789 -1.4508
   90CHL1    C9 9103   3.717   1.790   7.406  0.7028  0.5849 -1.1020
   90CHL1    H9 9104   3.607   1.803   7.406  0.5908 -0.2332 -0.3043
   90CHL1   C10 9105   3.766   1.812   7.253 -1.1016 -0.1556 -0.3656
   90CHL1   C19 9106   3.922   1.783   7.246 -0.3491  0.2499  0.0343
   90CHL1  H19A 9107   3.966   1.815   7.150  1.0321  2.7845  1.4247
   90CHL1  H19B 9108   3.974   1.831   7.331 -0.9413 -1.4270  1.4196
   90CHL1  H19C 9109   3.928   1.672   7.257 -2.1947  0.2150  1.0969
   90CHL1    C1 9110   3.691   1.717   7.160 -0.3892  0.6518 -0.5409
   90CHL1   H1A 9111   3.732   1.617   7.185 -0.9538  0.6493  0.4212
   90CHL1   H1B 9112   3.582   1.722   7.178 -0.7808  3.0631 -2.8046
   90CHL1    C2 9113   3.711   1.740   7.011 -0.3336 -0.8212 -0.4301
   90CHL1   H2A 9114   3.635   1.676   6.960  0.4099 -0.8126 -1.5834
   90CHL1   H2B 9115   3.813   1.701   6.989  0.7654  1.0401  1.0546
   90CHL1   C20 9116   3.791   1.674   7.954 -0.7646 -0.4838 -1.0166
   90CHL1   H20 9117   3.900   1.694   7.962 -0.7461 -0.9981  0.3336
   90CHL1   C21 9118   3.759   1.518   7.941 -0.3425 -0.0544  0.5192
   90CHL1  H21A 9119   3.796   1.460   8.028 -2.3473  1.9499  2.8523
   90CHL1  H21B 9120   3.812   1.490   7.847 -1.4400  4.2564 -1.6569
   90CHL1  H21C 9121   3.649   1.505   7.930 -0.2492 -0.2343 -0.2298
   90CHL1   C22 9122   3.762   1.722   8.102 -0.4420 -0.6780  0.2260
   90CHL1  H22A 9123   3.812   1.651   8.170  0.1819 -1.6839 -1.2419
   90CHL1  H22B 9124   3.819   1.816   8.117 -0.8546 -0.4325  0.2899
   90CHL1   C23 9125   3.621   1.738   8.146  0.2638 -0.3333 -0.3797
   90CHL1  H23A 9126   3.576   1.824   8.093  2.6771  0.8967 -0.5551
   90CHL1  H23B 9127   3.563   1.652   8.106 -2.1980  0.5858  0.9972
   90CHL1   C24 9128   3.613   1.750   8.301 -0.5675  0.1874  0.4824
   90CHL1  H24A 9129   3.668   1.660   8.336 -0.3439 -0.1076 -0.5754
   90CHL1  H24B 9130   3.667   1.845   8.322 -1.2370  0.6780  0.0144
   90CHL1   C25 9131   3.469   1.756   8.365 -0.1388  0.3892  0.5784
   90CHL1   H25 9132   3.486   1.775   8.473 -0.1934  1.7292  0.3706
   90CHL1   C26 9133   3.396   1.882   8.313 -0.5631  0.1538 -0.3953
   90CHL1  H26A 9134   3.455   1.970   8.346 -0.4672  0.1924 -0.6638
   90CHL1  H26B 9135   3.397   1.885   8.202  0.5459  2.6849 -0.3725
   90CHL1  H26C 9136   3.294   1.894   8.356 -0.3094 -0.9823  0.5885
   90CHL1   C27 9137   3.388   1.626   8.346 -0.4116  0.1836  0.2072
   90CHL1  H27A 9138   3.283   1.647   8.375 -0.3035  2.6875 -0.9131
   90CHL1  H27B 9139   3.382   1.600   8.238 -0.1505  1.5864 -0.1698
   90CHL1  H27C 9140   3.425   1.541   8.406  0.2511 -0.4424 -1.0446
   91CHL1    C3 9141   0.712   1.668   7.185 -0.1518 -0.1281  0.4767
   91CHL1    H3 9142   0.820   1.694   7.193 -0.7982  3.3184 -0.4719
   91CHL1    O3 9143   0.692   1.647   7.046  0.8263  0.4134 -0.3223
   91CHL1   H3' 9144   0.609   1.685   7.015 -0.4945 -2.0336 -0.0511
   91CHL1    C4 9145   0.668   1.548   7.265  0.0778 -0.3396  0.4882
   91CHL1   H4A 9146   0.558   1.534   7.254  0.2119 -0.6834 -0.4838
   91CHL1   H4B 9147   0.727   1.470   7.213 -0.9802 -0.7889 -0.0520
   91CHL1    C5 9148   0.690   1.571   7.416 -0.7502 -0.4372 -0.3941
   91CHL1    C6 9149   0.775   1.497   7.494  0.5547 -0.0684  0.6118
   91CHL1    H6 9150   0.833   1.418   7.445  2.2386  2.0998 -1.1259
   91CHL1    C7 9151   0.794   1.510   7.641 -1.0233 -0.6763  0.7037
   91CHL1   H7A 9152   0.776   1.409   7.684  0.1697 -0.8783  0.7484
   91CHL1   H7B 9153   0.897   1.538   7.668 -1.1187  0.3679  0.0492
   91CHL1    C8 9154   0.683   1.608   7.700  0.4341 -1.6077 -0.4582
   91CHL1    H8 9155   0.594   1.541   7.708 -0.1302 -0.6661  2.2087
   91CHL1   C14 9156   0.725   1.652   7.840 -0.1523  0.1209 -0.0604
   91CHL1   H14 9157   0.809   1.723   7.826  0.5455 -0.3010  1.7479
   91CHL1   C15 9158   0.767   1.547   7.941 -0.5287  0.5362  0.6294
   91CHL1  H15A 9159   0.707   1.453   7.936 -0.1419  0.2937  0.4928
   91CHL1  H15B 9160   0.877   1.530   7.948 -0.7468 -1.4498  0.0082
   91CHL1   C16 9161   0.741   1.609   8.084  0.3465  0.2255  0.2271
   91CHL1  H16A 9162   0.667   1.547   8.139  1.2498  0.2582  1.5488
   91CHL1  H16B 9163   0.831   1.605   8.150 -0.0924  2.6020  1.0761
   91CHL1   C17 9164   0.688   1.753   8.058  0.5416  0.3779 -0.1705
   91CHL1   H17 9165   0.784   1.809   8.047  1.1084 -0.6285 -0.5614
   91CHL1   C13 9166   0.620   1.745   7.920  0.2827 -0.3005  0.8871
   91CHL1   C18 9167   0.485   1.661   7.936 -0.6861  0.3248 -0.1445
   91CHL1  H18A 9168   0.421   1.701   8.018 -0.0420 -0.6749  0.8878
   91CHL1  H18B 9169   0.422   1.648   7.846  1.6977 -1.2197 -1.6976
   91CHL1  H18C 9170   0.510   1.553   7.949 -0.1400  0.5687  0.9670
   91CHL1   C12 9171   0.600   1.874   7.837  0.7865  0.0485  0.1882
   91CHL1  H12A 9172   0.520   1.937   7.881  1.8812  1.8509 -0.2798
   91CHL1  H12B 9173   0.698   1.926   7.841  2.6297 -3.2550  1.8121
   91CHL1   C11 9174   0.553   1.831   7.697 -0.3348  0.5847 -0.4006
   91CHL1  H11A 9175   0.463   1.766   7.700  0.7349 -0.9639 -0.6963
   91CHL1  H11B 9176   0.535   1.925   7.641 -2.9627 -0.0270 -0.6872
   91CHL1    C9 9177   0.646   1.727   7.619  0.5247 -0.5502  0.2492
   91CHL1    H9 9178   0.740   1.785   7.602 -0.6139  0.8026 -1.7925
   91CHL1   C10 9179   0.606   1.691   7.471  0.6060  0.5172 -0.3169
   91CHL1   C19 9180   0.458   1.656   7.471  0.7654 -0.1303 -0.1554
   91CHL1  H19A 9181   0.444   1.565   7.533  0.2785 -0.1773 -0.3280
   91CHL1  H19B 9182   0.398   1.743   7.506 -0.6960 -0.8880 -0.6875
   91CHL1  H19C 9183   0.423   1.643   7.367 -1.3964  1.5274  0.2977
   91CHL1    C1 9184   0.650   1.809   7.377 -0.2529 -0.3996 -0.0026
   91CHL1   H1A 9185   0.600   1.898   7.422 -1.8793 -0.4231 -1.6550
   91CHL1   H1B 9186   0.756   1.837   7.393 -0.4442  0.5999 -0.4363
   91CHL1    C2 9187   0.641   1.797   7.227  0.0599  0.0198 -0.4389
   91CHL1   H2A 9188   0.684   1.881   7.169  0.7698  0.5459  0.7965
   91CHL1   H2B 9189   0.533   1.798   7.202 -0.2042  1.3846  0.6420
   91CHL1   C20 9190   0.597   1.802   8.179 -0.2970 -0.5192 -0.2486
   91CHL1   H20 9191   0.515   1.727   8.186  0.1547 -1.0228 -0.3971
   91CHL1   C21 9192   0.535   1.944   8.147  0.3688  0.0814  0.2507
   91CHL1  H21A 9193   0.458   1.933   8.068 -1.1901 -3.1698  1.9983
   91CHL1  H21B 9194   0.618   2.012   8.117  1.6327 -0.1003  3.0742
   91CHL1  H21C 9195   0.493   2.003   8.231 -2.8044  0.0377 -1.1585
   91CHL1   C22 9196   0.666   1.802   8.319 -0.2087  0.4066  0.3776
   91CHL1  H22A 9197   0.597   1.822   8.403  1.7988 -0.3591  2.3035
   91CHL1  H22B 9198   0.692   1.696   8.342  0.1064  0.5058  0.4744
   91CHL1   C23 9199   0.792   1.894   8.337  1.1089 -0.2036 -0.0251
   91CHL1  H23A 9200   0.875   1.867   8.268  1.7370 -0.0112  0.6384
   91CHL1  H23B 9201   0.765   2.001   8.321  1.8471 -0.1688 -1.1185
   91CHL1   C24 9202   0.847   1.870   8.481  0.1909 -1.0378  0.4217
   91CHL1  H24A 9203   0.770   1.849   8.558 -0.2677  0.2593  0.3473
   91CHL1  H24B 9204   0.919   1.786   8.473 -0.5504 -1.7907  1.4035
   91CHL1   C25 9205   0.942   1.991   8.527 -0.2790  0.0892 -0.3845
   91CHL1   H25 9206   0.878   2.078   8.554 -1.0196 -0.9109  1.2259
   91CHL1   C26 9207   1.010   1.940   8.656  0.3562 -0.1518  0.8761
   91CHL1  H26A 9208   1.090   2.015   8.676  1.8699 -1.2160 -0.8768
   91CHL1  H26B 9209   0.937   1.942   8.740 -0.2163  0.3853  0.3742
   91CHL1  H26C 9210   1.059   1.840   8.651 -0.9019 -0.9632  3.0338
   91CHL1   C27 9211   1.046   2.048   8.425  0.0208 -0.3813 -0.4670
   91CHL1  H27A 9212   1.126   2.104   8.477 -3.1623  1.8180  2.4499
   91CHL1  H27B 9213   1.083   1.963   8.364 -0.7457 -0.5039 -0.7625
   91CHL1  H27C 9214   0.997   2.116   8.352  0.3421 -1.0156 -1.2892
   92CHL1    C3 9215   2.825   3.306   6.763 -0.5666 -0.5722 -0.9788
   92CHL1    H3 9216   2.738   3.368   6.791  0.0474  0.8937 -2.1104
   92CHL1    O3 9217   2.858   3.331   6.627 -0.2677  0.4622  0.1248
   92CHL1   H3' 9218   2.855   3.241   6.593 -1.3921  0.1984  0.8686
   92CHL1    C4 9219   2.942   3.357   6.847  0.0420 -0.0103  0.1256
   92CHL1   H4A 9220   3.032   3.313   6.799 -0.5338 -0.9863 -0.0705
   92CHL1   H4B 9221   2.949   3.465   6.821 -0.5619 -0.0482 -0.2171
   92CHL1    C5 9222   2.928   3.327   6.996 -0.4812  0.2846 -0.4355
   92CHL1    C6 9223   2.935   3.421   7.091  0.5825  0.9760  0.0739
   92CHL1    H6 9224   2.962   3.522   7.058  4.0832  0.4443  0.9801
   92CHL1    C7 9225   2.920   3.402   7.238  0.1121 -0.9177 -0.0870
   92CHL1   H7A 9226   2.987   3.466   7.298 -0.0683 -0.5928 -0.2319
   92CHL1   H7B 9227   2.817   3.434   7.264  0.2330  0.4417 -1.1838
   92CHL1    C8 9228   2.938   3.252   7.281  0.2886  0.2140 -0.1813
   92CHL1    H8 9229   3.046   3.227   7.282  0.0705 -0.7940 -0.2375
   92CHL1   C14 9230   2.887   3.227   7.425  0.2864 -0.6195  0.2305
   92CHL1   H14 9231   2.782   3.265   7.421 -0.0348 -1.5049 -0.0714
   92CHL1   C15 9232   2.945   3.310   7.547  0.2681  0.2025 -0.0530
   92CHL1  H15A 9233   3.053   3.293   7.529  0.1430 -1.3758  0.6314
   92CHL1  H15B 9234   2.920   3.417   7.528 -0.2162 -0.3316 -2.8814
   92CHL1   C16 9235   2.915   3.231   7.669 -0.5782 -0.3697  0.1153
   92CHL1  H16A 9236   3.013   3.214   7.718 -0.3556  0.1096 -0.1577
   92CHL1  H16B 9237   2.854   3.284   7.745  1.3987 -0.2038  1.6887
   92CHL1   C17 9238   2.847   3.092   7.625  0.4109 -0.3530  0.1092
   92CHL1   H17 9239   2.740   3.121   7.626  0.6174  0.4156  0.1798
   92CHL1   C13 9240   2.890   3.079   7.474 -0.3725 -0.4255 -0.3246
   92CHL1   C18 9241   3.037   3.028   7.476 -0.3504  0.1317  0.5710
   92CHL1  H18A 9242   3.101   3.074   7.555  2.4778  0.9967 -2.0366
   92CHL1  H18B 9243   3.038   2.917   7.479 -0.7901 -0.0086 -2.1947
   92CHL1  H18C 9244   3.087   3.043   7.378 -2.2116 -2.4931 -0.9045
   92CHL1   C12 9245   2.806   3.001   7.377 -0.0611  0.0675 -0.0079
   92CHL1  H12A 9246   2.787   2.894   7.404  0.7462 -0.2302 -0.5977
   92CHL1  H12B 9247   2.706   3.048   7.386  0.1515  0.5708 -0.2605
   92CHL1   C11 9248   2.854   3.015   7.239  0.2284 -0.6198 -0.2399
   92CHL1  H11A 9249   2.954   2.970   7.219  0.4736  0.4266 -1.5989
   92CHL1  H11B 9250   2.784   2.963   7.170 -2.0627 -0.9565  2.1886
   92CHL1    C9 9251   2.853   3.163   7.187 -0.1538 -0.2313  0.2095
   92CHL1    H9 9252   2.750   3.204   7.187  0.3377  1.0256 -0.2379
   92CHL1   C10 9253   2.895   3.176   7.035  0.5781 -0.1758 -0.0307
   92CHL1   C19 9254   3.016   3.087   7.000  0.2691  1.1402 -0.3346
   92CHL1  H19A 9255   2.980   2.982   7.004 -0.3385  1.3028 -1.1006
   92CHL1  H19B 9256   3.047   3.095   6.893 -1.5809 -0.0082 -1.0033
   92CHL1  H19C 9257   3.104   3.099   7.066  1.2734 -0.5281 -1.2857
   92CHL1    C1 9258   2.773   3.134   6.943 -0.1259  0.3368 -0.0568
   92CHL1   H1A 9259   2.749   3.026   6.959  2.2803 -0.3519 -0.7236
   92CHL1   H1B 9260   2.680   3.184   6.979  0.1395  1.6878 -1.1708
   92CHL1    C2 9261   2.796   3.160   6.791  0.0408  0.4250  0.0722
   92CHL1   H2A 9262   2.709   3.133   6.729 -0.6191  0.2763  1.0412
   92CHL1   H2B 9263   2.876   3.093   6.751 -0.9406 -0.3422 -0.6389
   92CHL1   C20 9264   2.873   2.987   7.732 -0.0684 -0.3620 -0.0290
   92CHL1   H20 9265   2.981   2.961   7.735  0.3284  1.2817  1.1995
   92CHL1   C21 9266   2.791   2.864   7.690 -0.5957  0.4642  0.1057
   92CHL1  H21A 9267   2.684   2.893   7.682 -0.7422  0.4942  1.8178
   92CHL1  H21B 9268   2.799   2.780   7.763  0.3114  3.0208  3.2204
   92CHL1  H21C 9269   2.823   2.827   7.590 -0.5725 -1.6987  0.8677
   92CHL1   C22 9270   2.841   3.031   7.875 -0.4249  0.2019 -0.3488
   92CHL1  H22A 9271   2.915   3.110   7.900 -1.6488  1.1048  0.5439
   92CHL1  H22B 9272   2.744   3.083   7.893  0.7379  1.6774  2.1854
   92CHL1   C23 9273   2.867   2.923   7.987 -0.3644 -0.1573  0.8191
   92CHL1  H23A 9274   2.806   2.834   7.962 -0.4360  0.3560 -0.9681
   92CHL1  H23B 9275   2.974   2.901   8.006 -0.5742 -2.1837 -0.1840
   92CHL1   C24 9276   2.816   2.976   8.118 -0.4461  0.2925 -0.6927
   92CHL1  H24A 9277   2.875   3.068   8.141  1.9425 -0.9275 -1.5468
   92CHL1  H24B 9278   2.708   2.999   8.112  0.1061  3.0731 -1.7929
   92CHL1   C25 9279   2.838   2.881   8.238  0.0377  0.5770 -0.3964
   92CHL1   H25 9280   2.948   2.895   8.247  0.1423  0.5389 -1.4917
   92CHL1   C26 9281   2.785   2.939   8.372 -0.5149  0.2255 -0.4565
   92CHL1  H26A 9282   2.808   2.863   8.449 -0.9585  1.7198  1.2210
   92CHL1  H26B 9283   2.835   3.034   8.399 -0.5652  0.3882 -0.9261
   92CHL1  H26C 9284   2.676   2.961   8.371 -0.4842  0.5626  1.2479
   92CHL1   C27 9285   2.799   2.736   8.217  0.0396 -0.5489  0.5607
   92CHL1  H27A 9286   2.693   2.733   8.183 -0.0897  0.5744  0.8347
   92CHL1  H27B 9287   2.858   2.705   8.128 -1.5494  0.9257 -1.0942
   92CHL1  H27C 9288   2.818   2.670   8.304 -1.2654 -2.5735 -0.6211
   93CHL1    C3 9289   0.532   0.684   6.808 -1.0585 -0.6043  0.0660
   93CHL1    H3 9290   0.459   0.602   6.820 -2.0249  0.0861 -0.8938
   93CHL1    O3 9291   0.544   0.719   6.675 -0.0543 -0.4479  0.8512
   93CHL1   H3' 9292   0.587   0.650   6.624 -2.4058 -0.4618 -1.2991
   93CHL1    C4 9293   0.506   0.809   6.893 -0.3325  0.1902 -0.0304
   93CHL1   H4A 9294   0.594   0.876   6.887  0.8408 -1.2584  0.4180
   93CHL1   H4B 9295   0.418   0.856   6.843  0.4227  2.2247  0.4271
   93CHL1    C5 9296   0.485   0.767   7.035 -0.1032  0.1319 -0.7827
   93CHL1    C6 9297   0.363   0.789   7.091  0.8068 -0.4313  0.0312
   93CHL1    H6 9298   0.279   0.816   7.025 -0.2864  1.4416  2.0728
   93CHL1    C7 9299   0.337   0.751   7.236 -0.0263  0.4950  0.7429
   93CHL1   H7A 9300   0.294   0.848   7.271  1.2031  0.9018  1.1719
   93CHL1   H7B 9301   0.258   0.674   7.232 -0.1633  0.6929 -1.9449
   93CHL1    C8 9302   0.461   0.718   7.313 -0.0040  0.3767 -0.2277
   93CHL1    H8 9303   0.515   0.812   7.333  1.3482 -0.6474  1.1121
   93CHL1   C14 9304   0.414   0.654   7.447  0.7508 -0.0778 -0.0748
   93CHL1   H14 9305   0.359   0.562   7.418  0.1252 -0.7301  2.8826
   93CHL1   C15 9306   0.319   0.735   7.527  0.5591 -0.2786  0.4895
   93CHL1  H15A 9307   0.361   0.838   7.528  1.5112 -0.6274 -0.8232
   93CHL1  H15B 9308   0.213   0.739   7.493  1.0783  2.6596 -1.0931
   93CHL1   C16 9309   0.317   0.661   7.660 -0.9066 -0.7640  0.1835
   93CHL1  H16A 9310   0.326   0.737   7.741  2.5439 -1.4277  0.5851
   93CHL1  H16B 9311   0.225   0.599   7.670 -0.4377 -1.4078  0.5898
   93CHL1   C17 9312   0.440   0.565   7.661  0.3862 -0.1625 -0.1834
   93CHL1   H17 9313   0.404   0.460   7.647 -0.3250 -0.1898  1.6149
   93CHL1   C13 9314   0.525   0.607   7.544 -0.2578  0.1106 -0.1719
   93CHL1   C18 9315   0.612   0.728   7.581  0.4177  0.0554 -0.4511
   93CHL1  H18A 9316   0.707   0.700   7.630  0.6627  0.8454 -0.4654
   93CHL1  H18B 9317   0.633   0.789   7.490  1.9441 -1.3102 -1.0575
   93CHL1  H18C 9318   0.558   0.796   7.651  0.4057  0.3940 -0.7833
   93CHL1   C12 9319   0.606   0.504   7.469  0.0283  0.0620 -0.5975
   93CHL1  H12A 9320   0.698   0.484   7.528  0.0453 -0.0634 -0.6660
   93CHL1  H12B 9321   0.557   0.405   7.458 -0.6933  0.5978 -2.5356
   93CHL1   C11 9322   0.657   0.555   7.328 -0.5550  0.6045  0.2700
   93CHL1  H11A 9323   0.729   0.632   7.363 -1.5441  1.1259  1.2238
   93CHL1  H11B 9324   0.714   0.480   7.269 -0.1167 -0.2846  1.7537
   93CHL1    C9 9325   0.547   0.619   7.237 -1.3321 -0.1005 -0.1151
   93CHL1    H9 9326   0.490   0.530   7.202 -1.4116  0.0089 -0.2644
   93CHL1   C10 9327   0.602   0.687   7.106 -0.5669 -0.5738 -0.0630
   93CHL1   C19 9328   0.718   0.778   7.140 -0.8744  0.0146  0.0135
   93CHL1  H19A 9329   0.756   0.829   7.049 -1.6333 -0.6224 -0.6767
   93CHL1  H19B 9330   0.689   0.848   7.221  1.2708  1.6950 -0.5765
   93CHL1  H19C 9331   0.806   0.721   7.176  0.3881  0.8039 -1.6708
   93CHL1    C1 9332   0.656   0.582   7.006 -0.1142  0.1849 -0.3645
   93CHL1   H1A 9333   0.752   0.543   7.044  0.1355  0.9865 -0.1595
   93CHL1   H1B 9334   0.600   0.487   7.021 -0.9168  0.6618 -0.2362
   93CHL1    C2 9335   0.669   0.632   6.858  0.3988  0.1445 -0.2512
   93CHL1   H2A 9336   0.703   0.555   6.786  0.4318  1.6715 -1.9375
   93CHL1   H2B 9337   0.748   0.711   6.856  0.9905 -0.1133  4.1307
   93CHL1   C20 9338   0.515   0.553   7.795 -0.1677 -0.1847 -0.1448
   93CHL1   H20 9339   0.561   0.652   7.813 -1.6973  0.6665 -0.7007
   93CHL1   C21 9340   0.627   0.449   7.789  0.0204 -0.5310 -0.1243
   93CHL1  H21A 9341   0.661   0.415   7.890  0.9260 -0.1821 -0.2977
   93CHL1  H21B 9342   0.714   0.475   7.726  0.4017  2.2529  1.3586
   93CHL1  H21C 9343   0.582   0.358   7.745  1.5333 -1.0949 -0.5554
   93CHL1   C22 9344   0.439   0.526   7.928  0.0455  0.4548  0.0017
   93CHL1  H22A 9345   0.504   0.510   8.016  0.8805  0.0476 -0.6716
   93CHL1  H22B 9346   0.374   0.617   7.938  0.3370  0.6391  0.2201
   93CHL1   C23 9347   0.344   0.407   7.921 -0.3142 -0.3263 -0.3588
   93CHL1  H23A 9348   0.259   0.417   7.850  0.1076 -1.6715 -1.1015
   93CHL1  H23B 9349   0.404   0.315   7.901 -1.3750 -1.2993  0.7933
   93CHL1   C24 9350   0.266   0.378   8.053  0.8123  0.2548 -0.2624
   93CHL1  H24A 9351   0.330   0.367   8.144 -0.8215  1.4614  1.1094
   93CHL1  H24B 9352   0.199   0.463   8.077  1.0560  0.9529 -1.9531
   93CHL1   C25 9353   0.181   0.250   8.047 -0.1937  0.0973 -0.8001
   93CHL1   H25 9354   0.224   0.199   7.958  1.9253  1.4088 -0.5887
   93CHL1   C26 9355   0.191   0.172   8.181 -0.4661 -0.1397 -0.6144
   93CHL1  H26A 9356   0.294   0.168   8.222 -0.8734  0.5890  0.5349
   93CHL1  H26B 9357   0.121   0.213   8.257  0.8718 -1.4355  1.4254
   93CHL1  H26C 9358   0.147   0.072   8.163 -3.9840  1.2238 -0.3970
   93CHL1   C27 9359   0.034   0.265   8.010  0.3281  0.0169  0.2077
   93CHL1  H27A 9360   0.026   0.335   7.924  2.1684  1.1912  0.9337
   93CHL1  H27B 9361  -0.010   0.172   7.968  2.5008 -0.7795 -0.4312
   93CHL1  H27C 9362  -0.030   0.306   8.092  1.2107  0.4807  0.6722
   94CHL1    C3 9363   3.509   0.988   6.818 -0.3680 -0.3570 -0.2734
   94CHL1    H3 9364   3.406   0.993   6.860  0.1989  4.5955  1.1560
   94CHL1    O3 9365   3.513   0.978   6.680  0.0772 -0.5699  0.1516
   94CHL1   H3' 9366   3.605   0.965   6.655  0.0136  0.2404 -0.5581
   94CHL1    C4 9367   3.570   1.122   6.858  0.2226  0.1341 -0.1180
   94CHL1   H4A 9368   3.678   1.129   6.834 -0.1997  1.9561 -1.7191
   94CHL1   H4B 9369   3.515   1.200   6.802  0.0525  2.0136  2.4785
   94CHL1    C5 9370   3.560   1.139   7.009 -0.3908 -0.2339  0.1951
   94CHL1    C6 9371   3.486   1.238   7.068  0.3483 -0.6640  0.2903
   94CHL1    H6 9372   3.426   1.308   7.009  1.2773  0.1322  0.2580
   94CHL1    C7 9373   3.484   1.259   7.211  0.4360  0.0883  0.6997
   94CHL1   H7A 9374   3.495   1.367   7.236 -0.2653  0.4330 -0.4388
   94CHL1   H7B 9375   3.384   1.236   7.254  0.0060  0.2517 -0.2011
   94CHL1    C8 9376   3.589   1.179   7.294 -0.2350 -0.1285 -0.1080
   94CHL1    H8 9377   3.686   1.227   7.272  0.5845 -2.5114 -2.1782
   94CHL1   C14 9378   3.557   1.178   7.444  0.5216  0.7456  0.3359
   94CHL1   H14 9379   3.454   1.142   7.464  0.7627  0.7591  1.6799
   94CHL1   C15 9380   3.554   1.311   7.530  0.3717  0.0489  0.0944
   94CHL1  H15A 9381   3.644   1.368   7.496 -0.3216  1.9372  1.2292
   94CHL1  H15B 9382   3.462   1.371   7.516 -0.3828 -1.1615 -0.2576
   94CHL1   C16 9383   3.572   1.275   7.679 -0.2095 -0.3849  0.3741
   94CHL1  H16A 9384   3.644   1.352   7.715 -1.4774  1.0968 -0.1101
   94CHL1  H16B 9385   3.474   1.290   7.730 -0.5531 -0.7184 -0.1824
   94CHL1   C17 9386   3.622   1.123   7.674  0.5357  0.7467  0.1964
   94CHL1   H17 9387   3.524   1.074   7.694  0.8103 -0.1801 -0.6484
   94CHL1   C13 9388   3.655   1.096   7.528 -0.5262  0.4450 -0.5301
   94CHL1   C18 9389   3.809   1.143   7.527  1.0268  0.8327 -0.0453
   94CHL1  H18A 9390   3.869   1.133   7.434 -2.1586  1.6167 -2.3402
   94CHL1  H18B 9391   3.829   1.239   7.579  0.6030  0.6356  0.4942
   94CHL1  H18C 9392   3.867   1.070   7.588  0.1054 -0.3893 -0.5988
   94CHL1   C12 9393   3.633   0.943   7.482 -0.2743  0.4037 -0.7031
   94CHL1  H12A 9394   3.695   0.871   7.539  1.6486  1.0660 -1.8793
   94CHL1  H12B 9395   3.528   0.923   7.512  0.0755  1.0564  1.1405
   94CHL1   C11 9396   3.682   0.938   7.339  0.9966 -0.7706  0.1518
   94CHL1  H11A 9397   3.786   0.978   7.338  1.5511 -2.1291  0.2516
   94CHL1  H11B 9398   3.679   0.833   7.301  2.3160  0.2109 -2.9397
   94CHL1    C9 9399   3.588   1.034   7.250  0.0473  0.0993  0.2559
   94CHL1    H9 9400   3.484   1.001   7.265 -0.6672  1.6942 -0.9264
   94CHL1   C10 9401   3.623   1.026   7.096  0.0282 -0.2228 -0.6857
   94CHL1   C19 9402   3.779   1.041   7.080  0.2716 -0.4721  0.0279
   94CHL1  H19A 9403   3.814   1.137   7.124  1.2537 -1.7676  2.2357
   94CHL1  H19B 9404   3.834   0.959   7.131  3.5344  1.5550  0.0845
   94CHL1  H19C 9405   3.819   1.038   6.977 -0.2068 -1.1335 -0.1483
   94CHL1    C1 9406   3.585   0.894   7.037 -0.6447  1.2311 -0.3642
   94CHL1   H1A 9407   3.644   0.812   7.084  0.5824  2.3361  0.0858
   94CHL1   H1B 9408   3.480   0.866   7.060 -0.3708  0.9699  0.6365
   94CHL1    C2 9409   3.595   0.882   6.888 -0.2278  0.7686 -0.2830
   94CHL1   H2A 9410   3.548   0.789   6.849 -1.5952  0.9083  0.9193
   94CHL1   H2B 9411   3.699   0.886   6.851 -1.0693  1.8929 -2.7545
   94CHL1   C20 9412   3.716   1.088   7.792  0.3479 -0.4952 -0.1237
   94CHL1   H20 9413   3.815   1.139   7.785  0.8952 -1.5567 -0.3706
   94CHL1   C21 9414   3.738   0.937   7.804  0.3117 -0.4137 -0.4773
   94CHL1  H21A 9415   3.803   0.896   7.723 -0.2725  2.3687 -2.4989
   94CHL1  H21B 9416   3.635   0.896   7.803 -0.6600  1.8403 -1.7273
   94CHL1  H21C 9417   3.787   0.913   7.901 -1.4076 -1.5225  0.1521
   94CHL1   C22 9418   3.657   1.137   7.926  0.4301  0.4351  0.1021
   94CHL1  H22A 9419   3.616   1.240   7.924 -1.6458 -0.3242  0.8149
   94CHL1  H22B 9420   3.575   1.068   7.953  1.5318 -0.5533  1.0454
   94CHL1   C23 9421   3.758   1.157   8.052  0.5156  0.0329  0.4052
   94CHL1  H23A 9422   3.796   1.055   8.073 -1.7796 -1.0292 -0.2676
   94CHL1  H23B 9423   3.844   1.219   8.020 -0.9626 -0.3290 -5.5577
   94CHL1   C24 9424   3.682   1.206   8.177 -0.5067  0.0074  0.6424
   94CHL1  H24A 9425   3.642   1.308   8.157 -1.0954 -0.1905  0.8194
   94CHL1  H24B 9426   3.601   1.135   8.203  0.6659 -1.9989 -0.9259
   94CHL1   C25 9427   3.771   1.214   8.304 -0.2621  0.9802 -0.1833
   94CHL1   H25 9428   3.829   1.123   8.328 -0.7348  0.6184 -0.3904
   94CHL1   C26 9429   3.877   1.325   8.294 -0.2588  1.0860 -0.0293
   94CHL1  H26A 9430   3.953   1.289   8.222 -1.4586  0.3707 -0.9589
   94CHL1  H26B 9431   3.828   1.415   8.251 -0.9278 -0.8187 -3.5451
   94CHL1  H26C 9432   3.933   1.345   8.389 -1.8774 -2.0189  1.7242
   94CHL1   C27 9433   3.687   1.236   8.426  0.7103  0.7511  0.7521
   94CHL1  H27A 9434   3.745   1.220   8.520  2.9784 -2.9813 -1.0611
   94CHL1  H27B 9435   3.647   1.339   8.431 -0.9044  0.2749 -1.1246
   94CHL1  H27C 9436   3.615   1.151   8.430  2.0242 -0.6635 -2.4895
   95CHL1    C3 9437   2.980   2.630   6.564 -0.3022  0.2485  0.0793
   95CHL1    H3 9438   3.068   2.561   6.562  0.8156  1.6398 -1.4348
   95CHL1    O3 9439   2.954   2.674   6.437 -0.0634 -0.2373  0.2048
   95CHL1   H3' 9440   3.043   2.698   6.409 -0.3584 -0.2895 -0.7989
   95CHL1    C4 9441   2.862   2.553   6.627  0.5735  0.2207 -0.6719
   95CHL1   H4A 9442   2.775   2.619   6.606  0.7934 -0.2449 -3.3871
   95CHL1   H4B 9443   2.834   2.467   6.563 -0.0455  0.5230 -0.8213
   95CHL1    C5 9444   2.875   2.521   6.774  0.5087 -0.0184 -0.4115
   95CHL1    C6 9445   2.871   2.391   6.816  0.2620  0.1115 -0.2551
   95CHL1    H6 9446   2.871   2.304   6.749  0.0497  0.3046 -0.5088
   95CHL1    C7 9447   2.878   2.355   6.961 -0.2404  0.3535 -0.1744
   95CHL1   H7A 9448   2.792   2.290   6.989  1.1217 -0.6233  2.0253
   95CHL1   H7B 9449   2.974   2.300   6.973 -0.6640 -0.1839  0.8536
   95CHL1    C8 9450   2.885   2.476   7.061 -0.1239  0.5408  0.8090
   95CHL1    H8 9451   2.779   2.507   7.070 -0.5155 -0.8987  1.5860
   95CHL1   C14 9452   2.947   2.432   7.192 -0.0333 -0.7601 -0.5295
   95CHL1   H14 9453   3.055   2.420   7.170  0.1121  0.9383 -0.8430
   95CHL1   C15 9454   2.904   2.298   7.258  0.3262 -0.1266 -0.4458
   95CHL1  H15A 9455   2.795   2.287   7.241  0.6634  0.1777 -3.3068
   95CHL1  H15B 9456   2.958   2.205   7.229  0.0772  0.1275 -1.8007
   95CHL1   C16 9457   2.934   2.308   7.414 -0.1954 -0.2173  0.9072
   95CHL1  H16A 9458   2.840   2.285   7.468 -0.7100 -2.2337 -0.7530
   95CHL1  H16B 9459   3.009   2.234   7.449  0.4206  0.4076  0.9349
   95CHL1   C17 9460   2.988   2.458   7.437 -0.9601 -0.4837  0.5542
   95CHL1   H17 9461   3.098   2.449   7.432 -0.7293  1.9038 -0.3146
   95CHL1   C13 9462   2.938   2.535   7.303 -0.0575 -0.4559  0.2302
   95CHL1   C18 9463   2.786   2.571   7.334 -0.1311  0.0632 -0.4073
   95CHL1  H18A 9464   2.778   2.637   7.423 -0.7708  0.3796 -0.6908
   95CHL1  H18B 9465   2.743   2.631   7.251 -0.7601  0.6369  0.3240
   95CHL1  H18C 9466   2.727   2.477   7.341 -1.7056  1.1509  2.3148
   95CHL1   C12 9467   3.026   2.648   7.253  0.4933  0.4753  1.2504
   95CHL1  H12A 9468   3.029   2.732   7.326 -0.6449  0.5240  1.2590
   95CHL1  H12B 9469   3.128   2.611   7.229  0.1185  0.4382 -0.3837
   95CHL1   C11 9470   2.967   2.708   7.118 -0.4025 -0.7238  0.3392
   95CHL1  H11A 9471   2.867   2.753   7.133  0.0110  0.7751 -1.0896
   95CHL1  H11B 9472   3.037   2.790   7.091  0.3300 -1.5572 -0.3368
   95CHL1    C9 9473   2.959   2.599   7.009  0.8190 -0.1390 -0.2713
   95CHL1    H9 9474   3.062   2.562   6.993  1.8222  2.6368 -0.7689
   95CHL1   C10 9475   2.914   2.637   6.865  0.1403 -1.1925  0.8094
   95CHL1   C19 9476   2.798   2.742   6.876  1.0379 -0.2834  0.2065
   95CHL1  H19A 9477   2.719   2.694   6.937  1.3003  0.6129  1.2847
   95CHL1  H19B 9478   2.839   2.837   6.917  1.2928  0.8435 -2.4670
   95CHL1  H19C 9479   2.762   2.765   6.773  0.7782 -1.7221 -0.0445
   95CHL1    C1 9480   3.033   2.714   6.799 -0.2645  0.4985 -0.1673
   95CHL1   H1A 9481   3.047   2.808   6.858 -0.3681  1.2531 -1.3201
   95CHL1   H1B 9482   3.127   2.655   6.798  0.6259  1.7689  1.7420
   95CHL1    C2 9483   3.009   2.751   6.650  0.3108 -0.5911  0.7415
   95CHL1   H2A 9484   3.102   2.796   6.609 -1.4518  0.2589 -2.7152
   95CHL1   H2B 9485   2.933   2.832   6.649 -0.8072 -1.5342 -2.2752
   95CHL1   C20 9486   2.962   2.513   7.571  0.4982 -0.0879 -0.4657
   95CHL1   H20 9487   2.852   2.527   7.580  0.8091  2.0167  0.6609
   95CHL1   C21 9488   3.028   2.648   7.590  0.1334 -0.6087 -0.6312
   95CHL1  H21A 9489   2.988   2.716   7.511 -1.8276 -0.6114  0.3005
   95CHL1  H21B 9490   3.137   2.638   7.574  0.9758  3.8198  0.9121
   95CHL1  H21C 9491   3.012   2.680   7.695 -1.4780 -0.3995 -0.9135
   95CHL1   C22 9492   3.001   2.419   7.685 -0.9119  0.1571  0.2339
   95CHL1  H22A 9493   2.943   2.325   7.676  0.6200 -0.9758  1.7043
   95CHL1  H22B 9494   3.106   2.386   7.668 -1.1430 -1.1263  1.1623
   95CHL1   C23 9495   2.976   2.460   7.830  0.0859 -0.0294 -1.2389
   95CHL1  H23A 9496   3.061   2.526   7.857 -1.7522  1.1962  2.2150
   95CHL1  H23B 9497   2.875   2.505   7.842 -0.1452 -0.6025 -1.0048
   95CHL1   C24 9498   2.997   2.339   7.923 -0.3113 -0.3299 -0.7273
   95CHL1  H24A 9499   2.922   2.260   7.903 -0.2775 -0.1836 -1.4537
   95CHL1  H24B 9500   3.099   2.303   7.898 -0.1314  0.9194 -1.9476
   95CHL1   C25 9501   2.994   2.382   8.076 -0.7157 -0.4322  0.1631
   95CHL1   H25 9502   2.889   2.415   8.093 -0.5438  0.2779 -0.1111
   95CHL1   C26 9503   3.019   2.259   8.161  0.4051 -0.2731 -0.0326
   95CHL1  H26A 9504   3.008   2.286   8.268  1.0515  1.3360 -0.3517
   95CHL1  H26B 9505   2.952   2.177   8.128 -0.0604  0.6817 -1.5479
   95CHL1  H26C 9506   3.116   2.207   8.149 -0.2843 -1.5956 -0.1247
   95CHL1   C27 9507   3.100   2.482   8.116  0.2469  1.2051 -0.0839
   95CHL1  H27A 9508   3.100   2.524   8.218  0.8155  1.5815 -0.2293
   95CHL1  H27B 9509   3.205   2.448   8.099 -0.5646 -0.6674 -1.8354
   95CHL1  H27C 9510   3.078   2.573   8.056  3.9375 -0.2434 -4.1948
   96CHL1    C3 9511   1.757   3.017   6.556 -0.0150 -0.4846 -0.6944
   96CHL1    H3 9512   1.725   3.123   6.543  0.9869 -0.3982 -3.0724
   96CHL1    O3 9513   1.757   2.969   6.424  0.2007  0.4005 -0.0546
   96CHL1   H3' 9514   1.746   2.876   6.441  0.8100 -0.1177 -2.1656
   96CHL1    C4 9515   1.895   3.011   6.614  0.4753 -0.6816 -0.1994
   96CHL1   H4A 9516   1.928   2.905   6.624 -0.4067 -1.2506 -2.5950
   96CHL1   H4B 9517   1.969   3.070   6.556  0.4900  0.4055  0.8813
   96CHL1    C5 9518   1.891   3.058   6.758  0.5528 -0.5300 -0.8910
   96CHL1    C6 9519   1.953   3.171   6.796 -0.3701  0.1107  0.2746
   96CHL1    H6 9520   2.006   3.231   6.720 -2.0919  1.3377 -0.0343
   96CHL1    C7 9521   1.956   3.227   6.935 -0.1530  0.0875  0.2300
   96CHL1   H7A 9522   2.063   3.243   6.962 -0.2067  1.1600 -0.1282
   96CHL1   H7B 9523   1.899   3.322   6.944  2.7965  2.3010 -2.1873
   96CHL1    C8 9524   1.913   3.119   7.040  0.7815 -0.1190 -0.1682
   96CHL1    H8 9525   1.993   3.042   7.045  3.8606  2.8984  0.1996
   96CHL1   C14 9526   1.889   3.183   7.178  0.9748 -0.0114  0.5512
   96CHL1   H14 9527   1.801   3.248   7.156  0.2483 -1.0201  0.4219
   96CHL1   C15 9528   2.002   3.272   7.233  0.0226 -0.1575  0.4324
   96CHL1  H15A 9529   2.088   3.203   7.217 -0.1660  0.1466 -2.6249
   96CHL1  H15B 9530   2.006   3.361   7.166 -1.8705 -0.5233 -0.2276
   96CHL1   C16 9531   1.950   3.290   7.374  0.0196  0.1255 -0.1434
   96CHL1  H16A 9532   2.040   3.268   7.436  0.6536  2.0847 -0.3209
   96CHL1  H16B 9533   1.925   3.397   7.386  1.6294  0.7706 -2.0218
   96CHL1   C17 9534   1.832   3.193   7.403 -0.1308  0.2174  0.2244
   96CHL1   H17 9535   1.746   3.260   7.381 -0.2841  0.2739  0.9559
   96CHL1   C13 9536   1.836   3.090   7.288 -0.8369 -0.5888  0.2303
   96CHL1   C18 9537   1.947   2.987   7.320 -0.2728  0.2453  0.2266
   96CHL1  H18A 9538   2.035   3.027   7.376 -0.4683  2.6866 -1.0674
   96CHL1  H18B 9539   1.914   2.890   7.361  3.4970 -1.0960  0.4625
   96CHL1  H18C 9540   1.996   2.949   7.228 -1.4467  2.0052 -1.2095
   96CHL1   C12 9541   1.700   3.028   7.239  0.3034 -0.6701 -0.1770
   96CHL1  H12A 9542   1.683   2.949   7.315 -0.2127  0.7063  1.2035
   96CHL1  H12B 9543   1.611   3.095   7.241  0.1150 -0.6711 -3.3779
   96CHL1   C11 9544   1.715   2.962   7.108 -0.6101  0.1655  0.3193
   96CHL1  H11A 9545   1.771   2.867   7.113  0.5608  0.7706 -0.7842
   96CHL1  H11B 9546   1.618   2.934   7.062  0.3645 -1.7151 -0.6801
   96CHL1    C9 9547   1.785   3.044   6.992 -0.1512 -0.0539 -0.3897
   96CHL1    H9 9548   1.719   3.131   6.971  1.0402  1.2861  1.0965
   96CHL1   C10 9549   1.795   2.977   6.853 -0.1903 -0.2051 -0.5098
   96CHL1   C19 9550   1.853   2.834   6.872 -0.1665  0.0302 -0.1470
   96CHL1  H19A 9551   1.951   2.822   6.923 -1.9566 -3.7619  2.9646
   96CHL1  H19B 9552   1.776   2.770   6.920 -1.3783 -0.7270 -2.9015
   96CHL1  H19C 9553   1.859   2.784   6.774 -1.4536 -0.9285  0.2297
   96CHL1    C1 9554   1.654   2.980   6.786  0.5924 -0.5774  0.2675
   96CHL1   H1A 9555   1.598   2.902   6.843  1.0833 -0.0665  1.4745
   96CHL1   H1B 9556   1.603   3.078   6.791 -2.3767 -1.9710 -0.2846
   96CHL1    C2 9557   1.655   2.933   6.636 -0.3108 -0.6797  0.3988
   96CHL1   H2A 9558   1.558   2.935   6.582 -0.4386 -1.8477  0.5523
   96CHL1   H2B 9559   1.690   2.828   6.637  0.6496 -0.3818 -0.2548
   96CHL1   C20 9560   1.809   3.130   7.550 -0.5449  0.6793  0.0063
   96CHL1   H20 9561   1.870   3.037   7.557 -0.5077  0.8060  1.7823
   96CHL1   C21 9562   1.651   3.091   7.564  0.4306  0.1389 -0.1699
   96CHL1  H21A 9563   1.620   3.080   7.671  0.7233  1.0890  0.0204
   96CHL1  H21B 9564   1.643   2.986   7.527  1.6288  0.3067 -0.9379
   96CHL1  H21C 9565   1.584   3.160   7.508  0.3999 -1.7932 -2.6945
   96CHL1   C22 9566   1.854   3.229   7.663  0.1641  0.0141 -0.6362
   96CHL1  H22A 9567   1.962   3.245   7.642  0.6338 -2.4824 -0.3819
   96CHL1  H22B 9568   1.786   3.313   7.638 -1.1826 -1.2347 -1.2984
   96CHL1   C23 9569   1.833   3.171   7.804 -0.2182 -0.2329 -0.5698
   96CHL1  H23A 9570   1.723   3.169   7.822 -0.2943 -1.0785 -1.0724
   96CHL1  H23B 9571   1.863   3.064   7.813 -0.2313 -0.1082  1.4574
   96CHL1   C24 9572   1.896   3.251   7.923  0.9767 -0.2293  0.3672
   96CHL1  H24A 9573   1.994   3.277   7.879  0.2291 -1.4164 -2.2044
   96CHL1  H24B 9574   1.833   3.343   7.931  0.1437 -0.8892  1.7331
   96CHL1   C25 9575   1.886   3.193   8.058  0.1050 -0.4031  0.0079
   96CHL1   H25 9576   1.955   3.106   8.067  2.0309  1.2846  3.9453
   96CHL1   C26 9577   1.933   3.296   8.158  0.8761 -0.4221  0.7839
   96CHL1  H26A 9578   1.895   3.395   8.127  1.7682  0.6516  2.9081
   96CHL1  H26B 9579   1.884   3.268   8.253 -1.9238 -0.8178 -0.6857
   96CHL1  H26C 9580   2.042   3.314   8.171  0.9195  0.3263 -0.4182
   96CHL1   C27 9581   1.751   3.137   8.093  0.3228  0.2083  0.3665
   96CHL1  H27A 9582   1.766   3.067   8.178  0.8385 -0.8780 -0.5834
   96CHL1  H27B 9583   1.679   3.216   8.124  0.2867  0.5992 -0.6794
   96CHL1  H27C 9584   1.701   3.080   8.012  0.4902  0.4479  0.0927
   97OSM      N 9585   6.532   2.067  11.206  0.1423  0.1410 -0.1304
   97OSM    C15 9586   6.516   2.204  11.256  0.6135 -0.4494 -0.3167
   97OSM   H15A 9587   6.426   2.219  11.314 -0.1778  1.4764 -1.9440
   97OSM   H15B 9588   6.519   2.267  11.169 -0.9752  0.3474  0.1826
   97OSM   H15C 9589   6.602   2.229  11.317  1.0877 -0.2694 -1.0417
   97OSM    C14 9590   6.660   2.060  11.136 -0.7594 -0.5119  0.5286
   97OSM   H14A 9591   6.741   2.073  11.206  1.8493 -0.4890 -2.2938
   97OSM   H14B 9592   6.671   2.139  11.063 -1.0498  1.4574  2.5106
   97OSM   H14C 9593   6.674   1.967  11.082 -0.9997  0.2122 -0.8177
   97OSM    C13 9594   6.539   1.975  11.316 -0.2033 -0.0917 -1.3290
   97OSM   H13A 9595   6.629   1.988  11.375 -0.1945 -1.9481 -0.8798
   97OSM   H13B 9596   6.540   1.870  11.292  2.9723 -0.7761  1.1142
   97OSM   H13C 9597   6.452   1.986  11.379  2.0232 -1.4290  2.2978
   97OSM    C12 9598   6.422   2.032  11.107  0.1455 -0.0478  0.0993
   97OSM   H12A 9599   6.328   2.064  11.149  0.2987  1.7806 -0.8613
   97OSM   H12B 9600   6.428   1.927  11.081 -0.3970 -0.5642  1.9284
   97OSM    C11 9601   6.418   2.111  10.968 -0.0590 -0.1697 -0.4601
   97OSM   H11A 9602   6.339   2.067  10.903 -0.4275  0.6744 -0.6024
   97OSM   H11B 9603   6.514   2.101  10.912 -0.8589 -1.3171 -1.7039
   97OSM      P 9604   6.238   2.307  11.007  0.1409 -0.0140 -0.3482
   97OSM    O13 9605   6.169   2.234  11.124  0.0170 -0.3656  0.4521
   97OSM    O14 9606   6.241   2.458  11.016  0.3425  0.3238  0.2071
   97OSM    O11 9607   6.151   2.261  10.877 -0.3849  0.4433 -1.0724
   97OSM    O12 9608   6.384   2.250  10.988  0.3586 -0.4412 -0.2370
   97OSM    C1S 9609   6.104   2.354  10.781  0.2745 -0.9685  0.0220
   97OSM    H1S 9610   6.172   2.442  10.776 -1.3147  0.5639  2.6759
   97OSM    H1T 9611   6.003   2.386  10.816  1.0328 -0.3658  1.7781
   97OSM     NF 9612   6.055   2.421  10.541  0.3329  0.0051  0.1179
   97OSM    HNF 9613   5.969   2.426  10.491 -0.6543  3.7682  1.8586
   97OSM    C2S 9614   6.091   2.307  10.627 -0.6853 -0.6581 -0.3123
   97OSM    H2S 9615   6.194   2.272  10.604 -0.1943 -0.3599  1.3468
   97OSM    C3S 9616   6.009   2.175  10.612  0.5544  0.6049 -0.3754
   97OSM    H3S 9617   5.901   2.198  10.627  0.4913  2.5592 -3.0292
   97OSM     O3 9618   6.055   2.071  10.694  0.1627  0.5043 -0.2207
   97OSM    HO3 9619   6.118   2.113  10.753 -0.6088  2.8684 -0.9884
   97OSM    C4S 9620   6.016   2.133  10.465  0.0997  0.2295 -0.0739
   97OSM    H4S 9621   6.113   2.088  10.437  1.3696  2.5230  0.3751
   97OSM    C5S 9622   5.908   2.130  10.378  0.1655 -0.7183 -0.0494
   97OSM    H5S 9623   5.816   2.183  10.404  1.9322  2.6439 -0.0588
   97OSM    C6S 9624   5.925   2.087  10.231  0.1079  0.6501  0.4617
   97OSM    H6S 9625   5.867   1.997  10.202  0.7583  0.7765 -1.3729
   97OSM    H6T 9626   6.027   2.047  10.214 -0.7772 -2.0813  1.0709
   97OSM    C7S 9627   5.881   2.190  10.126  0.0136 -0.0719  0.9997
   97OSM    H7S 9628   5.931   2.288  10.142  0.0269  0.6663 -2.7531
   97OSM    H7T 9629   5.773   2.214  10.143  0.0613  1.3848 -0.5329
   97OSM    C8S 9630   5.892   2.153   9.976 -0.4931  0.4390  0.2837
   97OSM    H8S 9631   5.825   2.071   9.940  0.3317  0.5086 -1.5185
   97OSM    H8T 9632   5.994   2.115   9.955  0.1105  3.2309 -2.4206
   97OSM    C9S 9633   5.868   2.277   9.887  0.2343  0.3479  0.3185
   97OSM    H9S 9634   5.953   2.345   9.908  0.7946 -0.7101  1.5602
   97OSM    H9T 9635   5.769   2.327   9.891  0.1812  0.3963 -0.9401
   97OSM   C10S 9636   5.880   2.244   9.740 -0.0051 -0.5482  0.4474
   97OSM   H10S 9637   5.792   2.185   9.706  0.1096 -1.0432  0.9892
   97OSM   H10T 9638   5.970   2.181   9.723 -0.3627 -0.9370 -0.0577
   97OSM   C11S 9639   5.884   2.371   9.637  0.4352 -0.1615 -0.4511
   97OSM   H11S 9640   5.970   2.437   9.665  0.6265 -1.0897  1.2797
   97OSM   H11T 9641   5.793   2.434   9.626  1.1468  0.9577 -0.1801
   97OSM   C12S 9642   5.912   2.326   9.493  0.4506  0.0152  0.5334
   97OSM   H12S 9643   5.823   2.268   9.458  2.4483 -2.4175 -0.8701
   97OSM   H12T 9644   6.000   2.259   9.487  0.1035 -0.3701 -0.5430
   97OSM   C13S 9645   5.925   2.449   9.403 -0.3083  0.1039 -0.3278
   97OSM   H13S 9646   6.027   2.494   9.397 -0.8812  1.6184  0.6880
   97OSM   H13T 9647   5.855   2.526   9.442 -0.2216  0.8630 -1.6161
   97OSM   C14S 9648   5.880   2.417   9.259 -0.0886  0.7911 -0.6005
   97OSM   H14S 9649   5.872   2.504   9.191 -0.0146  2.0980  0.9980
   97OSM   H14T 9650   5.784   2.362   9.268  0.8214 -0.4520  3.1812
   97OSM   C15S 9651   5.968   2.305   9.185 -0.0815  0.5966 -0.1600
   97OSM   H15S 9652   5.945   2.200   9.215  0.5860  0.4669 -0.0958
   97OSM   H15T 9653   6.070   2.332   9.218  0.1235 -0.0185 -0.2703
   97OSM   C16S 9654   5.954   2.309   9.033 -0.4727  0.1579 -1.0963
   97OSM   H16S 9655   5.997   2.406   8.999  0.9795 -0.0967 -0.0790
   97OSM   H16T 9656   5.849   2.317   8.999 -0.2147  1.2087 -1.7163
   97OSM   C17S 9657   6.030   2.192   8.959 -0.1975  0.8112  0.7633
   97OSM   H17S 9658   6.131   2.177   9.002 -0.2155  0.7505  0.7855
   97OSM   H17T 9659   6.043   2.211   8.850  0.0028  2.8083  1.1014
   97OSM   C18S 9660   5.960   2.056   8.967 -0.0966 -0.3226  0.2040
   97OSM   H18S 9661   6.007   1.989   8.892 -4.2360 -0.5668 -2.4809
   97OSM   H18T 9662   5.857   2.059   8.925  0.1585  1.0206 -0.3875
   97OSM   H18U 9663   5.969   2.021   9.073  1.3240  1.3556  0.6836
   97OSM    C1F 9664   6.124   2.536  10.536 -0.0575  0.2962 -0.0815
   97OSM     OF 9665   6.227   2.548  10.594  0.1505  0.5355  0.0378
   97OSM    C2F 9666   6.064   2.642  10.445  0.5540  0.6142 -0.0637
   97OSM    H2F 9667   6.026   2.723  10.511  1.0047  2.0574 -1.5165
   97OSM    H2G 9668   5.984   2.596  10.382 -2.4470  3.3883  1.4108
   97OSM    C3F 9669   6.163   2.700  10.346  0.3334 -0.1540  0.0190
   97OSM    H3F 9670   6.182   2.619  10.273  0.6168  1.9944 -2.4266
   97OSM    H3G 9671   6.267   2.724  10.375  1.0298 -0.0189 -2.3584
   97OSM    C4F 9672   6.119   2.821  10.251  0.8349 -0.4748  0.5464
   97OSM    H4F 9673   6.199   2.842  10.177  1.5145 -0.0336  1.3898
   97OSM    H4G 9674   6.092   2.906  10.318 -0.4392 -0.9069  0.6026
   97OSM    C5F 9675   5.989   2.792  10.169  0.1109 -0.1222 -0.6087
   97OSM    H5F 9676   5.958   2.895  10.141 -0.1517 -0.7598 -2.8269
   97OSM    H5G 9677   5.908   2.743  10.227  0.4131 -1.4718 -1.2816
   97OSM    C6F 9678   6.013   2.700  10.057  0.3763  0.9657 -0.4156
   97OSM    H6F 9679   5.912   2.682  10.013  0.2381 -0.3886  0.3963
   97OSM    H6G 9680   6.051   2.601  10.088  0.1207  0.1625 -2.5186
   97OSM    C7F 9681   6.116   2.755   9.956 -0.5124 -0.6352  0.0026
   97OSM    H7F 9682   6.139   2.678   9.879  2.8664 -0.1059  0.3175
   97OSM    H7G 9683   6.216   2.778  10.000 -0.9731  1.4300  0.0707
   97OSM    C8F 9684   6.069   2.889   9.891 -0.0688 -0.5277  0.4230
   97OSM    H8F 9685   6.152   2.935   9.832  0.5777 -0.7917  1.1104
   97OSM    H8G 9686   6.063   2.970   9.967 -0.8794  1.1647 -1.3357
   97OSM    C9F 9687   5.944   2.880   9.798  0.4907 -0.4289 -0.2911
   97OSM    H9F 9688   5.851   2.864   9.855  0.8422 -1.4849  0.0003
   97OSM   C10F 9689   5.930   2.875   9.664  1.0402  0.4679 -0.3382
   97OSM   H10F 9690   5.826   2.872   9.626  0.6971  1.0489  0.5126
   97OSM   C11F 9691   6.034   2.868   9.559 -0.2770 -0.7652  0.1932
   97OSM   H11F 9692   6.139   2.860   9.595 -0.7163  0.4304  1.8510
   97OSM   H11G 9693   6.036   2.968   9.510 -1.4833 -0.8389 -0.0341
   97OSM   C12F 9694   6.013   2.755   9.463 -0.1654  0.5862 -0.6950
   97OSM   H12F 9695   5.909   2.748   9.425  0.5615 -0.8535 -2.5329
   97OSM   H12G 9696   6.033   2.659   9.515  1.1361  1.0095 -0.3646
   97OSM   C13F 9697   6.092   2.753   9.334 -1.0188 -0.6557  0.1562
   97OSM   H13F 9698   6.080   2.654   9.285 -2.6554  0.4602 -1.8539
   97OSM   H13G 9699   6.201   2.767   9.351 -0.3575 -1.5259 -2.8008
   97OSM   C14F 9700   6.045   2.873   9.246 -0.4027  0.2462  0.8787
   97OSM   H14F 9701   6.052   2.965   9.309 -1.0855  0.9000  0.0173
   97OSM   H14G 9702   5.940   2.852   9.219 -0.2158 -0.3345  0.5857
   97OSM   C15F 9703   6.131   2.904   9.116 -0.2666  0.1373 -0.2245
   97OSM   H15F 9704   6.115   2.813   9.055 -1.1162  0.4335 -0.4473
   97OSM   H15G 9705   6.235   2.899   9.155 -0.3579 -1.4551 -0.1308
   97OSM   C16F 9706   6.108   3.034   9.032 -0.0684 -0.5951 -0.0443
   97OSM   H16F 9707   6.108   3.118   9.105 -1.6558 -0.3112 -0.3327
   97OSM   H16G 9708   6.005   3.027   8.992 -0.2307  0.6410  0.1222
   97OSM   C17F 9709   6.218   3.051   8.927 -0.2702 -0.3654  0.2013
   97OSM   H17F 9710   6.203   2.958   8.868  0.9865 -0.9525  0.7597
   97OSM   H17G 9711   6.319   3.051   8.973  0.0601 -0.4384 -0.5043
   97OSM   C18F 9712   6.189   3.177   8.841 -1.0318  0.1549 -0.2263
   97OSM   H18F 9713   6.263   3.194   8.760 -0.7878 -0.8492 -0.2282
   97OSM   H18G 9714   6.190   3.269   8.904  0.0038  1.5013 -2.1092
   97OSM   H18H 9715   6.087   3.173   8.796 -1.3521  2.8421  0.0860
   98OSM      N 9716   0.627   1.568  10.795  0.6045  0.5535  0.2308
   98OSM    C15 9717   0.567   1.584  10.928 -0.5750 -0.0173  1.0417
   98OSM   H15A 9718   0.611   1.664  10.985  2.2734 -1.5887  1.1879
   98OSM   H15B 9719   0.576   1.496  10.990  0.0806  1.6848  3.5193
   98OSM   H15C 9720   0.462   1.605  10.913  0.1192  1.8320 -2.0389
   98OSM    C14 9721   0.766   1.528  10.813 -0.5681  0.6122 -0.4129
   98OSM   H14A 9722   0.786   1.422  10.820  0.7583  0.8680 -0.0376
   98OSM   H14B 9723   0.809   1.561  10.907 -1.6029  0.4985  0.1182
   98OSM   H14C 9724   0.842   1.564  10.745  1.1542  0.4445  1.3183
   98OSM    C13 9725   0.549   1.464  10.713  0.2227 -0.6444  0.1368
   98OSM   H13A 9726   0.577   1.455  10.609  0.3502 -1.4926  0.2329
   98OSM   H13B 9727   0.445   1.493  10.716  0.3114 -0.3948  2.2401
   98OSM   H13C 9728   0.572   1.372  10.765  0.3224 -1.1001 -0.6999
   98OSM    C12 9729   0.639   1.687  10.700  0.2298  0.4543  0.5459
   98OSM   H12A 9730   0.681   1.658  10.605  1.6187  2.0539  0.6135
   98OSM   H12B 9731   0.702   1.762  10.746  0.8086  0.4780 -0.2538
   98OSM    C11 9732   0.506   1.768  10.662 -0.4682 -0.1325 -0.4625
   98OSM   H11A 9733   0.447   1.693  10.606  0.7121 -1.8371  0.4967
   98OSM   H11B 9734   0.535   1.857  10.602  0.8511 -0.1307  0.1556
   98OSM      P 9735   0.287   1.814  10.809 -0.0420  0.0833  0.5451
   98OSM    O13 9736   0.249   1.675  10.829  0.4553  0.3547 -0.1289
   98OSM    O14 9737   0.253   1.901  10.926  0.6279 -0.0898  0.7471
   98OSM    O11 9738   0.228   1.874  10.676 -0.6710 -0.7666  0.0635
   98OSM    O12 9739   0.441   1.814  10.779  0.0571 -0.2898 -0.5439
   98OSM    C1S 9740   0.268   2.010  10.642 -0.5084  0.3187  0.3687
   98OSM    H1S 9741   0.376   2.032  10.656 -0.0340 -1.9538  0.5432
   98OSM    H1T 9742   0.229   2.084  10.715  0.2885  0.6152  0.5080
   98OSM     NF 9743   0.267   2.182  10.455 -0.2920 -0.3922 -0.5275
   98OSM    HNF 9744   0.208   2.262  10.448  1.0994  0.5771 -2.0860
   98OSM    C2S 9745   0.208   2.056  10.506 -0.7820 -0.2239  0.0556
   98OSM    H2S 9746   0.228   1.969  10.439 -0.4532 -0.2916  0.2390
   98OSM    C3S 9747   0.051   2.057  10.513 -0.1425 -0.1295 -0.4325
   98OSM    H3S 9748   0.024   2.136  10.586  0.2712 -0.0387 -0.3746
   98OSM     O3 9749   0.001   1.933  10.557 -0.0062  0.1486  0.2313
   98OSM    HO3 9750   0.073   1.883  10.597  0.8101 -2.6856 -4.1280
   98OSM    C4S 9751   0.004   2.095  10.377  0.0595  0.0283  0.3744
   98OSM    H4S 9752  -0.041   2.194  10.359 -1.2053 -0.5313  0.3473
   98OSM    C5S 9753   0.010   2.023  10.263  0.3212  0.0882 -0.4867
   98OSM    H5S 9754   0.039   1.917  10.254  0.6443  0.1116  0.1822
   98OSM    C6S 9755  -0.046   2.072  10.131  0.7729 -0.1440 -0.7448
   98OSM    H6S 9756  -0.121   2.153  10.144  3.3705  2.2943  0.2318
   98OSM    H6T 9757  -0.086   1.984  10.076  1.0988 -0.4501 -0.4982
   98OSM    C7S 9758   0.069   2.126  10.044  0.0364 -0.2345  0.6817
   98OSM    H7S 9759   0.162   2.065  10.051  0.7778  0.7636 -0.1068
   98OSM    H7T 9760   0.085   2.230  10.080 -1.2424  0.2748 -0.1600
   98OSM    C8S 9761   0.034   2.146   9.893 -0.4607  0.8820 -0.0486
   98OSM    H8S 9762   0.025   2.051   9.836  0.2144  1.5391 -1.3089
   98OSM    H8T 9763   0.110   2.211   9.844 -1.9951  1.8163 -1.3062
   98OSM    C9S 9764  -0.099   2.212   9.864 -0.6139  0.0353  0.5148
   98OSM    H9S 9765  -0.123   2.303   9.923 -4.9804 -0.1100 -0.7092
   98OSM    H9T 9766  -0.184   2.150   9.897 -1.2450 -1.3766 -3.2813
   98OSM   C10S 9767  -0.117   2.236   9.710 -0.0779 -0.5048  0.2659
   98OSM   H10S 9768  -0.223   2.254   9.686 -0.6876 -3.1192  0.7046
   98OSM   H10T 9769  -0.100   2.140   9.657  1.2589  0.0251 -0.3139
   98OSM   C11S 9770  -0.025   2.338   9.638 -0.1991  0.1285 -0.6522
   98OSM   H11S 9771   0.082   2.324   9.666 -0.6931 -0.9543  0.8621
   98OSM   H11T 9772  -0.056   2.440   9.669 -0.5123 -0.0779 -0.2587
   98OSM   C12S 9773  -0.051   2.316   9.489 -0.1813  0.2595  0.3049
   98OSM   H12S 9774  -0.141   2.375   9.464 -0.8417 -0.6300  0.5246
   98OSM   H12T 9775  -0.071   2.207   9.483 -0.8137  0.3364  0.8406
   98OSM   C13S 9776   0.062   2.358   9.398  0.4446  0.2926 -0.3368
   98OSM   H13S 9777   0.020   2.341   9.296 -0.4998 -1.8097  0.3468
   98OSM   H13T 9778   0.154   2.296   9.403  0.7189  0.6729 -0.6015
   98OSM   C14S 9779   0.098   2.506   9.408 -0.5861 -0.1904  0.9297
   98OSM   H14S 9780   0.193   2.533   9.356 -1.4692 -0.4476 -0.9203
   98OSM   H14T 9781   0.113   2.527   9.516 -1.4417  2.6410  0.5563
   98OSM   C15S 9782  -0.003   2.596   9.342  0.5110  0.3370  1.2808
   98OSM   H15S 9783   0.009   2.700   9.380  2.1609  0.4578  0.5413
   98OSM   H15T 9784  -0.104   2.565   9.375 -0.4272  1.2388 -0.5659
   98OSM   C16S 9785   0.006   2.590   9.185 -0.0986  0.9108 -0.0329
   98OSM   H16S 9786  -0.026   2.492   9.144  1.9322 -0.6112  1.8192
   98OSM   H16T 9787   0.109   2.601   9.145 -0.9698 -0.2660 -2.8977
   98OSM   C17S 9788  -0.074   2.710   9.123 -0.1662  0.4436  0.3803
   98OSM   H17S 9789  -0.059   2.798   9.189  1.4037  0.7337 -0.3351
   98OSM   H17T 9790  -0.181   2.682   9.135 -0.3448  0.7897 -0.3473
   98OSM   C18S 9791  -0.038   2.745   8.982  0.6272  0.1211 -0.9536
   98OSM   H18S 9792  -0.089   2.834   8.940 -2.2095 -0.6471  0.6142
   98OSM   H18T 9793  -0.090   2.668   8.921  0.1867  1.6588 -2.5957
   98OSM   H18U 9794   0.069   2.737   8.952  0.8165  0.0541 -0.2804
   98OSM    C1F 9795   0.390   2.177  10.411 -0.0519  0.1264  0.6506
   98OSM     OF 9796   0.454   2.072  10.404 -0.4502  0.1421 -0.4773
   98OSM    C2F 9797   0.439   2.308  10.354  0.4159 -0.1610  0.0782
   98OSM    H2F 9798   0.549   2.306  10.337  0.6484  0.1973  1.3839
   98OSM    H2G 9799   0.405   2.383  10.429  1.4931 -1.1523  1.6325
   98OSM    C3F 9800   0.362   2.345  10.225 -0.1239  0.5376 -0.6562
   98OSM    H3F 9801   0.258   2.356  10.261 -0.4208  0.2294 -1.4091
   98OSM    H3G 9802   0.369   2.253  10.164 -1.0751 -0.0616  0.1080
   98OSM    C4F 9803   0.409   2.469  10.140  0.2211  0.3058 -0.2686
   98OSM    H4F 9804   0.520   2.475  10.130  1.1110  0.0766  5.7622
   98OSM    H4G 9805   0.393   2.556  10.206  0.7297  0.2162 -0.0175
   98OSM    C5F 9806   0.322   2.497  10.017 -0.4299 -0.1148 -0.1372
   98OSM    H5F 9807   0.328   2.606   9.998 -0.3017 -0.2195 -0.7301
   98OSM    H5G 9808   0.217   2.459  10.020 -0.6722  0.5935  2.3447
   98OSM    C6F 9809   0.386   2.416   9.900 -0.5358 -0.1628  0.3806
   98OSM    H6F 9810   0.358   2.309   9.907 -1.3848 -0.0139 -0.4884
   98OSM    H6G 9811   0.496   2.427   9.907 -0.4570 -0.4920 -0.2374
   98OSM    C7F 9812   0.345   2.472   9.763 -0.2481  0.6477  0.6601
   98OSM    H7F 9813   0.369   2.578   9.743  0.9606  0.1673 -0.6050
   98OSM    H7G 9814   0.235   2.464   9.771 -0.5859  2.2199 -1.4901
   98OSM    C8F 9815   0.386   2.371   9.653  1.1002  0.1696  1.0048
   98OSM    H8F 9816   0.319   2.381   9.566 -0.9753 -0.9376  2.3928
   98OSM    H8G 9817   0.371   2.265   9.683 -1.0990 -0.1822 -1.0762
   98OSM    C9F 9818   0.526   2.401   9.613  0.1323 -0.1294 -0.1664
   98OSM    H9F 9819   0.589   2.415   9.702  0.4144 -1.7394 -0.0982
   98OSM   C10F 9820   0.580   2.405   9.491  0.3792  0.0255  0.0939
   98OSM   H10F 9821   0.689   2.419   9.493  0.4765 -0.2947 -1.6668
   98OSM   C11F 9822   0.511   2.390   9.358 -0.2469 -0.1014  0.0694
   98OSM   H11F 9823   0.532   2.478   9.294 -1.3620 -0.1307 -0.3624
   98OSM   H11G 9824   0.401   2.402   9.362 -0.1085  1.1446  0.3470
   98OSM   C12F 9825   0.541   2.253   9.299 -0.4238 -0.2415 -0.8888
   98OSM   H12F 9826   0.476   2.229   9.212 -1.3343 -0.8498 -0.0640
   98OSM   H12G 9827   0.525   2.176   9.378  0.4676 -0.0375 -0.4906
   98OSM   C13F 9828   0.694   2.244   9.254  0.2086 -0.2304  0.4718
   98OSM   H13F 9829   0.726   2.137   9.261 -1.8681 -0.9994 -0.7638
   98OSM   H13G 9830   0.760   2.304   9.319 -2.0982  0.2188  2.5524
   98OSM   C14F 9831   0.721   2.278   9.106  0.2437 -1.0582  0.3638
   98OSM   H14F 9832   0.710   2.389   9.106 -1.8887 -1.2206  1.1312
   98OSM   H14G 9833   0.643   2.236   9.039  0.5363 -0.5584 -0.2965
   98OSM   C15F 9834   0.870   2.235   9.063  0.0130 -0.4181 -0.4824
   98OSM   H15F 9835   0.878   2.126   9.079 -0.0277 -0.4526 -0.6832
   98OSM   H15G 9836   0.944   2.285   9.128 -0.2573 -0.9016  0.2023
   98OSM   C16F 9837   0.891   2.294   8.919 -0.3301  0.0911 -0.2594
   98OSM   H16F 9838   0.873   2.404   8.922 -0.5325  0.0454  0.7259
   98OSM   H16G 9839   0.818   2.244   8.853 -2.0418  0.3225  1.3468
   98OSM   C17F 9840   1.039   2.280   8.873  0.3360 -0.2735  0.3134
   98OSM   H17F 9841   1.075   2.175   8.873  2.6876  0.3452 -3.5329
   98OSM   H17G 9842   1.112   2.339   8.931  1.4767 -1.8709  0.5830
   98OSM   C18F 9843   1.055   2.330   8.727  0.2386  0.6061 -0.4922
   98OSM   H18F 9844   1.035   2.439   8.719  1.0076  0.7070 -1.1275
   98OSM   H18G 9845   0.990   2.267   8.662 -1.9692  1.1109  1.0937
   98OSM   H18H 9846   1.157   2.316   8.685 -0.7994 -0.4202 -2.8612
   99OSM      N 9847   0.983   3.799  10.527 -0.1777  0.0583  0.2032
   99OSM    C15 9848   1.068   3.736  10.426 -0.4033 -0.3145 -0.6282
   99OSM   H15A 9849   1.172   3.766  10.431  0.4814 -2.9483 -1.3274
   99OSM   H15B 9850   1.037   3.761  10.325  0.8795 -0.9693 -1.2106
   99OSM   H15C 9851   1.066   3.628  10.431  1.5231 -0.3325  0.7166
   99OSM    C14 9852   0.942   3.934  10.472 -0.2206 -1.0296 -0.4355
   99OSM   H14A 9853   1.025   3.989  10.429  0.6657 -1.2080  0.9529
   99OSM   H14B 9854   0.901   3.996  10.550 -1.5221 -0.6002 -1.4450
   99OSM   H14C 9855   0.867   3.938  10.395 -0.0317  2.5496 -0.5873
   99OSM    C13 9856   0.856   3.719  10.551  0.9975  0.0138 -0.3567
   99OSM   H13A 9857   0.808   3.682  10.462  0.9128  0.4830 -0.5082
   99OSM   H13B 9858   0.784   3.775  10.608  0.4791 -1.3642  0.3852
   99OSM   H13C 9859   0.878   3.634  10.614  0.5720  0.2047  0.0536
   99OSM    C12 9860   1.047   3.811  10.667 -0.5221  0.7119 -0.1792
   99OSM   H12A 9861   0.993   3.862  10.745  0.1180 -1.1562  1.5854
   99OSM   H12B 9862   1.139   3.867  10.661  0.8581 -0.8665  3.2934
   99OSM    C11 9863   1.100   3.685  10.738  0.5485  0.2170  0.3259
   99OSM   H11A 9864   1.144   3.720  10.834 -0.8369  1.3978  0.5588
   99OSM   H11B 9865   1.181   3.641  10.677 -0.7739 -1.6195 -0.1956
   99OSM      P 9866   1.009   3.444  10.812  0.6977 -0.1683  0.3898
   99OSM    O13 9867   1.144   3.400  10.845 -0.0401  0.2962  0.4777
   99OSM    O14 9868   0.916   3.420  10.926  0.2784  0.4447 -0.2872
   99OSM    O11 9869   0.949   3.377  10.685 -0.0251 -0.1646  0.1000
   99OSM    O12 9870   0.990   3.597  10.761 -0.4157  0.2369 -0.1374
   99OSM    C1S 9871   0.981   3.243  10.657 -1.1210 -0.0482 -0.1002
   99OSM    H1S 9872   0.921   3.179  10.725  0.9790 -2.6049 -0.5178
   99OSM    H1T 9873   1.088   3.230  10.683 -1.3746 -0.1483  0.9176
   99OSM     NF 9874   0.997   3.056  10.494  0.4619  0.7655  0.1540
   99OSM    HNF 9875   1.081   3.027  10.449  1.3883  2.0786  0.9713
   99OSM    C2S 9876   0.970   3.198  10.509 -0.5776  0.2386  0.5083
   99OSM    H2S 9877   0.864   3.214  10.479 -1.1884 -1.2135  1.7747
   99OSM    C3S 9878   1.056   3.282  10.414 -0.7159 -0.8465  0.5495
   99OSM    H3S 9879   1.163   3.264  10.436 -1.1413 -1.3444  2.3538
   99OSM     O3 9880   1.032   3.428  10.430 -0.6391 -0.0671  0.4085
   99OSM    HO3 9881   1.007   3.435  10.523  2.0977 -1.0659  1.3143
   99OSM    C4S 9882   1.021   3.251  10.272 -0.0914  0.6103  0.4878
   99OSM    H4S 9883   0.932   3.299  10.230  0.9389  1.0339 -1.3445
   99OSM    C5S 9884   1.094   3.168  10.197  0.6294 -0.6573 -0.9096
   99OSM    H5S 9885   1.185   3.120  10.236  1.1712 -0.4802 -1.9369
   99OSM    C6S 9886   1.070   3.139  10.053 -0.3326  0.1829  0.2246
   99OSM    H6S 9887   0.982   3.198  10.018 -0.3502 -0.2211 -0.4247
   99OSM    H6T 9888   1.049   3.031  10.044 -0.6018  0.2713 -0.2489
   99OSM    C7S 9889   1.195   3.179   9.972 -0.7991  0.6543  0.4705
   99OSM    H7S 9890   1.287   3.134  10.016 -0.2594  2.4179  1.2588
   99OSM    H7T 9891   1.211   3.289   9.978 -0.4849  0.5670  1.5846
   99OSM    C8S 9892   1.187   3.151   9.823  0.7088  0.9933 -0.4300
   99OSM    H8S 9893   1.087   3.170   9.778 -0.5155 -3.4312 -0.1360
   99OSM    H8T 9894   1.211   3.043   9.809 -2.0250  0.3659 -0.8471
   99OSM    C9S 9895   1.297   3.224   9.734 -0.0355 -0.0777 -0.0086
   99OSM    H9S 9896   1.392   3.220   9.790 -0.2275 -3.1629  0.2537
   99OSM    H9T 9897   1.277   3.333   9.728 -0.4635 -0.2247 -2.6859
   99OSM   C10S 9898   1.317   3.170   9.590 -0.0906 -0.4876  0.1605
   99OSM   H10S 9899   1.211   3.170   9.555 -0.8643  0.3661  2.3109
   99OSM   H10T 9900   1.338   3.061   9.592 -2.2066 -1.0290 -2.0295
   99OSM   C11S 9901   1.402   3.257   9.496 -0.5069 -0.5151 -0.1869
   99OSM   H11S 9902   1.507   3.236   9.529 -0.4332 -2.3424 -1.4141
   99OSM   H11T 9903   1.380   3.363   9.519  1.5819 -0.5800  2.7607
   99OSM   C12S 9904   1.382   3.235   9.344  0.1102 -0.2369 -0.9655
   99OSM   H12S 9905   1.384   3.127   9.318 -0.1831 -0.5464  0.1993
   99OSM   H12T 9906   1.283   3.276   9.313 -1.6356 -2.0670  1.6724
   99OSM   C13S 9907   1.493   3.311   9.266  0.0732  0.1283 -1.2348
   99OSM   H13S 9908   1.586   3.266   9.305 -0.2273  0.9925  0.5848
   99OSM   H13T 9909   1.479   3.419   9.287  1.1369  0.3187 -1.4601
   99OSM   C14S 9910   1.492   3.281   9.114  0.4677  0.3224 -0.4257
   99OSM   H14S 9911   1.393   3.306   9.071  0.3274 -2.2666 -1.7870
   99OSM   H14T 9912   1.507   3.173   9.093  1.3362  0.4843 -0.6964
   99OSM   C15S 9913   1.599   3.358   9.044  0.2306 -0.4835  0.5303
   99OSM   H15S 9914   1.697   3.334   9.089  1.1140  2.8846  0.6934
   99OSM   H15T 9915   1.572   3.465   9.061 -0.3270 -0.4604 -0.3884
   99OSM   C16S 9916   1.603   3.335   8.892  0.3354 -0.3853  0.2768
   99OSM   H16S 9917   1.511   3.384   8.853  1.2895  0.5473 -0.8663
   99OSM   H16T 9918   1.587   3.226   8.875 -0.3034  0.0033 -2.0241
   99OSM   C17S 9919   1.721   3.392   8.815  0.1272  0.3589 -0.0243
   99OSM   H17S 9920   1.805   3.326   8.847  0.3458  1.0924  0.9796
   99OSM   H17T 9921   1.740   3.500   8.834 -3.5447  0.8785  1.4675
   99OSM   C18S 9922   1.698   3.368   8.667 -0.3532  0.5547 -0.0643
   99OSM   H18S 9923   1.676   3.261   8.643  3.0182 -0.3256  0.2325
   99OSM   H18T 9924   1.780   3.414   8.609 -0.6204 -1.2025 -1.9592
   99OSM   H18U 9925   1.609   3.426   8.636 -1.7320 -1.0397  0.7401
   99OSM    C1F 9926   0.920   2.962  10.555 -0.1685  0.1966  0.1206
   99OSM     OF 9927   0.815   2.998  10.607 -0.0014 -0.1861 -0.2988
   99OSM    C2F 9928   0.958   2.821  10.541  0.1177  0.0901 -0.1397
   99OSM    H2F 9929   1.026   2.802  10.627 -1.2569  0.8627  1.1656
   99OSM    H2G 9930   1.009   2.813  10.442  0.6793  4.4611 -0.3894
   99OSM    C3F 9931   0.824   2.741  10.527 -0.2500  0.5525  0.7666
   99OSM    H3F 9932   0.865   2.638  10.530 -0.3118  0.4346 -1.3103
   99OSM    H3G 9933   0.774   2.746  10.626  2.6048 -3.7180  2.6889
   99OSM    C4F 9934   0.738   2.768  10.405  0.2436  0.7828  0.6883
   99OSM    H4F 9935   0.688   2.866  10.417  0.5704  1.7308 -3.8720
   99OSM    H4G 9936   0.655   2.695  10.399  1.8871 -1.1263  0.3436
   99OSM    C5F 9937   0.810   2.775  10.270 -0.1010  0.2603 -0.0424
   99OSM    H5F 9938   0.847   2.676  10.237  1.7192  1.2010 -0.9798
   99OSM    H5G 9939   0.902   2.837  10.267  0.6984 -0.9241 -0.4031
   99OSM    C6F 9940   0.714   2.836  10.160 -0.4287 -0.2684 -0.3656
   99OSM    H6F 9941   0.686   2.942  10.178  0.5498  0.5468 -3.0876
   99OSM    H6G 9942   0.621   2.776  10.161 -0.9063  0.4513 -0.7991
   99OSM    C7F 9943   0.782   2.823  10.026 -0.1064  0.1519  0.7818
   99OSM    H7F 9944   0.809   2.716  10.012  1.1559  0.3215  1.7301
   99OSM    H7G 9945   0.885   2.863  10.022 -0.9511  2.4815  1.1352
   99OSM    C8F 9946   0.698   2.864   9.904 -0.3746 -0.5156 -0.6087
   99OSM    H8F 9947   0.619   2.789   9.883 -1.3163  0.9148 -2.4134
   99OSM    H8G 9948   0.759   2.858   9.811 -0.9194  0.1362 -1.0108
   99OSM    C9F 9949   0.639   3.001   9.925 -0.5853  0.2045  0.4036
   99OSM    H9F 9950   0.549   3.013   9.987 -0.2431  1.6092  0.6678
   99OSM   C10F 9951   0.694   3.114   9.876 -0.1238 -0.1197 -0.4147
   99OSM   H10F 9952   0.634   3.207   9.881 -1.1799 -0.7400 -1.1957
   99OSM   C11F 9953   0.817   3.124   9.781 -0.5098 -0.1808  0.0482
   99OSM   H11F 9954   0.894   3.047   9.805 -0.3636  0.1161  0.5627
   99OSM   H11G 9955   0.866   3.223   9.792  1.1370 -1.2154  3.9384
   99OSM   C12F 9956   0.788   3.095   9.630  0.8169  0.0576 -0.5214
   99OSM   H12F 9957   0.722   3.168   9.579  1.4748  0.6338 -0.5620
   99OSM   H12G 9958   0.735   2.998   9.618 -1.5963  1.4204 -1.5866
   99OSM   C13F 9959   0.921   3.107   9.548 -0.4316  1.3474 -0.6728
   99OSM   H13F 9960   0.969   3.010   9.574 -0.5401  1.0964 -1.3834
   99OSM   H13G 9961   0.996   3.181   9.584  3.5029 -1.5502 -2.1400
   99OSM   C14F 9962   0.902   3.144   9.397  0.2185  0.4450 -0.2844
   99OSM   H14F 9963   0.874   3.251   9.391 -2.1832 -0.2257 -2.2943
   99OSM   H14G 9964   0.810   3.095   9.361 -0.5772  1.5538  0.1599
   99OSM   C15F 9965   1.020   3.117   9.307  0.8083  0.4813  0.1391
   99OSM   H15F 9966   1.030   3.006   9.298 -0.6962  0.3486 -0.1955
   99OSM   H15G 9967   1.114   3.163   9.342  0.7578  1.2419 -0.6985
   99OSM   C16F 9968   0.985   3.174   9.162  0.0243  0.2097  0.2984
   99OSM   H16F 9969   0.998   3.284   9.155  0.0133  0.2246  0.4909
   99OSM   H16G 9970   0.887   3.137   9.125  1.0027 -3.4306  0.9731
   99OSM   C17F 9971   1.084   3.103   9.071  0.6760 -0.3154  0.1476
   99OSM   H17F 9972   1.063   2.994   9.066  3.0363 -0.8874  1.3701
   99OSM   H17G 9973   1.189   3.129   9.095  0.6930  0.9556 -1.1461
   99OSM   C18F 9974   1.061   3.153   8.927 -0.0785  0.2106 -0.3598
   99OSM   H18F 9975   1.090   3.260   8.921  2.8020 -0.5426 -1.5902
   99OSM   H18G 9976   0.958   3.133   8.890  0.7675 -1.3186 -2.0238
   99OSM   H18H 9977   1.129   3.098   8.858  0.9787  0.0922  0.7446
  100OSM      N 9978   2.723   2.282  11.159 -0.1219 -0.0073  0.4171
  100OSM    C15 9979   2.611   2.232  11.074 -0.4489  0.1798 -0.4266
  100OSM   H15A 9980   2.561   2.304  11.010 -1.4178 -1.2120 -1.3066
  100OSM   H15B 9981   2.536   2.202  11.146  0.0975  0.7651  0.3885
  100OSM   H15C 9982   2.639   2.152  11.007 -2.5448 -0.5847 -0.4877
  100OSM    C14 9983   2.666   2.373  11.269  0.4258  0.9267 -0.0698
  100OSM   H14A 9984   2.641   2.471  11.233 -2.0769  0.1801 -0.5440
  100OSM   H14B 9985   2.727   2.390  11.357 -2.6974  4.5081  1.6838
  100OSM   H14C 9986   2.582   2.319  11.312  0.6780 -0.4372 -1.1993
  100OSM    C13 9987   2.781   2.165  11.240  0.0133  0.2124 -0.0204
  100OSM   H13A 9988   2.836   2.202  11.326  1.7137  3.3350 -2.2332
  100OSM   H13B 9989   2.843   2.099  11.182  1.5071 -0.6606  2.4134
  100OSM   H13C 9990   2.704   2.095  11.266  1.2085 -0.7932  0.9192
  100OSM    C12 9991   2.837   2.345  11.087  0.3522  0.5323  0.9839
  100OSM   H12A 9992   2.908   2.371  11.164  1.9295 -1.8224  0.4077
  100OSM   H12B 9993   2.802   2.433  11.034 -0.1303 -0.3604 -0.2303
  100OSM    C11 9994   2.906   2.255  10.974  0.6054 -0.4625 -0.0007
  100OSM   H11A 9995   2.993   2.307  10.927  0.7188 -2.0348 -1.6334
  100OSM   H11B 9996   2.834   2.255  10.890  1.2671  0.9527 -0.6174
  100OSM      P 9997   2.949   2.002  10.918  0.2987  0.1392 -0.1622
  100OSM    O13 9998   2.993   1.881  10.994 -0.7479 -0.5331 -0.0405
  100OSM    O14 9999   2.815   1.994  10.853  0.0794  0.6423 -0.6649
  100OSM    O1110000   3.066   2.053  10.818  0.3193  0.5800  0.0372
  100OSM    O1210001   2.952   2.126  11.019 -0.2698 -0.2611 -0.0859
  100OSM    C1S10002   3.112   1.979  10.704 -0.6521 -0.0130 -0.2092
  100OSM    H1S10003   3.093   1.871  10.720 -1.1157  0.2975  1.5922
  100OSM    H1T10004   3.221   1.995  10.691 -1.0558  3.0384 -0.7005
  100OSM     NF10005   3.073   1.926  10.470 -0.3344 -0.0063  0.1002
  100OSM    HNF10006   3.144   1.962  10.410 -1.3162  2.0359  0.0592
  100OSM    C2S10007   3.032   2.023  10.576 -0.0594 -0.1978  0.6860
  100OSM    H2S10008   2.922   2.009  10.577  0.0785 -1.4645  2.0379
  100OSM    C3S10009   3.066   2.174  10.539 -0.2651 -0.6766 -0.0639
  100OSM    H3S10010   3.172   2.176  10.505  0.0037  3.2920  0.5209
  100OSM     O310011   3.055   2.274  10.642 -0.5399 -0.9020 -0.7948
  100OSM    HO310012   3.054   2.230  10.728  0.6582 -0.2698 -0.4275
  100OSM    C4S10013   2.974   2.214  10.431  0.1293  0.5794 -0.6592
  100OSM    H4S10014   3.019   2.225  10.331 -0.0642  0.1784 -0.7922
  100OSM    C5S10015   2.841   2.239  10.439  0.6108 -0.1813 -0.2885
  100OSM    H5S10016   2.791   2.221  10.535 -0.3118  3.6052  0.0770
  100OSM    C6S10017   2.750   2.265  10.320  0.4565  0.1201 -0.2009
  100OSM    H6S10018   2.725   2.373  10.317  1.0741  0.2650 -2.6493
  100OSM    H6T10019   2.654   2.219  10.351 -0.5591  0.0157 -3.1468
  100OSM    C7S10020   2.781   2.203  10.188  0.1088  0.0476 -0.2738
  100OSM    H7S10021   2.686   2.209  10.131 -0.2534  3.1577  0.4713
  100OSM    H7T10022   2.816   2.098  10.191 -2.5794 -0.9699 -1.2201
  100OSM    C8S10023   2.865   2.295  10.100 -0.1676 -0.1544  1.0408
  100OSM    H8S10024   2.963   2.321  10.145  0.9477  0.3856 -1.5058
  100OSM    H8T10025   2.802   2.383  10.074  2.3571  0.9026 -2.2656
  100OSM    C9S10026   2.901   2.213   9.971 -1.0758 -0.5024 -0.6663
  100OSM    H9S10027   2.811   2.199   9.908 -0.8280  0.1790 -1.1843
  100OSM    H9T10028   2.940   2.109   9.983 -1.0664 -0.5556 -1.1257
  100OSM   C10S10029   3.013   2.282   9.885  0.3898  0.4069 -0.0616
  100OSM   H10S10030   3.115   2.273   9.927 -0.1663 -1.6828  1.0067
  100OSM   H10T10031   2.996   2.389   9.905  0.7274  0.4910 -0.2149
  100OSM   C11S10032   2.994   2.241   9.735  0.1480 -0.2893 -0.5914
  100OSM   H11S10033   2.901   2.286   9.696 -0.0223 -0.9269 -0.9446
  100OSM   H11T10034   2.962   2.135   9.727  1.2881 -0.5898 -1.4680
  100OSM   C12S10035   3.112   2.276   9.650 -0.1966 -0.2755 -0.1249
  100OSM   H12S10036   3.205   2.238   9.699 -0.5150 -0.3473  0.4322
  100OSM   H12T10037   3.123   2.386   9.641 -0.7723 -0.0431  1.5672
  100OSM   C13S10038   3.120   2.213   9.504 -0.2038  0.2246  0.0996
  100OSM   H13S10039   3.099   2.104   9.510 -4.0822  0.8012 -0.0445
  100OSM   H13T10040   3.221   2.224   9.460 -0.9964 -1.1550 -2.1890
  100OSM   C14S10041   3.015   2.277   9.409  0.6036  0.1073 -0.3130
  100OSM   H14S10042   3.030   2.387   9.403  0.4026  0.1753  0.3928
  100OSM   H14T10043   2.911   2.261   9.443  0.4615  0.1834 -0.7002
  100OSM   C15S10044   3.048   2.232   9.264 -0.1960 -0.4004  0.7076
  100OSM   H15S10045   3.146   2.181   9.256  0.0539  0.0932  0.5713
  100OSM   H15T10046   3.058   2.314   9.189 -2.2084 -0.2421  0.5431
  100OSM   C16S10047   2.933   2.141   9.213  0.4007  0.4254  0.0921
  100OSM   H16S10048   2.840   2.201   9.213  0.5952  0.7928  1.8358
  100OSM   H16T10049   2.923   2.068   9.296 -0.2637  0.7014  0.2623
  100OSM   C17S10050   2.961   2.059   9.082 -0.0419  0.9670  0.0748
  100OSM   H17S10051   3.027   1.976   9.113 -0.8465  0.5277  0.6395
  100OSM   H17T10052   3.009   2.114   8.998 -1.9256  2.3306 -0.1880
  100OSM   C18S10053   2.845   1.983   9.004  0.3687 -0.1968 -0.7587
  100OSM   H18S10054   2.785   2.053   8.943  1.2405  0.6504 -0.6596
  100OSM   H18T10055   2.775   1.918   9.062  0.0840  0.9635  0.2239
  100OSM   H18U10056   2.889   1.913   8.929  1.7532  1.6736 -1.7757
  100OSM    C1F10057   3.033   1.796  10.458  0.3246  0.2578 -0.1633
  100OSM     OF10058   2.968   1.742  10.550  1.0497  0.3591 -0.2733
  100OSM    C2F10059   3.083   1.720  10.338 -0.4929  0.1679 -0.7108
  100OSM    H2F10060   3.193   1.701  10.347 -0.1652  1.8170 -0.8885
  100OSM    H2G10061   3.075   1.797  10.258 -1.6571  1.2711  0.4097
  100OSM    C3F10062   3.016   1.578  10.308 -0.7103 -0.0751 -0.0920
  100OSM    H3F10063   2.910   1.588  10.275 -0.3843  0.8769 -0.8907
  100OSM    H3G10064   3.015   1.535  10.411 -0.6331  2.4603  1.0346
  100OSM    C4F10065   3.090   1.482  10.210 -0.9288  0.8130 -0.3614
  100OSM    H4F10066   3.194   1.462  10.243 -0.7592  0.2910 -1.1905
  100OSM    H4G10067   3.091   1.502  10.101 -1.2532  0.2185 -0.4801
  100OSM    C5F10068   3.021   1.343  10.214  0.4472 -0.9827 -0.8676
  100OSM    H5F10069   2.912   1.357  10.200  0.4987  1.8301  0.7609
  100OSM    H5G10070   3.023   1.299  10.316 -2.8171 -2.2871 -1.2521
  100OSM    C6F10071   3.081   1.256  10.109  0.3887 -0.1493 -0.2588
  100OSM    H6F10072   3.136   1.176  10.163 -0.4708  0.1924  1.1579
  100OSM    H6G10073   3.148   1.312  10.041  1.1395  0.4584  0.9519
  100OSM    C7F10074   2.977   1.177  10.026  0.1492  0.6279 -0.7167
  100OSM    H7F10075   2.896   1.243   9.989 -2.9584 -1.9610  0.9617
  100OSM    H7G10076   2.925   1.116  10.103  0.3808 -0.1993 -1.2004
  100OSM    C8F10077   3.040   1.101   9.903  0.5316  0.1309 -0.0862
  100OSM    H8F10078   2.973   1.018   9.873 -1.0090  0.7727  1.4268
  100OSM    H8G10079   3.129   1.060   9.955 -0.7494  0.6074  2.6958
  100OSM    C9F10080   3.065   1.181   9.780 -0.0857  0.1772 -0.1719
  100OSM    H9F10081   3.054   1.290   9.789  0.9715  0.2948 -0.1749
  100OSM   C10F10082   3.101   1.125   9.665 -0.2261  1.2078  0.9555
  100OSM   H10F10083   3.132   1.183   9.577  1.4280 -3.4214 -1.9130
  100OSM   C11F10084   3.119   0.976   9.647  0.3804  0.5630 -0.3033
  100OSM   H11F10085   3.041   0.946   9.575  1.1373  0.6861 -1.1937
  100OSM   H11G10086   3.102   0.918   9.740  0.9112  1.7059  0.5324
  100OSM   C12F10087   3.248   0.939   9.574  0.2998 -0.6407 -0.0388
  100OSM   H12F10088   3.255   0.829   9.561  0.5700 -0.4240 -1.9272
  100OSM   H12G10089   3.337   0.961   9.636 -1.3775 -2.9243  3.5314
  100OSM   C13F10090   3.254   0.992   9.424  0.0276 -0.2822  0.2740
  100OSM   H13F10091   3.244   1.102   9.426  0.2030 -0.1942 -1.5058
  100OSM   H13G10092   3.172   0.945   9.366  0.8463 -0.0119 -1.1550
  100OSM   C14F10093   3.386   0.956   9.353 -0.7729  0.4346  0.2070
  100OSM   H14F10094   3.436   0.862   9.381 -1.4066  0.5342  1.7920
  100OSM   H14G10095   3.458   1.032   9.390 -0.2790 -0.1295  0.4117
  100OSM   C15F10096   3.384   0.956   9.195  0.7734 -0.9498 -1.2286
  100OSM   H15F10097   3.372   1.060   9.157 -1.3433 -0.7746 -0.2294
  100OSM   H15G10098   3.297   0.895   9.164 -0.2292  0.8866 -2.1901
  100OSM   C16F10099   3.508   0.917   9.118 -0.2510 -0.5709 -0.1356
  100OSM   H16F10100   3.535   0.814   9.150  1.1736 -0.7982 -1.9387
  100OSM   H16G10101   3.604   0.970   9.130 -0.2112 -0.6738  0.0033
  100OSM   C17F10102   3.482   0.923   8.963  0.1731  0.4901  1.1379
  100OSM   H17F10103   3.381   0.881   8.947  0.5236 -0.0188  0.1907
  100OSM   H17G10104   3.562   0.862   8.914 -0.3849  0.2574  0.4989
  100OSM   C18F10105   3.468   1.068   8.905 -0.0893 -0.4248 -0.2817
  100OSM   H18F10106   3.451   1.066   8.795 -1.3881  1.7212 -0.1772
  100OSM   H18G10107   3.553   1.135   8.931 -1.5812  2.8642 -3.0992
  100OSM   H18H10108   3.378   1.119   8.943 -0.4021 -0.2109 -1.2612
  101OSM      N10109   0.537   2.484  11.171 -0.2313  0.2082  0.3960
  101OSM    C1510110   0.468   2.539  11.293  0.4694 -0.6034  0.2742
  101OSM   H15A10111   0.493   2.488  11.385 -1.9507  0.5920  1.6974
  101OSM   H15B10112   0.363   2.532  11.271  1.1488 -2.3174 -3.0884
  101OSM   H15C10113   0.487   2.645  11.306 -1.0697 -0.0001 -1.8485
  101OSM    C1410114   0.682   2.517  11.188  0.1286 -0.1380 -0.0263
  101OSM   H14A10115   0.693   2.624  11.183  0.0472 -0.1351 -0.1460
  101OSM   H14B10116   0.751   2.482  11.112  1.6540  0.8544  0.8588
  101OSM   H14C10117   0.725   2.472  11.277  0.1237 -0.8652 -0.3827
  101OSM    C1310118   0.531   2.338  11.162 -0.3774  0.7898  0.0771
  101OSM   H13A10119   0.432   2.310  11.128 -1.1937  1.4175  1.8097
  101OSM   H13B10120   0.541   2.288  11.257 -2.7465 -1.2149 -0.6241
  101OSM   H13C10121   0.599   2.300  11.088 -2.5332 -3.6162  0.0283
  101OSM    C1210122   0.482   2.549  11.042  0.1236  0.6736 -0.1339
  101OSM   H12A10123   0.516   2.494  10.956  0.7240  0.9359 -0.0699
  101OSM   H12B10124   0.525   2.648  11.043  0.0775  0.7145  1.5652
  101OSM    C1110125   0.333   2.568  11.033 -0.1429  0.2100 -0.6032
  101OSM   H11A10126   0.302   2.635  10.950 -0.6018 -0.1619 -0.7344
  101OSM   H11B10127   0.293   2.625  11.119 -0.1316 -1.1184  0.3187
  101OSM      P10128   0.258   2.388  10.871 -0.1506  0.2689  0.2381
  101OSM    O1310129   0.399   2.370  10.813  0.3215  0.0421 -0.1987
  101OSM    O1410130   0.171   2.268  10.871  0.0449 -0.3182  0.0157
  101OSM    O1110131   0.193   2.496  10.778 -0.3305 -0.2182  0.0598
  101OSM    O1210132   0.265   2.442  11.018  0.0697 -0.6232  0.1846
  101OSM    C1S10133   0.065   2.562  10.801 -0.1101 -0.0701 -0.2713
  101OSM    H1S10134   0.083   2.631  10.886  1.9109 -2.0735  1.0522
  101OSM    H1T10135  -0.010   2.492  10.843 -0.1136 -0.0983 -0.3243
  101OSM     NF10136  -0.089   2.724  10.701 -0.9829  0.1123 -0.4952
  101OSM    HNF10137  -0.186   2.704  10.692 -1.0410 -0.2863  0.8020
  101OSM    C2S10138   0.020   2.629  10.665 -0.0218 -0.1487 -0.3254
  101OSM    H2S10139   0.108   2.673  10.613 -1.4212  2.0950 -0.9288
  101OSM    C3S10140  -0.031   2.512  10.565 -0.1845 -0.5651 -0.2474
  101OSM    H3S10141  -0.121   2.472  10.615  0.9244 -0.7544  1.7051
  101OSM     O310142   0.065   2.410  10.542  0.1560  0.3632 -0.6919
  101OSM    HO310143   0.139   2.437  10.597  0.5456 -2.0599  0.1104
  101OSM    C4S10144  -0.075   2.571  10.434  0.1219  0.1517  0.2494
  101OSM    H4S10145   0.007   2.634  10.398 -0.0855 -0.3574 -1.1801
  101OSM    C5S10146  -0.182   2.537  10.364 -0.7584  0.2442  0.1135
  101OSM    H5S10147  -0.253   2.466  10.409  0.1297 -0.8617 -0.1838
  101OSM    C6S10148  -0.225   2.590  10.235  0.8306  0.7042  0.4810
  101OSM    H6S10149  -0.305   2.667  10.249 -0.3792 -0.6686  1.4338
  101OSM    H6T10150  -0.259   2.500  10.180 -1.7070  0.8933  1.6196
  101OSM    C7S10151  -0.121   2.669  10.150  0.2115  0.6406  0.1497
  101OSM    H7S10152  -0.048   2.590  10.121 -1.3496 -1.3083  1.2969
  101OSM    H7T10153  -0.062   2.743  10.208 -1.9691  1.9543  0.7971
  101OSM    C8S10154  -0.184   2.737  10.026 -0.3692 -0.0224 -0.1373
  101OSM    H8S10155  -0.116   2.800   9.965  0.3915  0.2772  0.9903
  101OSM    H8T10156  -0.263   2.804  10.065  0.2231  0.1440  0.8021
  101OSM    C9S10157  -0.239   2.640   9.922 -0.3915  0.0257  0.9277
  101OSM    H9S10158  -0.305   2.565   9.970  0.5454 -0.2024  1.9027
  101OSM    H9T10159  -0.157   2.585   9.871 -1.4608 -0.3243 -0.4759
  101OSM   C10S10160  -0.324   2.712   9.820 -0.1963 -0.6837  0.5445
  101OSM   H10S10161  -0.376   2.796   9.871  0.0238 -0.2171  0.0130
  101OSM   H10T10162  -0.402   2.653   9.765 -1.9127  2.6043 -0.8610
  101OSM   C11S10163  -0.232   2.786   9.720  0.2711 -0.1861 -0.1352
  101OSM   H11S10164  -0.153   2.722   9.675  1.3164  0.4164  0.8166
  101OSM   H11T10165  -0.175   2.866   9.771  0.8730  0.3532 -1.5920
  101OSM   C12S10166  -0.320   2.839   9.604 -0.0045 -0.3770  0.3131
  101OSM   H12S10167  -0.395   2.905   9.654 -0.3062  1.1914 -2.0321
  101OSM   H12T10168  -0.368   2.751   9.558 -1.1836 -1.5636  3.4950
  101OSM   C13S10169  -0.245   2.920   9.495 -0.9152  0.4440  0.2185
  101OSM   H13S10170  -0.166   2.853   9.454 -2.9519 -2.0769  0.1562
  101OSM   H13T10171  -0.197   3.000   9.554  2.4862 -1.5936  0.4852
  101OSM   C14S10172  -0.344   2.969   9.385  0.1518 -0.3434  0.8060
  101OSM   H14S10173  -0.400   3.051   9.434  2.4389  0.1443  2.8001
  101OSM   H14T10174  -0.417   2.889   9.361 -0.0040  0.0608 -0.0946
  101OSM   C15S10175  -0.278   3.015   9.255 -0.1160  0.5828 -0.0602
  101OSM   H15S10176  -0.357   3.065   9.194 -1.2032  1.2712  1.8352
  101OSM   H15T10177  -0.222   2.938   9.198  2.0362  1.4293  0.8174
  101OSM   C16S10178  -0.193   3.147   9.273 -1.0038  0.2247 -0.5693
  101OSM   H16S10179  -0.098   3.118   9.323 -1.3376  0.9020  0.5011
  101OSM   H16T10180  -0.256   3.212   9.337 -0.4658 -0.4227  0.6553
  101OSM   C17S10181  -0.157   3.219   9.138 -0.4608  0.0237 -0.2653
  101OSM   H17S10182  -0.137   3.147   9.056 -1.4687 -1.6764  0.9001
  101OSM   H17T10183  -0.066   3.279   9.157  0.5367 -1.4902 -0.1288
  101OSM   C18S10184  -0.270   3.321   9.099 -0.4456 -0.0573 -0.3777
  101OSM   H18S10185  -0.277   3.387   9.188  0.3871  1.5455 -1.4562
  101OSM   H18T10186  -0.370   3.272   9.098 -0.4465 -0.0585 -1.3240
  101OSM   H18U10187  -0.241   3.383   9.011  0.4934  0.2573  0.1367
  101OSM    C1F10188  -0.062   2.835  10.763  0.5151 -0.8865  0.0312
  101OSM     OF10189   0.053   2.866  10.784  0.0561  0.2055  0.5009
  101OSM    C2F10190  -0.182   2.921  10.793  0.0590  0.3652 -0.1187
  101OSM    H2F10191  -0.149   3.027  10.793 -2.1607  1.1218 -0.5712
  101OSM    H2G10192  -0.202   2.896  10.899  3.3025  0.1363  0.5435
  101OSM    C3F10193  -0.285   2.920  10.685 -0.1928  0.6072 -0.4865
  101OSM    H3F10194  -0.367   2.976  10.737  0.1019 -0.5420  1.2793
  101OSM    H3G10195  -0.337   2.825  10.662  0.1053  0.6621 -1.4491
  101OSM    C4F10196  -0.245   2.969  10.547 -0.2567  0.1786 -0.5613
  101OSM    H4F10197  -0.179   2.896  10.496  2.2826  1.9401  0.0189
  101OSM    H4G10198  -0.185   3.062  10.555  0.6933 -0.5130  0.9496
  101OSM    C5F10199  -0.366   2.986  10.449 -1.1056 -0.6052 -0.5715
  101OSM    H5F10200  -0.427   3.069  10.491 -0.2393 -0.4202  0.3408
  101OSM    H5G10201  -0.435   2.899  10.445 -1.4752 -0.4396  1.5235
  101OSM    C6F10202  -0.306   3.029  10.315 -0.6618  0.2357 -0.2128
  101OSM    H6F10203  -0.269   3.132  10.331 -2.1864  0.7050  0.5140
  101OSM    H6G10204  -0.231   2.954  10.283 -2.6798 -1.2051 -1.8941
  101OSM    C7F10205  -0.411   3.029  10.202 -0.0567  0.2392  0.8227
  101OSM    H7F10206  -0.501   3.084  10.236  1.1480  2.5594  0.4987
  101OSM    H7G10207  -0.430   2.924  10.171 -0.2167  1.1382 -2.5146
  101OSM    C8F10208  -0.364   3.089  10.070 -0.3795 -0.2627  0.3825
  101OSM    H8F10209  -0.447   3.086   9.997 -1.5258 -1.4057  1.6818
  101OSM    H8G10210  -0.289   3.025  10.019  0.3430  0.6963  0.2145
  101OSM    C9F10211  -0.321   3.233  10.091 -0.0524  0.3408  0.4330
  101OSM    H9F10212  -0.398   3.289  10.146 -3.7297 -1.3212 -2.6068
  101OSM   C10F10213  -0.200   3.288  10.054  0.0896  0.7023  0.4023
  101OSM   H10F10214  -0.188   3.397  10.068  3.0261  0.3847  1.1419
  101OSM   C11F10215  -0.099   3.225   9.955 -0.2864 -0.1562 -0.3526
  101OSM   H11F10216  -0.118   3.117   9.936 -1.4246  0.3245 -2.1545
  101OSM   H11G10217   0.006   3.246   9.986 -0.7995  0.1461  1.3067
  101OSM   C12F10218  -0.120   3.280   9.811 -0.0326  0.4786 -0.5160
  101OSM   H12F10219  -0.108   3.391   9.804  0.5289  0.5686  1.3306
  101OSM   H12G10220  -0.213   3.238   9.769 -0.5792  0.8574  0.2971
  101OSM   C13F10221  -0.012   3.217   9.721  0.1641  0.3141 -0.8658
  101OSM   H13F10222  -0.021   3.108   9.738 -0.7954  0.2961 -1.4133
  101OSM   H13G10223   0.094   3.236   9.748  0.1760 -2.5718  1.6224
  101OSM   C14F10224  -0.044   3.249   9.579 -0.5630 -0.0073  0.1716
  101OSM   H14F10225  -0.150   3.247   9.543 -0.8098  0.1160  0.8729
  101OSM   H14G10226   0.010   3.183   9.507  0.9156  1.5270 -0.1658
  101OSM   C15F10227   0.026   3.379   9.552 -0.5188 -0.0284 -0.2213
  101OSM   H15F10228   0.135   3.370   9.571 -0.7246 -2.0914  0.2989
  101OSM   H15G10229  -0.007   3.458   9.622  2.3921 -0.4171  1.7718
  101OSM   C16F10230   0.008   3.420   9.399  0.3496  0.1225  0.2729
  101OSM   H16F10231  -0.092   3.449   9.359  1.1784  0.7378 -1.4453
  101OSM   H16G10232   0.035   3.333   9.336  0.4453  0.6236 -0.3818
  101OSM   C17F10233   0.083   3.545   9.351 -0.1770 -0.4865  0.2149
  101OSM   H17F10234   0.189   3.544   9.385  0.1371 -2.2735 -0.6710
  101OSM   H17G10235   0.042   3.638   9.394 -0.6284 -1.0688  1.0810
  101OSM   C18F10236   0.088   3.559   9.199 -0.6268 -0.2528  0.4410
  101OSM   H18F10237   0.144   3.653   9.181  0.3799 -1.4010 -3.1340
  101OSM   H18G10238  -0.017   3.577   9.169 -0.3769  0.1410 -0.2092
  101OSM   H18H10239   0.145   3.480   9.146  2.5344  0.3078  2.7207
  102OSM      N10240   2.608   5.602  10.606 -0.8019  0.2607 -0.1130
  102OSM    C1510241   2.721   5.507  10.612 -0.9118 -0.0133  0.4225
  102OSM   H15A10242   2.755   5.476  10.709 -2.7136  1.7241  1.6919
  102OSM   H15B10243   2.801   5.552  10.555 -1.7862 -0.4369 -1.2333
  102OSM   H15C10244   2.688   5.414  10.569  1.2780  0.4511 -2.6012
  102OSM    C1410245   2.555   5.600  10.464 -0.8629  0.5007 -0.4049
  102OSM   H14A10246   2.533   5.697  10.423  1.2000  1.0307 -0.4054
  102OSM   H14B10247   2.478   5.526  10.451  1.7751 -2.5023 -0.3192
  102OSM   H14C10248   2.634   5.569  10.397  1.7594  2.6392  1.4292
  102OSM    C1310249   2.499   5.537  10.684  0.0738  0.0637  0.3522
  102OSM   H13A10250   2.478   5.438  10.645  1.3376 -0.1909  0.3008
  102OSM   H13B10251   2.408   5.594  10.666  0.2856  0.2284 -0.2431
  102OSM   H13C10252   2.525   5.537  10.788 -1.0082  0.5894  0.6364
  102OSM    C1210253   2.649   5.736  10.676  0.1442  0.8328  0.2911
  102OSM   H12A10254   2.733   5.777  10.622 -0.3104  2.0058  0.4427
  102OSM   H12B10255   2.698   5.699  10.765  0.2257 -1.4004 -0.6166
  102OSM    C1110256   2.545   5.841  10.712 -0.1157 -0.1501 -0.3000
  102OSM   H11A10257   2.596   5.932  10.751  2.6944 -0.6905 -2.3778
  102OSM   H11B10258   2.490   5.798  10.799  1.9529 -1.7281  0.3241
  102OSM      P10259   2.453   5.993  10.519 -0.0258  0.2826  0.2468
  102OSM    O1310260   2.405   5.964  10.381  0.0716 -0.1213 -0.2421
  102OSM    O1410261   2.363   6.089  10.593  0.0372 -0.4808 -0.1104
  102OSM    O1110262   2.603   6.047  10.512 -0.3706  0.5159 -0.2027
  102OSM    O1210263   2.452   5.862  10.607  0.0956 -0.1365 -0.0166
  102OSM    C1S10264   2.700   5.971  10.438  0.7531  0.5855  0.0588
  102OSM    H1S10265   2.668   5.865  10.427 -2.2547  1.2967  1.0212
  102OSM    H1T10266   2.793   5.963  10.500  2.0929  1.4105 -1.7547
  102OSM     NF10267   2.812   5.941  10.225  0.0151  0.9385 -0.2561
  102OSM    HNF10268   2.909   5.924  10.241 -0.2779 -0.4439  0.1395
  102OSM    C2S10269   2.734   6.037  10.305 -0.2540 -0.5746 -0.0815
  102OSM    H2S10270   2.638   6.062  10.255  0.8776  3.5025 -0.5961
  102OSM    C3S10271   2.817   6.173  10.321  0.1429  0.6423  0.3680
  102OSM    H3S10272   2.916   6.158  10.370 -0.4786  0.8931  1.7645
  102OSM     O310273   2.768   6.252  10.426  0.0477 -0.4446 -0.1707
  102OSM    HO310274   2.701   6.198  10.468 -1.0467  2.0332  1.4975
  102OSM    C4S10275   2.828   6.246  10.190 -0.1799  0.1478 -0.2185
  102OSM    H4S10276   2.906   6.212  10.120  1.9104 -1.0438  2.4661
  102OSM    C5S10277   2.746   6.342  10.148  0.1464 -0.0074 -0.2060
  102OSM    H5S10278   2.666   6.375  10.217 -0.7750 -3.0841  0.3856
  102OSM    C6S10279   2.743   6.410  10.011 -1.1891 -0.3549  1.1303
  102OSM    H6S10280   2.774   6.516  10.016  1.0035 -0.7581 -1.7628
  102OSM    H6T10281   2.638   6.414   9.975 -0.8995 -0.1388  0.2944
  102OSM    C7S10282   2.844   6.348   9.899  0.5461  0.0346  0.1608
  102OSM    H7S10283   2.831   6.239   9.913  1.9606 -0.2272 -0.4061
  102OSM    H7T10284   2.942   6.380   9.942  0.3482  2.0406 -0.7434
  102OSM    C8S10285   2.828   6.401   9.759  0.7257 -0.2414 -0.0306
  102OSM    H8S10286   2.782   6.503   9.757 -0.3281 -0.7029 -0.3239
  102OSM    H8T10287   2.751   6.343   9.702  0.6396  2.0600 -2.4493
  102OSM    C9S10288   2.956   6.417   9.685 -0.7961  0.8023  0.0591
  102OSM    H9S10289   2.995   6.313   9.672  0.2180  1.3108 -1.1063
  102OSM    H9T10290   3.028   6.470   9.750 -0.5733  0.1718  0.3316
  102OSM   C10S10291   2.943   6.491   9.554 -0.0107  0.3720 -0.4787
  102OSM   H10S10292   3.038   6.521   9.504 -0.4259  2.3906 -0.1286
  102OSM   H10T10293   2.877   6.579   9.571  0.7517  1.2772 -1.9245
  102OSM   C11S10294   2.860   6.418   9.444 -0.2221  0.8662  0.4271
  102OSM   H11S10295   2.767   6.370   9.481 -0.2855 -1.3005 -2.1905
  102OSM   H11T10296   2.916   6.330   9.405  1.4694  2.5814 -1.2128
  102OSM   C12S10297   2.833   6.512   9.327  0.3695  0.3128  0.3349
  102OSM   H12S10298   2.935   6.538   9.291  1.3712 -0.3801  2.4748
  102OSM   H12T10299   2.787   6.608   9.358 -1.7597 -0.6002  0.1740
  102OSM   C13S10300   2.751   6.448   9.212  0.4473 -0.0709 -0.5553
  102OSM   H13S10301   2.656   6.405   9.251 -0.6606  0.3204 -2.6592
  102OSM   H13T10302   2.807   6.369   9.159 -0.7238 -0.1034 -1.8043
  102OSM   C14S10303   2.717   6.546   9.100 -0.1355  0.0520 -0.2293
  102OSM   H14S10304   2.808   6.553   9.036 -0.0141 -1.2175 -0.2094
  102OSM   H14T10305   2.698   6.650   9.136  2.3168  0.8763 -1.1183
  102OSM   C15S10306   2.609   6.506   8.999 -0.2412  0.1373  0.2077
  102OSM   H15S10307   2.605   6.587   8.922  0.6584 -0.4035 -0.4247
  102OSM   H15T10308   2.520   6.496   9.064  0.4025  2.4516  1.5805
  102OSM   C16S10309   2.642   6.385   8.913 -0.4050  0.1282 -0.5444
  102OSM   H16S10310   2.667   6.302   8.982 -1.7611  0.4953  0.4407
  102OSM   H16T10311   2.724   6.397   8.839  1.6251  1.0311  1.7069
  102OSM   C17S10312   2.521   6.365   8.835  0.3971  0.5800  0.1717
  102OSM   H17S10313   2.503   6.450   8.766  0.7481 -1.4607 -2.5986
  102OSM   H17T10314   2.438   6.346   8.907  0.3100  0.1774 -0.0326
  102OSM   C18S10315   2.533   6.234   8.747 -0.6394 -0.8228 -0.2131
  102OSM   H18S10316   2.633   6.236   8.699  0.3833  1.5476  1.7997
  102OSM   H18T10317   2.454   6.218   8.670  1.4472 -1.8220 -2.2715
  102OSM   H18U10318   2.529   6.151   8.820  2.7269 -0.8979  0.0533
  102OSM    C1F10319   2.756   5.833  10.169 -0.0917 -0.5137  0.6277
  102OSM     OF10320   2.833   5.739  10.159 -0.0228 -0.6628 -0.0955
  102OSM    C2F10321   2.619   5.837  10.108  0.1206 -0.1513 -0.8615
  102OSM    H2F10322   2.539   5.859  10.182  0.5149 -1.0425 -0.1654
  102OSM    H2G10323   2.599   5.735  10.070 -1.2666 -0.7110  1.2081
  102OSM    C3F10324   2.606   5.935   9.993 -0.4279 -0.0076  0.6141
  102OSM    H3F10325   2.602   6.041  10.026 -0.3238  0.7387 -1.6229
  102OSM    H3G10326   2.505   5.914   9.951  0.2556 -0.7413 -0.7206
  102OSM    C4F10327   2.699   5.920   9.869  0.6551 -0.1251  0.3301
  102OSM    H4F10328   2.808   5.911   9.886  0.7704 -0.0115 -0.3026
  102OSM    H4G10329   2.695   6.013   9.809  0.9670 -0.8669 -0.8982
  102OSM    C5F10330   2.651   5.818   9.769 -0.5129 -0.5096 -0.7065
  102OSM    H5F10331   2.541   5.817   9.756 -0.6987 -0.5840  0.7375
  102OSM    H5G10332   2.684   5.718   9.803  0.1934  0.3159  1.1866
  102OSM    C6F10333   2.724   5.835   9.638  0.3638  0.6662  0.5333
  102OSM    H6F10334   2.720   5.736   9.587 -1.3869 -0.0767  2.0019
  102OSM    H6G10335   2.828   5.864   9.665  0.9169 -0.1521 -0.6461
  102OSM    C7F10336   2.660   5.942   9.557 -0.4676 -0.2497 -0.3163
  102OSM    H7F10337   2.685   6.037   9.608 -3.7736 -0.1929  1.4429
  102OSM    H7G10338   2.550   5.936   9.566 -0.5220  0.1251 -0.7700
  102OSM    C8F10339   2.711   5.949   9.413  0.4455  0.6767 -0.2790
  102OSM    H8F10340   2.686   5.856   9.357  1.6067 -0.8208  1.5519
  102OSM    H8G10341   2.822   5.942   9.416  0.3938 -0.3241 -0.2205
  102OSM    C9F10342   2.677   6.076   9.336  0.2313  0.3963 -0.9373
  102OSM    H9F10343   2.666   6.165   9.399  1.2483 -0.0164 -0.1618
  102OSM   C10F10344   2.657   6.086   9.199 -1.0581 -0.6786 -0.2255
  102OSM   H10F10345   2.628   6.187   9.167 -0.0092 -0.8186 -1.6807
  102OSM   C11F10346   2.674   5.978   9.096 -0.4911 -0.4166  0.6109
  102OSM   H11F10347   2.591   5.977   9.022  0.6550 -3.3622 -0.8232
  102OSM   H11G10348   2.683   5.879   9.145  0.6080 -0.4356  0.4091
  102OSM   C12F10349   2.803   6.010   9.023  0.0574  0.1516  1.1091
  102OSM   H12F10350   2.884   6.004   9.099 -1.0439 -0.7827  2.2513
  102OSM   H12G10351   2.803   6.109   8.973 -0.5852 -0.3026  0.1767
  102OSM   C13F10352   2.828   5.891   8.928  0.3903  0.4040  0.0185
  102OSM   H13F10353   2.766   5.806   8.962 -0.7806  0.1910 -2.4031
  102OSM   H13G10354   2.937   5.873   8.923  0.2928  0.1744 -2.6160
  102OSM   C14F10355   2.790   5.926   8.780  0.0494 -0.5301 -0.5171
  102OSM   H14F10356   2.835   6.027   8.768 -0.5945 -0.3670 -1.7997
  102OSM   H14G10357   2.682   5.947   8.763  0.3513  0.0396 -1.9244
  102OSM   C15F10358   2.847   5.835   8.673  0.1049 -0.0173  0.3583
  102OSM   H15F10359   2.776   5.753   8.651  1.4678 -0.7265 -1.7154
  102OSM   H15G10360   2.939   5.788   8.714 -0.3393 -0.8815  0.3742
  102OSM   C16F10361   2.888   5.907   8.535  0.3102 -0.3387 -0.2887
  102OSM   H16F10362   2.966   5.846   8.484  2.3341  1.0167  1.0291
  102OSM   H16G10363   2.939   6.003   8.559  1.6165 -0.4433 -2.3467
  102OSM   C17F10364   2.771   5.915   8.436  0.6333  0.0936  0.2209
  102OSM   H17F10365   2.681   5.949   8.492 -0.6697 -1.1320 -1.0756
  102OSM   H17G10366   2.736   5.818   8.395  0.8796 -0.0916  0.4447
  102OSM   C18F10367   2.800   6.014   8.326 -0.2915  0.1963  0.3624
  102OSM   H18F10368   2.707   6.034   8.268 -1.0496 -1.1201  1.0683
  102OSM   H18G10369   2.890   5.992   8.265 -0.6817 -0.7874  0.1082
  102OSM   H18H10370   2.818   6.111   8.377 -1.3985  0.2699  0.6318
  103OSM      N10371   6.744   1.390  11.327  0.1617 -0.4260  0.3338
  103OSM    C1510372   6.639   1.288  11.304 -0.1531  0.2415 -0.7743
  103OSM   H15A10373   6.561   1.310  11.232 -0.5717 -2.3800 -1.2557
  103OSM   H15B10374   6.585   1.261  11.394  0.4095 -2.3189 -1.1094
  103OSM   H15C10375   6.682   1.195  11.268  3.2881  2.2758 -2.4321
  103OSM    C1410376   6.668   1.512  11.379 -1.1315  0.7344  0.2054
  103OSM   H14A10377   6.734   1.594  11.403 -0.3027  0.4224 -0.9379
  103OSM   H14B10378   6.602   1.495  11.463 -0.2055  0.2515  0.8509
  103OSM   H14C10379   6.594   1.550  11.311  0.1097 -0.0016 -1.6194
  103OSM    C1310380   6.842   1.344  11.431 -0.3819  0.0702 -0.9854
  103OSM   H13A10381   6.937   1.395  11.441  0.2802 -1.5359  2.9941
  103OSM   H13B10382   6.871   1.240  11.427  1.7340  0.5193  0.7064
  103OSM   H13C10383   6.795   1.358  11.527 -0.7164  0.7418 -1.2427
  103OSM    C1210384   6.830   1.424  11.203 -0.4942  0.6492 -0.5244
  103OSM   H12A10385   6.884   1.335  11.177 -0.3171 -0.3832  2.9169
  103OSM   H12B10386   6.905   1.495  11.235  0.0476  0.0354 -0.4080
  103OSM    C1110387   6.762   1.478  11.073 -0.5679  0.3026 -0.4624
  103OSM   H11A10388   6.841   1.500  10.998  0.8190 -0.0733  0.8278
  103OSM   H11B10389   6.709   1.573  11.094 -0.7529 -0.2372  1.7228
  103OSM      P10390   6.546   1.403  10.962 -0.1378  0.0732  0.1348
  103OSM    O1310391   6.516   1.303  10.859  0.0014 -0.2708 -0.8420
  103OSM    O1410392   6.455   1.411  11.078 -0.1490  0.3050  0.1032
  103OSM    O1110393   6.558   1.552  10.906 -0.4072  0.5698  0.9365
  103OSM    O1210394   6.693   1.370  11.009 -0.1381 -0.3812 -0.3297
  103OSM    C1S10395   6.632   1.572  10.782  0.2525  0.2419  0.5135
  103OSM    H1S10396   6.641   1.477  10.725 -0.0079  1.1409 -1.0816
  103OSM    H1T10397   6.739   1.598  10.800 -0.4299  1.4176  3.4945
  103OSM     NF10398   6.644   1.685  10.561 -0.6125 -0.2332  0.4564
  103OSM    HNF10399   6.692   1.770  10.540  0.6106 -0.7921  0.8859
  103OSM    C2S10400   6.565   1.674  10.682  0.5821  0.2570  0.0656
  103OSM    H2S10401   6.467   1.627  10.659  1.5578 -2.1005  0.4513
  103OSM    C3S10402   6.546   1.815  10.750  0.6321 -0.3245  0.1231
  103OSM    H3S10403   6.638   1.877  10.758  0.5568 -0.2688  0.6209
  103OSM     O310404   6.490   1.804  10.881 -0.0658 -0.2971  0.1152
  103OSM    HO310405   6.495   1.710  10.900  0.0758 -0.0852  1.1726
  103OSM    C4S10406   6.455   1.908  10.670  0.2067  0.3978 -0.2951
  103OSM    H4S10407   6.350   1.878  10.657 -0.1663  1.4951  0.0324
  103OSM    C5S10408   6.491   2.021  10.602 -0.4409  0.0422 -0.2898
  103OSM    H5S10409   6.600   2.037  10.599 -0.3331 -0.7709 -1.6841
  103OSM    C6S10410   6.410   2.111  10.515 -0.0852  0.0228 -0.1818
  103OSM    H6S10411   6.416   2.216  10.550 -0.9582  0.0366 -0.0470
  103OSM    H6T10412   6.301   2.088  10.509 -0.4372  1.5546 -0.2300
  103OSM    C7S10413   6.455   2.106  10.369  0.1109 -0.7522  0.0398
  103OSM    H7S10414   6.447   2.006  10.321 -0.8378  0.0810 -1.5993
  103OSM    H7T10415   6.562   2.137  10.373  0.0947 -0.7745  1.0369
  103OSM    C8S10416   6.373   2.196  10.279  0.4347  0.6855  0.0016
  103OSM    H8S10417   6.400   2.295  10.323 -1.2359  0.2243  2.2914
  103OSM    H8T10418   6.266   2.171  10.291  0.3998 -1.2146 -3.2114
  103OSM    C9S10419   6.403   2.171  10.132  0.4193  0.0400 -0.6222
  103OSM    H9S10420   6.364   2.069  10.114 -1.3126  0.0849  2.2337
  103OSM    H9T10421   6.512   2.172  10.114  0.2012 -0.1730 -2.0399
  103OSM   C10S10422   6.329   2.269  10.044  0.0167  0.3673  0.2138
  103OSM   H10S10423   6.368   2.371  10.065 -1.3939  1.3154 -1.4376
  103OSM   H10T10424   6.221   2.273  10.071  0.4643  0.1209  2.1729
  103OSM   C11S10425   6.347   2.241   9.888  0.3790 -0.3806  0.9807
  103OSM   H11S10426   6.264   2.172   9.864  0.1821  0.5171 -1.1865
  103OSM   H11T10427   6.441   2.191   9.856 -0.6982 -1.7164 -0.1937
  103OSM   C12S10428   6.321   2.369   9.805  0.0918  0.5463  0.1150
  103OSM   H12S10429   6.395   2.451   9.816 -1.7049  2.0510  1.8536
  103OSM   H12T10430   6.223   2.410   9.837 -0.8020 -2.4092  1.5514
  103OSM   C13S10431   6.296   2.346   9.655  0.1256  0.0253  0.1290
  103OSM   H13S10432   6.194   2.307   9.635  0.1282  1.1461 -2.4511
  103OSM   H13T10433   6.360   2.259   9.630 -1.4097 -1.3569  0.8458
  103OSM   C14S10434   6.323   2.469   9.572  0.1293  0.1476 -0.0883
  103OSM   H14S10435   6.407   2.532   9.609  0.9221 -0.3270 -1.0336
  103OSM   H14T10436   6.236   2.535   9.553  0.8555  1.4696  1.0205
  103OSM   C15S10437   6.352   2.420   9.427  0.5291  0.4562 -0.3979
  103OSM   H15S10438   6.264   2.365   9.389 -0.6613  1.1822  1.1989
  103OSM   H15T10439   6.439   2.351   9.428  0.3808  0.2685  0.2253
  103OSM   C16S10440   6.398   2.526   9.332  0.3869 -0.0991 -0.0571
  103OSM   H16S10441   6.495   2.568   9.367 -0.1859  1.2942 -0.0589
  103OSM   H16T10442   6.323   2.608   9.343  2.9311  2.2457  0.8622
  103OSM   C17S10443   6.424   2.476   9.196 -0.1298  0.3808  0.5105
  103OSM   H17S10444   6.521   2.423   9.188 -0.9645 -0.9618 -1.4561
  103OSM   H17T10445   6.426   2.572   9.139 -1.2152  0.8946  1.2932
  103OSM   C18S10446   6.311   2.397   9.129 -0.7568 -0.3216  0.5489
  103OSM   H18S10447   6.276   2.306   9.183  1.0372 -1.3859 -0.0112
  103OSM   H18T10448   6.335   2.367   9.025  0.6597  1.1385  0.4163
  103OSM   H18U10449   6.222   2.463   9.123  0.2653  1.1576  0.9971
  103OSM    C1F10450   6.648   1.596  10.475  0.7814  0.6188  0.2260
  103OSM     OF10451   6.583   1.495  10.484 -0.1363 -0.3374  0.5353
  103OSM    C2F10452   6.730   1.625  10.359 -0.1286 -0.2218  0.5671
  103OSM    H2F10453   6.796   1.539  10.337  0.1164  0.2689 -0.6904
  103OSM    H2G10454   6.780   1.723  10.372 -1.0621  0.5648 -1.3265
  103OSM    C3F10455   6.645   1.647  10.230  0.3434  0.1489  0.0297
  103OSM    H3F10456   6.582   1.735  10.252 -2.7868 -2.0235  0.3999
  103OSM    H3G10457   6.583   1.556  10.215  1.8157 -0.9671  0.3678
  103OSM    C4F10458   6.738   1.647  10.118  0.9399 -0.3093  0.8396
  103OSM    H4F10459   6.788   1.549  10.131 -0.8533 -1.0092  3.1114
  103OSM    H4G10460   6.817   1.725  10.118  1.5659 -0.9129  2.0090
  103OSM    C5F10461   6.663   1.659   9.978 -0.9066  0.3171 -0.0401
  103OSM    H5F10462   6.589   1.742   9.987  1.9609  3.0073  0.4708
  103OSM    H5G10463   6.600   1.568   9.963 -0.6287  0.5872 -3.6756
  103OSM    C6F10464   6.764   1.686   9.865 -0.1936  0.0140  0.4090
  103OSM    H6F10465   6.826   1.594   9.863  1.6027  1.0936  1.9742
  103OSM    H6G10466   6.842   1.753   9.908  1.3946 -0.7786 -1.1064
  103OSM    C7F10467   6.700   1.737   9.737  0.8506 -0.2883 -0.4484
  103OSM    H7F10468   6.642   1.828   9.762 -0.3311 -1.1364  0.0036
  103OSM    H7G10469   6.629   1.658   9.704  0.9293 -1.4386  1.8898
  103OSM    C8F10470   6.795   1.763   9.621  0.0686  0.2745  0.1270
  103OSM    H8F10471   6.841   1.665   9.595 -0.0360  0.1996  0.2222
  103OSM    H8G10472   6.881   1.822   9.661  1.1505 -1.9868  1.4382
  103OSM    C9F10473   6.731   1.825   9.495 -0.2573 -0.8071  0.1748
  103OSM    H9F10474   6.623   1.806   9.492 -0.3249 -0.4135  0.0411
  103OSM   C10F10475   6.794   1.914   9.412  0.3312  0.0865 -0.0674
  103OSM   H10F10476   6.753   1.953   9.317  1.6121 -0.5417 -0.8928
  103OSM   C11F10477   6.940   1.963   9.432  0.2948 -0.5823  0.8089
  103OSM   H11F10478   6.989   1.943   9.530  1.2479 -1.7711  0.1157
  103OSM   H11G10479   6.949   2.072   9.416 -0.9670 -0.4501  0.8868
  103OSM   C12F10480   7.019   1.884   9.322 -0.2607 -0.2065  0.2165
  103OSM   H12F10481   6.990   1.778   9.307  2.6877 -1.1598  0.5854
  103OSM   H12G10482   7.127   1.889   9.348 -0.6435 -1.6622  2.3920
  103OSM   C13F10483   7.001   1.946   9.181 -1.0328  0.4201 -0.0177
  103OSM   H13F10484   6.988   2.055   9.193  0.4164  0.5228  0.9079
  103OSM   H13G10485   6.911   1.910   9.127 -1.2783  0.0184  0.6493
  103OSM   C14F10486   7.122   1.926   9.086  0.4798 -0.5756  0.2186
  103OSM   H14F10487   7.149   1.820   9.102  1.7454 -0.1048  1.4476
  103OSM   H14G10488   7.192   1.994   9.140  1.6467 -0.2821 -1.5775
  103OSM   C15F10489   7.120   1.983   8.946  0.2523 -0.1860 -0.2213
  103OSM   H15F10490   7.087   2.087   8.923  0.0602 -0.7207 -2.6972
  103OSM   H15G10491   7.056   1.917   8.884  0.7659 -1.1011  0.2171
  103OSM   C16F10492   7.258   1.948   8.896 -0.6924  0.2262  0.0303
  103OSM   H16F10493   7.257   1.838   8.879  2.9539  0.2982 -1.7394
  103OSM   H16G10494   7.348   1.963   8.961 -0.9939 -1.0306  0.7857
  103OSM   C17F10495   7.279   2.028   8.773  0.7383 -0.1920  0.4229
  103OSM   H17F10496   7.290   2.135   8.799  2.6714  0.5590 -2.8028
  103OSM   H17G10497   7.187   2.036   8.712  0.2732 -0.2082  1.1172
  103OSM   C18F10498   7.411   2.007   8.689  0.1951  0.5916  0.5744
  103OSM   H18F10499   7.496   2.016   8.760 -0.7396  1.8963  1.5677
  103OSM   H18G10500   7.414   2.085   8.610  1.3505 -1.2946 -1.3584
  103OSM   H18H10501   7.419   1.909   8.637  0.1529  0.1935  1.3042
  104OSM      N10502   2.059   1.957  10.970  0.3157 -1.2271 -0.3413
  104OSM    C1510503   2.179   1.979  11.057  0.1721 -0.3872  0.1429
  104OSM   H15A10504   2.245   2.055  11.018  0.2130 -0.9731 -0.9943
  104OSM   H15B10505   2.249   1.896  11.057 -0.5911 -1.0458  0.5144
  104OSM   H15C10506   2.156   1.996  11.161  0.4897 -1.3944  0.3887
  104OSM    C1410507   1.957   1.880  11.052 -0.5262 -0.2750  0.3448
  104OSM   H14A10508   1.915   1.940  11.130 -0.1771  0.0152  0.3099
  104OSM   H14B10509   2.014   1.796  11.089 -0.7044 -0.3418  0.4683
  104OSM   H14C10510   1.883   1.844  10.982 -0.6497 -0.0006  0.3344
  104OSM    C1310511   2.007   2.092  10.932 -0.1667  0.2841  0.5766
  104OSM   H13A10512   1.912   2.086  10.881 -0.1324  0.2483  0.5182
  104OSM   H13B10513   2.079   2.159  10.888 -1.7157  1.1564 -0.7678
  104OSM   H13C10514   1.990   2.141  11.027  0.5347 -0.0463  0.8756
  104OSM    C1210515   2.093   1.880  10.844  0.2315  0.0020 -0.0142
  104OSM   H12A10516   2.134   1.783  10.865 -0.8495 -0.6773 -0.9501
  104OSM   H12B10517   2.175   1.934  10.798 -0.4345  0.1575 -1.0528
  104OSM    C1110518   1.991   1.856  10.729 -0.4363 -0.7804 -0.5746
  104OSM   H11A10519   2.025   1.805  10.636  1.3632  0.1049 -0.4533
  104OSM   H11B10520   1.966   1.960  10.699  3.4347  0.3472 -0.4328
  104OSM      P10521   1.876   1.624  10.790 -0.2494 -0.1037 -0.2463
  104OSM    O1310522   1.986   1.572  10.875 -0.1850  0.2076  0.1503
  104OSM    O1410523   1.743   1.582  10.835 -0.4821 -0.5327 -0.0687
  104OSM    O1110524   1.898   1.574  10.642  0.4530 -0.2130 -0.3595
  104OSM    O1210525   1.879   1.781  10.776 -0.4420 -0.0563 -0.4301
  104OSM    C1S10526   1.807   1.607  10.540  0.1129 -0.3587  0.9387
  104OSM    H1S10527   1.790   1.716  10.546 -2.5612 -0.5504 -1.5189
  104OSM    H1T10528   1.710   1.555  10.557  0.9732 -2.8080 -0.9814
  104OSM     NF10529   1.767   1.607  10.300  0.3116  0.0485 -0.1326
  104OSM    HNF10530   1.689   1.545  10.308  0.1535  0.3181  0.4783
  104OSM    C2S10531   1.872   1.585  10.398  0.2424  0.0132  0.5020
  104OSM    H2S10532   1.957   1.654  10.381  1.6254 -1.5563  0.7451
  104OSM    C3S10533   1.931   1.440  10.386 -0.0358 -0.0368 -0.3030
  104OSM    H3S10534   1.860   1.363  10.423  1.7646 -0.5615  2.3810
  104OSM     O310535   2.040   1.415  10.477  0.3652  0.0253  0.2002
  104OSM    HO310536   2.039   1.496  10.528  1.3714  1.2076 -1.5439
  104OSM    C4S10537   1.978   1.397  10.248  0.3142 -0.0678  0.4059
  104OSM    H4S10538   2.076   1.439  10.220  0.2709 -0.3867 -0.2565
  104OSM    C5S10539   1.917   1.305  10.165  0.1556  0.4681  0.1676
  104OSM    H5S10540   1.836   1.244  10.206  1.5000 -1.2969  0.3119
  104OSM    C6S10541   1.979   1.261  10.032  0.0791  0.1487  0.0996
  104OSM    H6S10542   2.052   1.339  10.001 -0.8907  1.1700  0.3259
  104OSM    H6T10543   1.902   1.246   9.954 -1.2282  0.1251  1.3530
  104OSM    C7S10544   2.052   1.134  10.043 -0.1265  0.1353 -0.5761
  104OSM    H7S10545   1.973   1.061  10.071 -0.2088  0.4572  0.0202
  104OSM    H7T10546   2.127   1.135  10.125 -1.4757 -0.8238  0.7190
  104OSM    C8S10547   2.112   1.088   9.908  0.4663 -0.2166 -0.1726
  104OSM    H8S10548   2.179   1.169   9.871  1.0805 -1.4631 -1.9547
  104OSM    H8T10549   2.046   1.080   9.819  2.3832 -1.4569 -1.5789
  104OSM    C9S10550   2.195   0.953   9.919 -0.7919  0.7989  0.8034
  104OSM    H9S10551   2.128   0.870   9.951 -2.7925  2.1222  0.2530
  104OSM    H9T10552   2.273   0.960   9.998  1.0847 -1.0114 -0.8000
  104OSM   C10S10553   2.279   0.919   9.796 -0.1663 -1.0207 -0.4999
  104OSM   H10S10554   2.359   0.846   9.822  0.8245  0.3675  0.5328
  104OSM   H10T10555   2.319   1.018   9.763 -0.2077 -2.0017 -3.7901
  104OSM   C11S10556   2.199   0.860   9.674  0.3899  0.7654  0.6330
  104OSM   H11S10557   2.101   0.913   9.676 -0.1246 -0.1684  0.5862
  104OSM   H11T10558   2.179   0.751   9.684 -0.6857  0.8472 -0.3468
  104OSM   C12S10559   2.260   0.892   9.534 -0.0902  0.1890  0.1116
  104OSM   H12S10560   2.368   0.871   9.545 -0.4398 -1.8361  0.0637
  104OSM   H12T10561   2.237   1.000   9.517 -0.8538  0.1135  0.6223
  104OSM   C13S10562   2.204   0.818   9.416 -0.9087 -0.6731 -0.3428
  104OSM   H13S10563   2.097   0.847   9.412 -0.0584  3.1976  0.5609
  104OSM   H13T10564   2.215   0.707   9.420 -1.0084 -0.6500  0.9983
  104OSM   C14S10565   2.273   0.867   9.287 -0.3146 -0.2101  0.0827
  104OSM   H14S10566   2.376   0.825   9.287 -1.6720 -3.8693 -0.1204
  104OSM   H14T10567   2.268   0.978   9.296 -2.8219 -0.0397 -2.1680
  104OSM   C15S10568   2.202   0.826   9.154  0.0889 -0.3159  0.1345
  104OSM   H15S10569   2.097   0.850   9.183  0.4916  0.5449  0.9469
  104OSM   H15T10570   2.219   0.719   9.130  0.1683 -0.5716  1.2973
  104OSM   C16S10571   2.235   0.917   9.039 -0.4304 -0.2921  0.1346
  104OSM   H16S10572   2.313   0.865   8.980  0.7214 -1.5872  2.6344
  104OSM   H16T10573   2.284   1.011   9.072 -1.1664 -0.1735  0.9321
  104OSM   C17S10574   2.115   0.947   8.944 -0.1450  0.4551 -0.5696
  104OSM   H17S10575   2.140   1.024   8.868  0.0009 -0.2995 -1.3100
  104OSM   H17T10576   2.041   0.983   9.018  0.1563 -0.0567 -0.0090
  104OSM   C18S10577   2.065   0.825   8.871  0.7171 -0.0195  0.4704
  104OSM   H18S10578   2.144   0.793   8.799 -1.9338 -4.5009 -0.8850
  104OSM   H18T10579   1.975   0.838   8.807  0.9603  0.4251  0.2127
  104OSM   H18U10580   2.042   0.741   8.940 -1.1816 -1.6460 -1.9658
  104OSM    C1F10581   1.738   1.732  10.262 -0.0059  0.0493 -0.1905
  104OSM     OF10582   1.801   1.824  10.301  0.0577 -0.0103  0.7083
  104OSM    C2F10583   1.624   1.751  10.176  0.3587  0.1578  0.2532
  104OSM    H2F10584   1.560   1.837  10.204  1.1786  0.7291  0.4046
  104OSM    H2G10585   1.564   1.658  10.182  0.6390 -0.0153  0.3773
  104OSM    C3F10586   1.668   1.795  10.034  0.6633 -0.2864  0.1647
  104OSM    H3F10587   1.724   1.891  10.041  2.0387 -0.8206 -2.2198
  104OSM    H3G10588   1.580   1.812   9.968  1.1422 -0.0454 -0.4289
  104OSM    C4F10589   1.755   1.696   9.957 -0.4248  0.0618 -0.1671
  104OSM    H4F10590   1.850   1.681  10.013 -0.1231 -0.4141 -0.7875
  104OSM    H4G10591   1.777   1.744   9.860 -0.3102  0.3666  0.0085
  104OSM    C5F10592   1.671   1.571   9.927  0.5489 -0.1332  0.1888
  104OSM    H5F10593   1.571   1.606   9.893  0.8253  1.2849  0.7839
  104OSM    H5G10594   1.652   1.525  10.027  1.8364 -0.8560  0.1219
  104OSM    C6F10595   1.726   1.461   9.840  0.4552 -0.3348 -0.2006
  104OSM    H6F10596   1.659   1.374   9.858 -2.0434  0.7117 -3.4602
  104OSM    H6G10597   1.827   1.429   9.874  0.1999 -1.1644 -0.1836
  104OSM    C7F10598   1.721   1.497   9.688  0.2383 -0.2908 -0.0335
  104OSM    H7F10599   1.761   1.600   9.680  0.9045 -0.2607  2.7521
  104OSM    H7G10600   1.610   1.493   9.676  0.0114  3.2808 -0.0919
  104OSM    C8F10601   1.785   1.390   9.595 -0.2882 -0.8362  0.3011
  104OSM    H8F10602   1.777   1.432   9.492 -1.3456 -1.4889  0.1019
  104OSM    H8G10603   1.717   1.303   9.607 -0.5842 -0.7511 -0.7094
  104OSM    C9F10604   1.926   1.343   9.623 -0.3039 -0.0793  0.2476
  104OSM    H9F10605   1.972   1.392   9.711 -0.9776  2.0402 -0.5127
  104OSM   C10F10606   1.998   1.251   9.559 -0.5697  0.8564  0.2563
  104OSM   H10F10607   2.100   1.227   9.595 -0.8269 -1.0166 -0.2045
  104OSM   C11F10608   1.954   1.168   9.449  0.3270 -0.4960  0.3101
  104OSM   H11F10609   1.846   1.181   9.427  0.3450 -0.5918  0.1605
  104OSM   H11G10610   1.973   1.063   9.482  1.1960 -0.4965 -0.1493
  104OSM   C12F10611   2.032   1.176   9.314  0.5111 -0.0009 -0.5347
  104OSM   H12F10612   1.981   1.111   9.240 -1.5896  1.6835 -0.6646
  104OSM   H12G10613   2.141   1.155   9.311  0.2760 -1.3234 -0.4195
  104OSM   C13F10614   2.028   1.319   9.262  0.2604 -0.3375 -0.1686
  104OSM   H13F10615   2.095   1.385   9.321  0.5982 -0.7205 -0.1147
  104OSM   H13G10616   1.923   1.346   9.284  0.4754  1.4327 -1.1821
  104OSM   C14F10617   2.057   1.332   9.114 -0.5936 -0.2263 -0.3871
  104OSM   H14F10618   1.989   1.261   9.062 -3.5878  0.9071  1.6863
  104OSM   H14G10619   2.163   1.305   9.095  0.0776  0.9618  1.3954
  104OSM   C15F10620   2.043   1.482   9.063  0.2605 -0.1045 -1.0218
  104OSM   H15F10621   2.128   1.534   9.111 -1.0634  0.8109  0.4394
  104OSM   H15G10622   1.939   1.518   9.077  0.5735  1.5189 -2.4990
  104OSM   C16F10623   2.088   1.490   8.916 -0.1292  0.2231 -0.9076
  104OSM   H16F10624   2.166   1.411   8.906 -0.7152 -0.2659 -1.7593
  104OSM   H16G10625   2.129   1.592   8.900 -2.0542  1.1565 -0.1300
  104OSM   C17F10626   1.975   1.466   8.811 -0.6044 -0.5036  0.5992
  104OSM   H17F10627   1.899   1.547   8.818  0.8400  1.1287 -1.2268
  104OSM   H17G10628   1.936   1.366   8.839  1.6166 -1.2057  1.4001
  104OSM   C18F10629   2.032   1.466   8.665 -0.0227  0.5699 -0.0157
  104OSM   H18F10630   2.090   1.376   8.638 -1.8855 -0.5270 -0.5673
  104OSM   H18G10631   2.095   1.555   8.644  0.2228  0.1765 -0.9802
  104OSM   H18H10632   1.952   1.472   8.588 -0.6655  1.7727  0.7086
  105OSM      N10633   5.621   4.327  11.140  0.0914  0.0501  0.2996
  105OSM    C1510634   5.731   4.367  11.240  0.2001 -0.1896  0.5001
  105OSM   H15A10635   5.765   4.281  11.296  2.3463  0.2110 -0.0887
  105OSM   H15B10636   5.693   4.425  11.322 -0.7696 -0.5501  0.3213
  105OSM   H15C10637   5.817   4.415  11.195  1.0648 -2.4032 -0.4055
  105OSM    C1410638   5.519   4.250  11.212 -0.5494  0.5751 -0.2079
  105OSM   H14A10639   5.499   4.295  11.308  0.9871 -2.9080  1.9425
  105OSM   H14B10640   5.552   4.148  11.230  0.4596  0.3035 -3.0320
  105OSM   H14C10641   5.434   4.233  11.147  0.5673 -0.4264 -1.4786
  105OSM    C1310642   5.558   4.456  11.087  0.3672  0.2056  0.6147
  105OSM   H13A10643   5.476   4.433  11.022  1.1009 -0.7399 -0.0017
  105OSM   H13B10644   5.621   4.533  11.044 -1.2600  1.7353  0.8243
  105OSM   H13C10645   5.506   4.502  11.170 -1.0252  1.2450 -0.7721
  105OSM    C1210646   5.685   4.243  11.026 -0.2000  0.5135 -0.3710
  105OSM   H12A10647   5.738   4.313  10.962  0.0889  1.6233  1.0303
  105OSM   H12B10648   5.603   4.223  10.959 -0.9679  1.2301  0.3403
  105OSM    C1110649   5.754   4.115  11.073 -0.2204  0.2167  0.2406
  105OSM   H11A10650   5.833   4.131  11.150 -0.5524  3.0104  0.1097
  105OSM   H11B10651   5.808   4.081  10.982 -1.9054 -1.5841 -0.1599
  105OSM      P10652   5.576   3.925  11.027  0.1603 -0.0331 -0.1711
  105OSM    O1310653   5.611   3.785  11.051 -0.0198 -0.3391 -0.2143
  105OSM    O1410654   5.436   3.971  11.043  0.2844 -0.2226 -0.2753
  105OSM    O1110655   5.622   3.968  10.884  0.5178  0.0254 -0.4433
  105OSM    O1210656   5.668   4.015  11.124 -0.3562 -0.0418  1.0704
  105OSM    C1S10657   5.562   3.916  10.765  0.1972  0.3397  0.1140
  105OSM    H1S10658   5.474   3.850  10.779  0.5036 -0.0697  0.1446
  105OSM    H1T10659   5.638   3.850  10.716  1.3435  0.9879  0.9569
  105OSM     NF10660   5.454   3.966  10.549 -0.1001 -0.5611  0.0752
  105OSM    HNF10661   5.506   3.967  10.463  0.6217  0.1783  0.5121
  105OSM    C2S10662   5.521   4.022  10.668  0.2965  0.3897  0.1165
  105OSM    H2S10663   5.457   4.100  10.716  0.4741  0.8124 -0.3229
  105OSM    C3S10664   5.645   4.110  10.624 -0.4793 -0.5612  0.7870
  105OSM    H3S10665   5.703   4.036  10.564 -1.5684 -1.6408  1.0330
  105OSM     O310666   5.720   4.149  10.738  0.1776  0.3625 -0.1839
  105OSM    HO310667   5.695   4.087  10.806  3.4220 -0.3930  0.5089
  105OSM    C4S10668   5.591   4.230  10.542  0.4189  0.1420 -0.2548
  105OSM    H4S10669   5.523   4.293  10.601  2.5561  0.8044  1.6513
  105OSM    C5S10670   5.623   4.251  10.411 -0.0918 -0.2379  0.4287
  105OSM    H5S10671   5.690   4.180  10.361  1.0633 -0.1154  1.7691
  105OSM    C6S10672   5.556   4.362  10.328  0.0195  0.1222 -0.0157
  105OSM    H6S10673   5.641   4.426  10.295  1.7205 -1.9278  0.1480
  105OSM    H6T10674   5.485   4.429  10.381  1.1970  1.4756 -0.0836
  105OSM    C7S10675   5.485   4.323  10.194 -0.2547  0.0406 -0.0906
  105OSM    H7S10676   5.390   4.271  10.221  0.7142 -0.7610  1.9707
  105OSM    H7T10677   5.544   4.244  10.143  0.9379 -0.2754  1.6867
  105OSM    C8S10678   5.472   4.444  10.099 -0.4316  0.0052 -0.5885
  105OSM    H8S10679   5.570   4.496  10.097 -0.5964  0.3142 -0.8571
  105OSM    H8T10680   5.411   4.525  10.145  0.0815 -0.4459  0.9399
  105OSM    C9S10681   5.424   4.408   9.965 -0.2382 -0.2224 -0.0230
  105OSM    H9S10682   5.313   4.403   9.976  0.0648 -1.7440  3.6670
  105OSM    H9T10683   5.464   4.307   9.945  0.0003 -0.1767  0.2112
  105OSM   C10S10684   5.448   4.524   9.863  0.3171 -0.6115 -0.1915
  105OSM   H10S10685   5.556   4.538   9.842  1.0899 -1.9722  2.4167
  105OSM   H10T10686   5.405   4.611   9.918 -1.0813 -1.6371  0.4091
  105OSM   C11S10687   5.378   4.523   9.731 -0.2322  0.2207  0.0170
  105OSM   H11S10688   5.268   4.507   9.735 -0.1633 -0.9920 -1.7740
  105OSM   H11T10689   5.421   4.449   9.661  0.5695  0.2303  0.4962
  105OSM   C12S10690   5.395   4.655   9.657  0.5278  0.5476  0.1013
  105OSM   H12S10691   5.499   4.691   9.673  0.0661  0.9313  2.6601
  105OSM   H12T10692   5.330   4.734   9.701  1.5077  0.8158  1.0893
  105OSM   C13S10693   5.370   4.633   9.500 -0.1723 -0.0466  0.3746
  105OSM   H13S10694   5.443   4.565   9.453 -0.9984 -0.3325 -0.5309
  105OSM   H13T10695   5.374   4.732   9.450  3.3148 -1.0284 -1.5503
  105OSM   C14S10696   5.243   4.564   9.464 -0.4428 -0.5436  0.3608
  105OSM   H14S10697   5.167   4.625   9.517  0.0083  1.8552 -1.6179
  105OSM   H14T10698   5.245   4.458   9.499 -1.3939 -0.3831  0.9516
  105OSM   C15S10699   5.215   4.574   9.316 -0.0654  0.0714 -0.6876
  105OSM   H15S10700   5.222   4.681   9.289 -1.3708  0.5481  0.7359
  105OSM   H15T10701   5.107   4.551   9.304 -0.2988 -0.5401  1.9677
  105OSM   C16S10702   5.300   4.477   9.234  0.2916 -0.2207 -0.8617
  105OSM   H16S10703   5.299   4.375   9.276 -0.0797  1.0633  2.5508
  105OSM   H16T10704   5.406   4.509   9.246 -0.3281  1.4437  0.5382
  105OSM   C17S10705   5.266   4.470   9.090  0.1511  0.8353  0.2465
  105OSM   H17S10706   5.244   4.571   9.051 -0.4882  0.4697 -0.3563
  105OSM   H17T10707   5.172   4.411   9.086  0.3160  0.3969  1.8179
  105OSM   C18S10708   5.372   4.406   8.999  0.1266 -0.2690 -0.6875
  105OSM   H18S10709   5.331   4.391   8.896 -1.0273 -0.9253 -0.1660
  105OSM   H18T10710   5.403   4.309   9.043 -0.2669  1.5728  4.2491
  105OSM   H18U10711   5.465   4.465   9.001 -0.5863  0.8811 -0.5721
  105OSM    C1F10712   5.330   3.917  10.554  0.5474 -0.3688 -0.5800
  105OSM     OF10713   5.273   3.892  10.661 -0.2981 -0.1559 -0.1052
  105OSM    C2F10714   5.275   3.875  10.433  0.4807  0.0683  0.3050
  105OSM    H2F10715   5.247   3.769  10.455  0.9926 -0.3313 -0.8789
  105OSM    H2G10716   5.358   3.887  10.360  1.0884 -1.3445  0.7255
  105OSM    C3F10717   5.153   3.953  10.399  1.1133  0.2650  0.3382
  105OSM    H3F10718   5.080   3.944  10.483  0.9391  2.3026  0.4513
  105OSM    H3G10719   5.108   3.907  10.309 -2.7482 -2.2470  3.1961
  105OSM    C4F10720   5.170   4.103  10.366  0.1422 -0.0429 -0.6245
  105OSM    H4F10721   5.255   4.113  10.295  1.7766  2.4968  1.4893
  105OSM    H4G10722   5.211   4.155  10.455 -0.8014 -2.3549  1.2660
  105OSM    C5F10723   5.050   4.177  10.311  0.1775  0.3387  0.4202
  105OSM    H5F10724   4.970   4.168  10.389  0.6222 -0.2230  0.8219
  105OSM    H5G10725   5.025   4.114  10.223  1.4805  0.3237  0.0377
  105OSM    C6F10726   5.072   4.325  10.272  0.9940  0.2667 -0.3874
  105OSM    H6F10727   5.137   4.313  10.182  1.3110 -0.0421 -0.1190
  105OSM    H6G10728   5.126   4.382  10.350  1.2806 -1.5427  0.7933
  105OSM    C7F10729   4.931   4.380  10.225 -0.8412  0.4743  1.2990
  105OSM    H7F10730   4.857   4.371  10.307 -4.4539 -0.5808 -1.7891
  105OSM    H7G10731   4.891   4.313  10.145  0.2481 -0.6865  1.6933
  105OSM    C8F10732   4.948   4.525  10.167 -0.4424 -0.9242  0.0613
  105OSM    H8F10733   5.011   4.496  10.080  0.8409 -2.5961  1.4666
  105OSM    H8G10734   5.012   4.587  10.232  1.8145 -0.8476 -2.0704
  105OSM    C9F10735   4.821   4.586  10.132 -0.3196 -0.8411 -0.0081
  105OSM    H9F10736   4.739   4.567  10.202 -1.2174 -0.4653 -0.9309
  105OSM   C10F10737   4.807   4.683  10.036 -0.2283 -0.1757  0.2882
  105OSM   H10F10738   4.703   4.715  10.022  0.1396  0.4754 -1.1823
  105OSM   C11F10739   4.914   4.740   9.951  0.0561 -0.3012 -0.5256
  105OSM   H11F10740   5.015   4.711   9.989 -0.4049 -0.5061  0.5931
  105OSM   H11G10741   4.914   4.851   9.948  0.3545 -0.3187 -1.4322
  105OSM   C12F10742   4.912   4.688   9.803  0.2583 -0.3959 -0.4592
  105OSM   H12F10743   4.981   4.747   9.741 -0.1756  0.0887 -0.4844
  105OSM   H12G10744   4.810   4.708   9.763 -0.1434 -2.1329 -0.4199
  105OSM   C13F10745   4.945   4.540   9.792  0.4849 -0.0299 -0.5796
  105OSM   H13F10746   4.890   4.475   9.863  1.6123  0.2024  0.5543
  105OSM   H13G10747   5.052   4.518   9.816  0.2107 -1.1528 -0.3043
  105OSM   C14F10748   4.936   4.500   9.645  0.0853 -0.3449  0.0219
  105OSM   H14F10749   4.987   4.578   9.584 -0.8535  0.0712 -0.2650
  105OSM   H14G10750   4.826   4.501   9.627 -0.3544  0.0086  2.3784
  105OSM   C15F10751   4.978   4.353   9.622 -0.7040  0.0557 -0.0107
  105OSM   H15F10752   4.913   4.286   9.682  0.1350  0.6004  1.5818
  105OSM   H15G10753   5.075   4.346   9.676 -0.7763 -0.7479  0.0248
  105OSM   C16F10754   4.982   4.315   9.471  0.5026  0.1163  0.0765
  105OSM   H16F10755   5.022   4.212   9.461  2.1012  0.6486  0.5734
  105OSM   H16G10756   5.058   4.379   9.421 -1.8521  1.7008 -1.6661
  105OSM   C17F10757   4.847   4.323   9.403  0.2979  0.2563 -0.5913
  105OSM   H17F10758   4.828   4.431   9.387 -1.2267 -0.1140 -1.4865
  105OSM   H17G10759   4.780   4.273   9.476  1.2737 -1.9431 -1.0965
  105OSM   C18F10760   4.858   4.251   9.265 -0.0986 -0.0859  0.0678
  105OSM   H18F10761   4.757   4.267   9.223 -0.5393 -0.0268  1.1011
  105OSM   H18G10762   4.867   4.142   9.282  0.2772 -0.0197  0.3151
  105OSM   H18H10763   4.933   4.295   9.197  0.7542  2.0682  2.2264
  106OSM      N10764   3.628   3.895  10.803 -0.5609 -0.0763  1.0442
  106OSM    C1510765   3.607   3.921  10.658 -0.3964  0.5350 -0.3291
  106OSM   H15A10766   3.581   4.026  10.647 -1.0795  0.6410  1.7882
  106OSM   H15B10767   3.534   3.860  10.607 -0.0023 -1.1803  1.0496
  106OSM   H15C10768   3.700   3.906  10.606 -0.0932 -1.6826  0.7424
  106OSM    C1410769   3.676   3.754  10.815 -0.0280 -0.1260  0.1966
  106OSM   H14A10770   3.745   3.741  10.733 -0.6634 -3.0364  0.0370
  106OSM   H14B10771   3.596   3.683  10.800  0.3744 -0.6840  0.6677
  106OSM   H14C10772   3.728   3.728  10.906  1.3035  0.9781 -0.1988
  106OSM    C1310773   3.736   3.985  10.860  0.1518  0.1615  0.7518
  106OSM   H13A10774   3.824   3.971  10.798 -2.8102  1.2316 -4.2944
  106OSM   H13B10775   3.759   3.966  10.964  2.1101 -0.7882  0.2029
  106OSM   H13C10776   3.718   4.091  10.852  0.1780  0.1682  0.7769
  106OSM    C1210777   3.498   3.920  10.884  0.0642  0.4661 -0.1943
  106OSM   H12A10778   3.466   4.022  10.874  0.2861  0.4198 -1.5872
  106OSM   H12B10779   3.512   3.909  10.990 -2.8514 -1.9181  0.0704
  106OSM    C1110780   3.368   3.831  10.861  0.3415 -0.9158  0.6378
  106OSM   H11A10781   3.346   3.826  10.752  2.9836  3.3075 -0.3340
  106OSM   H11B10782   3.284   3.887  10.908  0.6505 -0.9670  1.2640
  106OSM      P10783   3.314   3.570  10.851 -0.1301  0.1173 -0.0749
  106OSM    O1310784   3.305   3.461  10.949  0.7781  0.1530  0.6161
  106OSM    O1410785   3.200   3.602  10.768  0.6132  0.5775 -0.0402
  106OSM    O1110786   3.439   3.548  10.755 -0.2868 -0.5281  0.2514
  106OSM    O1210787   3.368   3.701  10.924  0.0537 -0.3278 -0.3363
  106OSM    C1S10788   3.467   3.441  10.660  0.1623  0.0737 -0.0300
  106OSM    H1S10789   3.424   3.346  10.698 -1.2140  1.1445  1.1852
  106OSM    H1T10790   3.577   3.424  10.652  0.1134  0.1430 -0.9114
  106OSM     NF10791   3.465   3.340  10.445  0.0191  0.0390 -0.1363
  106OSM    HNF10792   3.538   3.355  10.378  0.4380  0.9602  0.5181
  106OSM    C2S10793   3.419   3.457  10.513  0.2890 -0.7205  0.1320
  106OSM    H2S10794   3.308   3.464  10.507  0.3882 -0.0251 -1.3118
  106OSM    C3S10795   3.464   3.593  10.452 -0.1357 -0.3817 -0.4574
  106OSM    H3S10796   3.574   3.589  10.459 -0.1921  0.5071  1.6583
  106OSM     O310797   3.433   3.706  10.534 -0.0855  0.5620 -0.0618
  106OSM    HO310798   3.418   3.675  10.624 -0.7628 -0.0908 -0.3860
  106OSM    C4S10799   3.421   3.613  10.308  0.3082 -0.2207  0.6180
  106OSM    H4S10800   3.505   3.623  10.237 -0.5755  1.1143 -0.2802
  106OSM    C5S10801   3.293   3.647  10.267 -0.3505 -0.2553 -0.4023
  106OSM    H5S10802   3.215   3.638  10.344  0.3030 -3.4654  0.0387
  106OSM    C6S10803   3.259   3.677  10.121  0.2484 -0.0494  0.1133
  106OSM    H6S10804   3.355   3.714  10.079  0.9608 -0.5497  1.2584
  106OSM    H6T10805   3.187   3.761  10.104  1.2583  0.5280 -1.4448
  106OSM    C7S10806   3.189   3.551  10.063 -0.0249  0.1468  0.0004
  106OSM    H7S10807   3.124   3.499  10.137 -0.5590 -0.3359 -0.7949
  106OSM    H7T10808   3.279   3.486  10.053  2.0731  2.9242 -0.5429
  106OSM    C8S10809   3.117   3.584   9.929 -0.1912  0.5188  0.8566
  106OSM    H8S10810   3.034   3.658   9.937  1.2150  2.2128  0.1757
  106OSM    H8T10811   3.055   3.492   9.918  0.4779  0.2215 -0.5399
  106OSM    C9S10812   3.209   3.611   9.811 -0.0038 -0.2440 -0.7714
  106OSM    H9S10813   3.292   3.537   9.816 -1.1384 -1.5659 -0.8932
  106OSM    H9T10814   3.240   3.717   9.819  2.1246 -0.8479 -0.3428
  106OSM   C10S10815   3.146   3.594   9.679  0.2446 -0.3321 -0.1353
  106OSM   H10S10816   3.058   3.660   9.691  0.9633  0.2293  3.2194
  106OSM   H10T10817   3.113   3.488   9.671  1.0755 -0.5117 -1.4186
  106OSM   C11S10818   3.236   3.636   9.556  0.4169  0.1135 -0.5466
  106OSM   H11S10819   3.327   3.572   9.557 -0.0279 -0.5569  1.5594
  106OSM   H11T10820   3.276   3.737   9.578 -0.6536 -0.2307  3.9345
  106OSM   C12S10821   3.171   3.606   9.419 -0.1212 -0.6377 -0.3639
  106OSM   H12S10822   3.078   3.667   9.417  0.3441  0.0666 -0.6718
  106OSM   H12T10823   3.153   3.496   9.412 -0.2666 -0.5723 -1.0113
  106OSM   C13S10824   3.257   3.649   9.298 -1.2061  0.2249 -1.1995
  106OSM   H13S10825   3.340   3.576   9.288  1.5776  2.9764  0.1842
  106OSM   H13T10826   3.312   3.741   9.327 -0.3126 -0.8309  0.5945
  106OSM   C14S10827   3.175   3.676   9.173  0.2671  0.1836  0.4264
  106OSM   H14S10828   3.095   3.751   9.188 -2.9676 -3.1142  1.2545
  106OSM   H14T10829   3.119   3.585   9.142  1.1056  0.2882 -1.5335
  106OSM   C15S10830   3.281   3.718   9.064 -0.0441 -0.0277 -0.2371
  106OSM   H15S10831   3.359   3.639   9.067 -0.4321 -0.4281 -0.6756
  106OSM   H15T10832   3.326   3.812   9.102 -0.2646 -0.1813  0.4381
  106OSM   C16S10833   3.221   3.746   8.929  0.3547 -0.2650  0.3341
  106OSM   H16S10834   3.304   3.791   8.871 -0.0559  0.1385  0.0589
  106OSM   H16T10835   3.140   3.822   8.931  1.5230  1.0003  2.0172
  106OSM   C17S10836   3.180   3.620   8.858  0.6460 -0.9737 -0.5445
  106OSM   H17S10837   3.082   3.583   8.894 -0.8488  2.6535 -0.4669
  106OSM   H17T10838   3.255   3.540   8.877  2.2230  0.9919  2.2015
  106OSM   C18S10839   3.163   3.640   8.706  0.7170  0.1061 -0.4164
  106OSM   H18S10840   3.102   3.728   8.676  2.1334  1.1719 -0.3111
  106OSM   H18T10841   3.121   3.550   8.657  2.4560 -0.8199 -0.2906
  106OSM   H18U10842   3.260   3.663   8.657 -0.2290  2.5710 -1.3408
  106OSM    C1F10843   3.415   3.214  10.463 -0.2144  0.0627  0.5865
  106OSM     OF10844   3.319   3.189  10.536  0.4748  0.6087 -0.1059
  106OSM    C2F10845   3.490   3.109  10.399 -0.3415  0.3958  0.4434
  106OSM    H2F10846   3.571   3.078  10.468  0.6529  0.5689 -0.6326
  106OSM    H2G10847   3.532   3.148  10.304  2.5601 -0.9878  1.0413
  106OSM    C3F10848   3.402   2.991  10.352  1.0581  0.4945 -0.5881
  106OSM    H3F10849   3.311   2.974  10.413  1.4727 -1.1430 -0.3695
  106OSM    H3G10850   3.455   2.893  10.351  1.9419  0.9223  0.9938
  106OSM    C4F10851   3.336   3.004  10.208 -0.1907 -0.4366  0.5945
  106OSM    H4F10852   3.248   2.936  10.196 -1.2562  1.0789 -0.4403
  106OSM    H4G10853   3.421   2.981  10.140 -0.2312 -1.5696  0.8931
  106OSM    C5F10854   3.258   3.134  10.165  0.3131  0.3858 -0.7605
  106OSM    H5F10855   3.329   3.217  10.185 -0.9230  0.9031  1.8385
  106OSM    H5G10856   3.174   3.153  10.235 -1.4223 -2.1283 -2.0031
  106OSM    C6F10857   3.204   3.132  10.016  0.0906  0.5665  0.3094
  106OSM    H6F10858   3.156   3.232  10.007 -1.6218 -0.3230 -0.9650
  106OSM    H6G10859   3.126   3.055   9.997  0.6623 -0.0021  0.2504
  106OSM    C7F10860   3.304   3.126   9.904  0.0440 -0.4900 -0.1735
  106OSM    H7F10861   3.346   3.024   9.911  1.4678  0.1770  2.0113
  106OSM    H7G10862   3.383   3.199   9.932 -0.4429  0.3760 -1.0043
  106OSM    C8F10863   3.245   3.159   9.772  0.2532  0.2678 -0.5456
  106OSM    H8F10864   3.217   3.267   9.768  0.6088  0.3263 -2.0154
  106OSM    H8G10865   3.150   3.107   9.750  0.9815  0.2077 -4.2129
  106OSM    C9F10866   3.338   3.125   9.663 -0.3463 -0.2537 -0.1452
  106OSM    H9F10867   3.426   3.072   9.702 -0.5032 -0.9842 -0.7446
  106OSM   C10F10868   3.319   3.118   9.534  0.5738  0.0002  0.2750
  106OSM   H10F10869   3.396   3.069   9.473  0.1519 -0.7658  0.3408
  106OSM   C11F10870   3.200   3.174   9.457  0.1267  0.1349 -0.5471
  106OSM   H11F10871   3.190   3.284   9.469 -0.3772 -0.0694  1.1452
  106OSM   H11G10872   3.106   3.131   9.498  0.8597  0.8361  2.0147
  106OSM   C12F10873   3.208   3.155   9.303  0.1854  0.2830 -0.1295
  106OSM   H12F10874   3.103   3.149   9.269  0.3266 -1.4833 -0.3450
  106OSM   H12G10875   3.252   3.053   9.292  1.1868  0.6279  0.5302
  106OSM   C13F10876   3.297   3.262   9.233  0.5327  0.4587  0.6012
  106OSM   H13F10877   3.400   3.220   9.227 -0.3117 -1.7341  0.2242
  106OSM   H13G10878   3.301   3.360   9.283 -0.4634  1.5878 -1.3968
  106OSM   C14F10879   3.246   3.299   9.095  0.3413 -0.0514  0.0903
  106OSM   H14F10880   3.303   3.379   9.041  1.6253 -1.2864 -0.4431
  106OSM   H14G10881   3.145   3.347   9.100 -0.8187 -2.1407 -1.5772
  106OSM   C15F10882   3.231   3.184   8.997 -0.3153 -0.5399 -0.6890
  106OSM   H15F10883   3.168   3.106   9.044 -2.0207  1.1518 -0.0471
  106OSM   H15G10884   3.332   3.141   8.978  1.5060  2.5949  1.2006
  106OSM   C16F10885   3.181   3.235   8.862 -0.5749  0.4051 -0.4687
  106OSM   H16F10886   3.216   3.332   8.820  0.1122 -0.8785 -3.0216
  106OSM   H16G10887   3.070   3.240   8.851 -0.6824 -0.1674  0.2925
  106OSM   C17F10888   3.208   3.131   8.757 -0.2625 -0.3158  0.2056
  106OSM   H17F10889   3.202   3.031   8.804 -1.0063 -1.1398 -1.5657
  106OSM   H17G10890   3.317   3.130   8.733  0.0480  1.5438  1.2767
  106OSM   C18F10891   3.127   3.146   8.622  0.4961  0.4987 -0.3778
  106OSM   H18F10892   3.155   3.235   8.562  2.2657  1.4687  1.7017
  106OSM   H18G10893   3.021   3.142   8.655  0.3610  0.1824 -0.8411
  106OSM   H18H10894   3.139   3.051   8.567 -2.4168  0.1478 -0.5441
  107OSM      N10895   1.822   1.214  10.788  0.3718 -1.0203 -0.2363
  107OSM    C1510896   1.763   1.225  10.924 -0.3249 -0.3029 -0.1425
  107OSM   H15A10897   1.806   1.150  10.989 -0.8043 -0.4151  0.0493
  107OSM   H15B10898   1.656   1.210  10.916 -0.8509  1.6768  1.9681
  107OSM   H15C10899   1.798   1.318  10.966  2.1255 -1.1116 -0.2459
  107OSM    C1410900   1.963   1.254  10.801 -0.4112 -0.3754 -0.7823
  107OSM   H14A10901   2.021   1.233  10.712  1.6456 -2.0678  0.8468
  107OSM   H14B10902   2.014   1.191  10.872  0.4931  0.2020 -0.9000
  107OSM   H14C10903   1.975   1.355  10.839 -3.1735 -0.2645  0.0087
  107OSM    C1310904   1.808   1.071  10.749 -0.1403  0.4725  0.5017
  107OSM   H13A10905   1.704   1.045  10.733  0.1368  0.2955 -1.1626
  107OSM   H13B10906   1.853   1.012  10.827  1.4552  0.2731 -0.5365
  107OSM   H13C10907   1.858   1.048  10.657 -0.2769  0.5173  0.4156
  107OSM    C1210908   1.752   1.306  10.693  0.6627  0.2120  0.7404
  107OSM   H12A10909   1.825   1.342  10.621  0.2985  0.6811  0.6052
  107OSM   H12B10910   1.716   1.388  10.752  0.4537 -0.3617  1.4294
  107OSM    C1110911   1.632   1.253  10.620  0.1181 -0.2573  0.2644
  107OSM   H11A10912   1.654   1.176  10.543  2.8422  0.8024 -0.1513
  107OSM   H11B10913   1.591   1.335  10.557 -2.2240 -1.5715 -0.0205
  107OSM      P10914   1.437   1.098  10.703  0.1185  0.3348 -0.0338
  107OSM    O1310915   1.509   0.972  10.740  0.2352  0.2548 -0.8955
  107OSM    O1410916   1.312   1.134  10.776  0.3967  0.2858 -0.2681
  107OSM    O1110917   1.411   1.093  10.542 -0.4657  0.2066 -0.3821
  107OSM    O1210918   1.535   1.222  10.717 -0.5345 -0.1389  0.8521
  107OSM    C1S10919   1.299   1.177  10.497  0.1789 -0.2616 -0.2318
  107OSM    H1S10920   1.345   1.276  10.475 -0.1057 -0.1012 -0.0999
  107OSM    H1T10921   1.213   1.172  10.567  0.9329  1.4772  0.8991
  107OSM     NF10922   1.157   1.256  10.304 -0.1881 -0.0641 -0.8597
  107OSM    HNF10923   1.059   1.239  10.306  0.3040 -3.6922  1.2844
  107OSM    C2S10924   1.245   1.145  10.350 -0.2137  0.3627 -1.1243
  107OSM    H2S10925   1.339   1.134  10.291  1.2420 -0.8131  1.2620
  107OSM    C3S10926   1.180   1.007  10.365 -0.2586 -0.6467  0.6404
  107OSM    H3S10927   1.086   1.022  10.422 -0.1590 -1.2841  0.9833
  107OSM     O310928   1.255   0.910  10.432  0.5789 -0.3340 -0.4677
  107OSM    HO310929   1.334   0.957  10.459  1.0881 -1.3181 -0.2188
  107OSM    C4S10930   1.130   0.949  10.227  0.4834 -0.0569  0.3598
  107OSM    H4S10931   1.044   1.005  10.187  1.5771  0.7886 -0.8720
  107OSM    C5S10932   1.199   0.863  10.145 -0.2151 -0.3118  0.0444
  107OSM    H5S10933   1.292   0.813  10.176 -0.8253 -1.6160 -0.1571
  107OSM    C6S10934   1.165   0.820  10.008  0.1302 -0.7536 -0.2834
  107OSM    H6S10935   1.097   0.732  10.019 -1.8561  0.6441 -0.8492
  107OSM    H6T10936   1.250   0.777   9.951 -0.0807  0.0585 -1.2422
  107OSM    C7S10937   1.092   0.922   9.917  0.2081  0.6025  0.3289
  107OSM    H7S10938   1.157   1.011   9.908 -2.2117  2.8343  2.7505
  107OSM    H7T10939   0.999   0.955   9.968 -1.2939 -1.6100 -0.8128
  107OSM    C8S10940   1.053   0.845   9.786  0.5547  0.3569 -0.5297
  107OSM    H8S10941   0.983   0.765   9.819  1.3477 -0.5725 -1.0398
  107OSM    H8T10942   1.146   0.799   9.744 -0.4809 -2.2045 -0.2025
  107OSM    C9S10943   0.981   0.915   9.678 -0.0789  0.0421 -0.6861
  107OSM    H9S10944   1.029   1.015   9.680 -0.4494  0.2308  1.5408
  107OSM    H9T10945   0.873   0.935   9.698 -0.2334 -0.8338 -0.6157
  107OSM   C10S10946   1.009   0.847   9.542  0.6705  0.0086 -0.0968
  107OSM   H10S10947   1.103   0.788   9.553  1.7758  1.9549  1.8467
  107OSM   H10T10948   1.033   0.922   9.463 -0.3233 -1.0420 -1.4190
  107OSM   C11S10949   0.900   0.745   9.486  0.4203 -0.3177  0.2357
  107OSM   H11S10950   0.807   0.806   9.478 -0.4733 -1.5484  0.7362
  107OSM   H11T10951   0.875   0.677   9.570  0.7063  1.8060  2.1399
  107OSM   C12S10952   0.928   0.683   9.347 -0.2281  0.4588 -0.2063
  107OSM   H12S10953   0.837   0.623   9.325  0.2166  0.1690 -1.3545
  107OSM   H12T10954   1.015   0.613   9.349 -0.3375  0.3119 -0.4813
  107OSM   C13S10955   0.940   0.783   9.228  0.0650  0.7541 -0.1115
  107OSM   H13S10956   1.023   0.847   9.264  1.5368 -1.8655  1.5427
  107OSM   H13T10957   0.836   0.819   9.221 -0.4944 -0.9150 -0.8263
  107OSM   C14S10958   0.987   0.721   9.102  0.0476  1.0399 -0.6281
  107OSM   H14S10959   0.919   0.635   9.082 -0.1308  1.3093 -1.2248
  107OSM   H14T10960   1.089   0.678   9.098 -1.1489 -2.0315 -0.8417
  107OSM   C15S10961   0.974   0.821   8.981  0.5341 -0.5924  0.0907
  107OSM   H15S10962   1.050   0.901   8.974 -0.2808  0.2452  0.5698
  107OSM   H15T10963   0.875   0.869   8.993  1.1366  0.3925  1.5039
  107OSM   C16S10964   0.973   0.747   8.844  0.5325  0.7142 -0.3274
  107OSM   H16S10965   0.888   0.677   8.836  0.2873  0.9405  0.2318
  107OSM   H16T10966   1.065   0.684   8.837  0.4105  0.0611  2.4933
  107OSM   C17S10967   0.970   0.851   8.729  0.2878  0.9568  0.1024
  107OSM   H17S10968   1.070   0.900   8.736 -1.2973  4.5825 -0.2846
  107OSM   H17T10969   0.896   0.930   8.752  0.2819  0.5444  1.6378
  107OSM   C18S10970   0.960   0.774   8.599 -0.0456  0.5641  0.1890
  107OSM   H18S10971   0.959   0.844   8.512 -0.5273  1.2411  0.7281
  107OSM   H18T10972   0.862   0.723   8.608  0.0504  0.3351 -0.0442
  107OSM   H18U10973   1.040   0.697   8.590 -0.3680  0.0930  1.2720
  107OSM    C1F10974   1.214   1.369  10.270 -0.5523 -0.5224 -0.3723
  107OSM     OF10975   1.335   1.383  10.276  0.4815  0.2091  0.3315
  107OSM    C2F10976   1.118   1.483  10.237 -0.2695 -0.1027  0.6128
  107OSM    H2F10977   1.084   1.516  10.337 -0.7735 -0.6130  0.6177
  107OSM    H2G10978   1.033   1.438  10.181 -2.0785  2.6902  0.9321
  107OSM    C3F10979   1.193   1.590  10.164  0.5706  0.0227 -1.0389
  107OSM    H3F10980   1.274   1.635  10.225  0.4638 -1.0333 -0.0891
  107OSM    H3G10981   1.124   1.677  10.157  0.0777 -0.1782  0.6293
  107OSM    C4F10982   1.251   1.556  10.027 -0.0362 -0.0968  0.4286
  107OSM    H4F10983   1.185   1.479   9.980  0.7762  0.2119 -1.3077
  107OSM    H4G10984   1.343   1.494  10.038 -0.9783 -1.9051 -1.1871
  107OSM    C5F10985   1.263   1.674   9.932 -0.0933  1.0867  0.4068
  107OSM    H5F10986   1.358   1.728   9.953  0.6404  0.1134 -0.3053
  107OSM    H5G10987   1.175   1.741   9.928  0.6324  2.1584  1.4553
  107OSM    C6F10988   1.282   1.615   9.794  0.5524 -0.0538  0.7584
  107OSM    H6F10989   1.182   1.584   9.757  0.3972  1.7519 -0.4291
  107OSM    H6G10990   1.346   1.525   9.785 -1.3304 -1.5481  1.5272
  107OSM    C7F10991   1.328   1.719   9.694  0.0382 -0.2470 -0.1574
  107OSM    H7F10992   1.437   1.729   9.713 -0.1744  0.3094  0.8090
  107OSM    H7G10993   1.287   1.821   9.694  1.3660  0.3475 -1.7790
  107OSM    C8F10994   1.322   1.664   9.551  0.1718  0.3535 -0.4263
  107OSM    H8F10995   1.213   1.662   9.529 -0.1620  1.0423  1.0584
  107OSM    H8G10996   1.367   1.563   9.536  2.3272  1.2970 -0.6838
  107OSM    C9F10997   1.385   1.761   9.453  0.6716  1.0441 -0.7033
  107OSM    H9F10998   1.339   1.861   9.459 -0.8992  0.3459 -0.5010
  107OSM   C10F10999   1.479   1.737   9.360 -0.8357 -0.3992 -0.3449
  107OSM   H10F11000   1.523   1.822   9.307  0.4698 -0.8120  0.0365
  107OSM   C11F11001   1.564   1.614   9.334 -0.2034  0.2437 -0.1402
  107OSM   H11F11002   1.544   1.532   9.406 -0.1821  0.2623 -0.1131
  107OSM   H11G11003   1.670   1.643   9.348 -0.4857  0.9969  0.5204
  107OSM   C12F11004   1.548   1.547   9.191 -0.3112 -0.1441 -0.0273
  107OSM   H12F11005   1.480   1.460   9.200 -0.1449 -0.3820 -0.9186
  107OSM   H12G11006   1.640   1.513   9.140 -0.0758  0.1346  0.2090
  107OSM   C13F11007   1.481   1.634   9.080  0.1798 -0.0009 -0.3210
  107OSM   H13F11008   1.547   1.718   9.048 -0.0679 -0.4185 -2.0464
  107OSM   H13G11009   1.387   1.676   9.122  0.0308 -0.1696 -0.4819
  107OSM   C14F11010   1.432   1.558   8.952  0.3483 -0.1723  0.2919
  107OSM   H14F11011   1.366   1.624   8.891  1.7681  0.0635 -1.0387
  107OSM   H14G11012   1.377   1.467   8.984 -0.1581 -0.2666 -0.8205
  107OSM   C15F11013   1.551   1.514   8.862  0.1543 -0.1391 -0.1456
  107OSM   H15F11014   1.614   1.443   8.920 -0.4520  0.4008  1.2072
  107OSM   H15G11015   1.609   1.603   8.826  1.9166 -0.9451  0.5725
  107OSM   C16F11016   1.495   1.444   8.729  1.0460  0.1897 -0.1387
  107OSM   H16F11017   1.430   1.521   8.682  2.8742 -0.2142 -3.6799
  107OSM   H16G11018   1.447   1.349   8.759  1.0987  0.8317  2.1132
  107OSM   C17F11019   1.591   1.407   8.620 -0.0359  0.4588 -1.3098
  107OSM   H17F11020   1.537   1.346   8.545  2.5197 -0.3005 -2.6540
  107OSM   H17G11021   1.677   1.345   8.654 -0.8489 -0.8030 -1.5319
  107OSM   C18F11022   1.647   1.531   8.540 -0.1927  0.1206 -0.0538
  107OSM   H18F11023   1.727   1.496   8.472  1.7565  0.9167  1.7319
  107OSM   H18G11024   1.701   1.607   8.600 -0.3823  0.7074 -0.6101
  107OSM   H18H11025   1.564   1.582   8.485 -0.5496  2.8263  2.6974
  108OSM      N11026   4.697   3.779  10.767 -0.3011 -0.1281  0.3943
  108OSM    C1511027   4.656   3.694  10.887  0.0916 -0.6240  0.1246
  108OSM   H15A11028   4.549   3.678  10.885 -0.0904  0.0549  2.2554
  108OSM   H15B11029   4.684   3.743  10.979  0.4337 -0.2938 -0.1486
  108OSM   H15C11030   4.697   3.594  10.885 -2.0142 -1.5323 -1.6884
  108OSM    C1411031   4.642   3.916  10.786 -0.1313  0.3699  0.5580
  108OSM   H14A11032   4.536   3.906  10.807 -0.1416 -2.5501 -0.4224
  108OSM   H14B11033   4.658   3.987  10.706 -0.0638 -0.6313 -0.3288
  108OSM   H14C11034   4.670   3.952  10.884 -1.9704 -1.9601  2.0659
  108OSM    C1311035   4.845   3.796  10.776 -0.3972  0.0780  0.4203
  108OSM   H13A11036   4.883   3.816  10.875 -1.2103  0.9110  0.5768
  108OSM   H13B11037   4.872   3.879  10.713 -1.3610 -0.0860 -0.2316
  108OSM   H13C11038   4.893   3.704  10.746 -3.4962 -1.3564 -0.5210
  108OSM    C1211039   4.656   3.717  10.631  0.0028 -0.7752  0.1824
  108OSM   H12A11040   4.719   3.632  10.610 -0.4393 -0.7292 -1.4632
  108OSM   H12B11041   4.676   3.790  10.554 -0.8985  0.1725  0.8229
  108OSM    C1111042   4.500   3.697  10.616 -0.3796 -0.3710 -0.2816
  108OSM   H11A11043   4.472   3.682  10.509  0.9216  1.0491 -0.8751
  108OSM   H11B11044   4.450   3.793  10.641 -1.3160 -0.5010 -1.5593
  108OSM      P11045   4.491   3.438  10.652  0.0087  0.2396  0.3339
  108OSM    O1311046   4.627   3.417  10.703 -0.1884  0.8042  0.1711
  108OSM    O1411047   4.393   3.343  10.696  0.3321  0.6084 -0.0533
  108OSM    O1111048   4.513   3.441  10.498  0.4768  0.4346 -0.0851
  108OSM    O1211049   4.446   3.588  10.697 -0.1552  0.4857  0.0164
  108OSM    C1S11050   4.388   3.426  10.420 -0.8711 -0.9401 -0.9581
  108OSM    H1S11051   4.320   3.514  10.429  1.2396  0.7886 -1.0808
  108OSM    H1T11052   4.327   3.337  10.446  0.2149 -1.3240  0.3171
  108OSM     NF11053   4.303   3.394  10.183 -0.0966 -0.4364 -0.7931
  108OSM    HNF11054   4.294   3.305  10.138 -1.0433 -0.5166 -0.4632
  108OSM    C2S11055   4.424   3.409  10.269  0.1247  0.6173 -0.5554
  108OSM    H2S11056   4.469   3.505  10.237 -1.5110  2.6220  2.6599
  108OSM    C3S11057   4.536   3.307  10.252 -0.3582  0.2572  0.4527
  108OSM    H3S11058   4.503   3.206  10.286  1.7098  0.1644  2.3759
  108OSM     O311059   4.661   3.318  10.327 -0.0842  0.2476 -0.3078
  108OSM    HO311060   4.625   3.377  10.394 -1.9664  0.8308 -1.7342
  108OSM    C4S11061   4.569   3.301  10.103  0.3952  0.0458  0.3952
  108OSM    H4S11062   4.488   3.267  10.036  0.9068  0.3898 -0.4044
  108OSM    C5S11063   4.656   3.376  10.033  0.5067 -0.0252 -0.6455
  108OSM    H5S11064   4.702   3.466  10.076 -0.1452  0.2027 -0.4120
  108OSM    C6S11065   4.684   3.364   9.881  0.3334 -0.2078 -0.8167
  108OSM    H6S11066   4.790   3.381   9.855  0.9359 -1.8710  0.3931
  108OSM    H6T11067   4.615   3.432   9.826  0.4940 -1.0866 -2.1445
  108OSM    C7S11068   4.653   3.224   9.831 -0.1608 -0.3547 -0.3375
  108OSM    H7S11069   4.652   3.230   9.720 -1.1389  1.1433 -0.2706
  108OSM    H7T11070   4.550   3.189   9.852  0.1846 -0.8597  0.5895
  108OSM    C8S11071   4.750   3.114   9.879  0.5776 -0.5319 -0.1856
  108OSM    H8S11072   4.731   3.105   9.988 -0.8339  0.0373 -0.3673
  108OSM    H8T11073   4.853   3.150   9.861 -0.4178  0.7544 -4.3122
  108OSM    C9S11074   4.724   2.986   9.800 -0.3618  0.7873  0.2486
  108OSM    H9S11075   4.626   2.945   9.831 -0.0288  0.0168  0.2904
  108OSM    H9T11076   4.809   2.920   9.825 -0.4047  0.7610  0.3253
  108OSM   C10S11077   4.738   2.990   9.643 -0.0286 -0.3543 -0.7274
  108OSM   H10S11078   4.820   3.062   9.623  0.1328  0.0654  1.2544
  108OSM   H10T11079   4.650   3.034   9.590  0.5821 -0.0460 -1.5039
  108OSM   C11S11080   4.782   2.859   9.566 -0.8105  0.5433 -0.2010
  108OSM   H11S11081   4.716   2.771   9.583  0.9249 -0.4905  1.5373
  108OSM   H11T11082   4.878   2.825   9.609 -2.7416 -2.9542  1.8580
  108OSM   C12S11083   4.799   2.874   9.420 -0.1052  0.0914  0.0070
  108OSM   H12S11084   4.704   2.900   9.368  0.7970  2.8708 -0.4353
  108OSM   H12T11085   4.825   2.770   9.390  2.1104 -0.1169  2.3564
  108OSM   C13S11086   4.906   2.968   9.384 -0.3114 -0.0925  0.0534
  108OSM   H13S11087   4.999   2.949   9.440 -0.2427 -0.6254 -0.2382
  108OSM   H13T11088   4.877   3.074   9.399 -0.3101 -0.3703  2.3806
  108OSM   C14S11089   4.968   2.949   9.236  0.4622 -0.3088 -0.3027
  108OSM   H14S11090   4.895   2.926   9.156  0.4547 -3.5948  0.4795
  108OSM   H14T11091   5.039   2.864   9.248  0.8373  0.1940  1.2772
  108OSM   C15S11092   5.038   3.080   9.196 -0.1462 -0.4403 -0.0782
  108OSM   H15S11093   5.116   3.102   9.272 -1.0683  0.2141  0.7042
  108OSM   H15T11094   4.961   3.159   9.210  0.1115 -0.1606 -0.2346
  108OSM   C16S11095   5.087   3.081   9.051  0.6067  0.2454  0.1377
  108OSM   H16S11096   5.004   3.076   8.978  1.9269 -1.5300 -1.3540
  108OSM   H16T11097   5.161   2.999   9.038  1.5370  1.2266 -1.0637
  108OSM   C17S11098   5.164   3.210   9.017 -0.6175  0.5731  0.6191
  108OSM   H17S11099   5.187   3.210   8.908  0.0811 -1.1108  0.7351
  108OSM   H17T11100   5.255   3.198   9.080 -0.9979 -1.2651  0.8734
  108OSM   C18S11101   5.106   3.345   9.059  0.2998  0.3979 -0.6332
  108OSM   H18S11102   5.166   3.427   9.014  0.7581 -0.1801 -1.0838
  108OSM   H18T11103   5.112   3.363   9.169 -1.6704 -0.5369 -0.3275
  108OSM   H18U11104   5.000   3.365   9.034  0.1748  2.1502  1.0882
  108OSM    C1F11105   4.208   3.484  10.169 -0.1618  0.6044  0.1534
  108OSM     OF11106   4.198   3.587  10.240  0.0090 -0.7348  0.3648
  108OSM    C2F11107   4.100   3.445  10.064 -0.9994 -0.1664  0.0124
  108OSM    H2F11108   4.009   3.419  10.122  0.2722  0.6477  2.5116
  108OSM    H2G11109   4.128   3.347  10.020 -0.5429 -0.0361  0.0110
  108OSM    C3F11110   4.077   3.572   9.970 -0.3176 -0.1401  0.1694
  108OSM    H3F11111   4.165   3.639   9.976 -0.4147  0.0334 -0.2738
  108OSM    H3G11112   3.997   3.632  10.018 -2.1173 -2.0541 -0.3059
  108OSM    C4F11113   4.046   3.528   9.824 -0.1485  0.0283 -0.3195
  108OSM    H4F11114   4.001   3.616   9.772 -2.0769 -0.1560  0.9330
  108OSM    H4G11115   3.974   3.445   9.812  0.1933 -0.3074 -0.0599
  108OSM    C5F11116   4.174   3.486   9.753  0.0442  0.3234  0.0763
  108OSM    H5F11117   4.227   3.407   9.810 -2.8397 -1.4940  0.4543
  108OSM    H5G11118   4.233   3.578   9.735 -1.4827  0.9210 -2.4902
  108OSM    C6F11119   4.143   3.436   9.613 -1.2915  0.1787  0.3898
  108OSM    H6F11120   4.060   3.500   9.576 -3.0872  0.4764  4.3949
  108OSM    H6G11121   4.083   3.343   9.623  0.2453 -0.7783  1.1004
  108OSM    C7F11122   4.271   3.422   9.526 -0.3986  0.3704  0.1999
  108OSM    H7F11123   4.332   3.515   9.535  1.8545 -1.2140  2.8105
  108OSM    H7G11124   4.251   3.400   9.419  1.9281  0.2221 -0.2492
  108OSM    C8F11125   4.373   3.305   9.572 -0.0969 -0.7186 -0.1098
  108OSM    H8F11126   4.316   3.210   9.559 -2.4786  0.6989 -0.7736
  108OSM    H8G11127   4.399   3.315   9.679  0.4097  0.9104 -0.3734
  108OSM    C9F11128   4.504   3.319   9.500  0.2371 -0.2357 -0.0708
  108OSM    H9F11129   4.573   3.385   9.554  0.5412 -2.5476  2.5812
  108OSM   C10F11130   4.548   3.254   9.394  0.1844 -0.6352 -0.4128
  108OSM   H10F11131   4.649   3.270   9.353  0.7999  0.9222  1.5804
  108OSM   C11F11132   4.460   3.155   9.318 -0.5616  0.0070 -0.1027
  108OSM   H11F11133   4.349   3.166   9.327 -0.5131  1.5870 -1.0146
  108OSM   H11G11134   4.482   3.051   9.350 -1.6586 -0.0189  0.6232
  108OSM   C12F11135   4.475   3.162   9.164 -0.8828 -0.1637  0.3580
  108OSM   H12F11136   4.450   3.266   9.136  1.7471  0.0145 -1.8600
  108OSM   H12G11137   4.399   3.092   9.124  0.0768 -1.6180  0.9678
  108OSM   C13F11138   4.618   3.129   9.118 -0.0162 -0.6122  0.6210
  108OSM   H13F11139   4.638   3.031   9.167  1.4620 -0.7600 -0.2155
  108OSM   H13G11140   4.694   3.196   9.163 -0.2299  0.3134 -0.3440
  108OSM   C14F11141   4.624   3.115   8.963 -0.7477  0.5823 -0.1819
  108OSM   H14F11142   4.544   3.040   8.944 -1.0978 -0.1931  3.5409
  108OSM   H14G11143   4.718   3.065   8.933 -1.2943 -1.8726  1.8171
  108OSM   C15F11144   4.593   3.239   8.880 -0.9959 -0.2478  0.1159
  108OSM   H15F11145   4.489   3.262   8.911 -0.7938  2.8377 -1.1623
  108OSM   H15G11146   4.583   3.190   8.781 -0.4872 -0.6366  0.2486
  108OSM   C16F11147   4.681   3.363   8.898 -1.1044 -0.3600 -0.4173
  108OSM   H16F11148   4.787   3.346   8.870 -0.7927  0.3770  0.2694
  108OSM   H16G11149   4.688   3.398   9.003  0.6959 -0.5926 -0.4243
  108OSM   C17F11150   4.618   3.484   8.815 -0.1762 -0.6270 -0.2551
  108OSM   H17F11151   4.667   3.575   8.857  1.3125  0.1811 -3.3811
  108OSM   H17G11152   4.510   3.486   8.837  0.0971 -1.8070  1.3727
  108OSM   C18F11153   4.642   3.494   8.661 -0.2532 -0.5169 -0.7301
  108OSM   H18F11154   4.749   3.513   8.637  0.0130 -0.7613  0.2344
  108OSM   H18G11155   4.572   3.569   8.617 -0.4009 -0.6032 -0.6430
  108OSM   H18H11156   4.617   3.399   8.609 -1.9468 -0.2389 -0.4918
  109OSM      N11157   3.817   2.964  10.883  0.5473  0.2021  0.1709
  109OSM    C1511158   3.734   3.024  10.775  0.2062 -0.3003  0.4347
  109OSM   H15A11159   3.754   3.127  10.749 -1.8930  0.3597  1.2740
  109OSM   H15B11160   3.632   3.011  10.807  0.5637  1.3070  2.4443
  109OSM   H15C11161   3.760   2.974  10.683  1.9195 -1.4242  1.4510
  109OSM    C1411162   3.796   3.025  11.015 -0.3303 -0.2728  0.5695
  109OSM   H14A11163   3.867   2.988  11.087  1.2063  1.2494 -0.1036
  109OSM   H14B11164   3.692   3.013  11.044 -0.0884 -1.1266  1.1269
  109OSM   H14C11165   3.818   3.131  11.019  1.2713 -0.5580  0.0815
  109OSM    C1311166   3.764   2.830  10.907 -0.5728 -0.2326 -0.0462
  109OSM   H13A11167   3.828   2.778  10.976 -0.8549 -2.2225 -1.2269
  109OSM   H13B11168   3.762   2.772  10.816 -1.0112 -2.0575  1.0830
  109OSM   H13C11169   3.666   2.826  10.952  0.5921 -1.0559  2.5607
  109OSM    C1211170   3.960   2.959  10.840  0.0539 -0.8648  0.5097
  109OSM   H12A11171   4.024   2.920  10.917  0.6429 -0.4489  0.2344
  109OSM   H12B11172   3.987   3.062  10.823  1.0971 -1.4308 -1.6071
  109OSM    C1111173   3.982   2.879  10.699 -0.0618  0.2965 -0.6382
  109OSM   H11A11174   4.088   2.894  10.667  0.1862 -0.2462 -0.1055
  109OSM   H11B11175   3.927   2.916  10.610  0.2383  0.9230 -0.5686
  109OSM      P11176   4.077   2.643  10.781 -0.3165  0.4919 -0.2448
  109OSM    O1311177   4.148   2.717  10.890  0.6120 -0.4611 -0.3310
  109OSM    O1411178   4.028   2.509  10.821 -0.1876 -0.1397  0.5729
  109OSM    O1111179   4.181   2.630  10.664 -0.6751  0.5352 -0.2008
  109OSM    O1211180   3.960   2.737  10.722 -0.6363  0.0503 -0.4069
  109OSM    C1S11181   4.150   2.583  10.530  0.1725  0.1932  0.0002
  109OSM    H1S11182   4.122   2.669  10.465  0.0420  1.7791  2.0286
  109OSM    H1T11183   4.076   2.500  10.529  0.1261  0.2298  0.2468
  109OSM     NF11184   4.257   2.470  10.351  0.4702 -0.0084 -0.0152
  109OSM    HNF11185   4.234   2.373  10.352  0.6983 -0.1214 -1.7692
  109OSM    C2S11186   4.288   2.519  10.489 -0.1167 -0.1440 -0.1255
  109OSM    H2S11187   4.361   2.602  10.483 -2.5150  2.2953  1.7449
  109OSM    C3S11188   4.346   2.408  10.580  0.3745  0.4759  1.1521
  109OSM    H3S11189   4.266   2.333  10.599 -1.4602  1.5335 -1.6465
  109OSM     O311190   4.380   2.459  10.704  0.3553  0.0137 -0.4303
  109OSM    HO311191   4.340   2.546  10.696 -0.2430 -0.0630  1.3335
  109OSM    C4S11192   4.465   2.352  10.517  0.6334  0.6969  0.1867
  109OSM    H4S11193   4.441   2.258  10.465 -0.9665  0.2549  1.6258
  109OSM    C5S11194   4.590   2.388  10.536 -0.5548  0.4941 -0.0916
  109OSM    H5S11195   4.603   2.472  10.606  1.0675  0.2690 -0.0976
  109OSM    C6S11196   4.710   2.322  10.470 -0.0100 -0.2802  0.8379
  109OSM    H6S11197   4.801   2.322  10.535  0.7164 -1.0511 -0.1477
  109OSM    H6T11198   4.741   2.385  10.384  0.9497 -1.6736  0.1190
  109OSM    C7S11199   4.691   2.180  10.413  0.3686 -0.0134  0.3339
  109OSM    H7S11200   4.597   2.176  10.355  0.7188 -0.1370 -0.2393
  109OSM    H7T11201   4.680   2.106  10.494 -0.7607 -1.1868 -0.8347
  109OSM    C8S11202   4.800   2.133  10.314  0.2827 -0.1476  0.0313
  109OSM    H8S11203   4.793   2.023  10.302  0.2902 -0.0737 -0.6838
  109OSM    H8T11204   4.905   2.150  10.346  0.6137 -0.0113 -1.0882
  109OSM    C9S11205   4.785   2.190  10.171  0.1207 -0.0018  0.2230
  109OSM    H9S11206   4.815   2.294  10.144 -1.5271 -0.3318 -3.5435
  109OSM    H9T11207   4.677   2.181  10.149 -0.4155  1.9052  1.8458
  109OSM   C10S11208   4.868   2.104  10.075 -0.2882 -0.0556  0.0049
  109OSM   H10S11209   4.838   1.999  10.096 -0.6516  0.6469  3.6816
  109OSM   H10T11210   4.976   2.106  10.100 -0.1988 -2.3356  0.0369
  109OSM   C11S11211   4.837   2.125   9.932  0.4307 -0.3889 -0.5990
  109OSM   H11S11212   4.879   2.221   9.896  0.2903 -0.4087 -0.8208
  109OSM   H11T11213   4.727   2.121   9.917  0.1664 -0.1527  1.0578
  109OSM   C12S11214   4.909   2.022   9.840  0.0653  0.1508 -0.3609
  109OSM   H12S11215   4.867   1.922   9.863  0.2828  0.6053  2.4356
  109OSM   H12T11216   5.015   2.026   9.875 -0.3071  4.8160  0.8717
  109OSM   C13S11217   4.896   2.062   9.694 -0.7010  0.3501  0.1358
  109OSM   H13S11218   4.957   2.149   9.661 -0.0624 -1.0110 -2.5430
  109OSM   H13T11219   4.794   2.093   9.663 -0.8495  0.0526  0.3221
  109OSM   C14S11220   4.940   1.951   9.602 -0.3823 -0.0343 -1.0747
  109OSM   H14S11221   4.893   1.855   9.632  1.5600  0.0305  2.8318
  109OSM   H14T11222   5.047   1.935   9.628 -0.7924  0.6686  1.2399
  109OSM   C15S11223   4.926   1.982   9.459  0.1575 -0.3214 -1.0085
  109OSM   H15S11224   4.931   2.092   9.449  1.3785 -0.2014  0.4605
  109OSM   H15T11225   4.818   1.963   9.442 -0.4109 -1.0888  2.5751
  109OSM   C16S11226   5.009   1.884   9.380 -0.1247 -0.4492  0.7695
  109OSM   H16S11227   4.967   1.781   9.383  0.3751 -0.6452  1.0165
  109OSM   H16T11228   5.116   1.876   9.409  0.8786 -3.3027 -2.8642
  109OSM   C17S11229   5.010   1.917   9.233  0.0605  0.2260  0.0343
  109OSM   H17S11230   5.065   2.010   9.208  0.5333 -0.2808 -0.8651
  109OSM   H17T11231   4.910   1.937   9.187  0.3196 -2.3831 -1.9186
  109OSM   C18S11232   5.078   1.807   9.144 -0.4087 -0.7409  0.1099
  109OSM   H18S11233   5.174   1.773   9.189  0.0718  0.2109 -0.1699
  109OSM   H18T11234   5.108   1.848   9.045  1.5465 -0.0104  0.9525
  109OSM   H18U11235   5.011   1.719   9.134  1.6990 -2.7102  1.8620
  109OSM    C1F11236   4.251   2.543  10.235 -0.1263  0.8965 -0.4082
  109OSM     OF11237   4.302   2.655  10.229  0.0909 -0.0816 -0.4237
  109OSM    C2F11238   4.179   2.493  10.117  0.0967  0.0048 -0.0857
  109OSM    H2F11239   4.083   2.549  10.117 -0.5393 -1.0595 -0.3068
  109OSM    H2G11240   4.167   2.386  10.146  1.5171 -0.2796 -0.4723
  109OSM    C3F11241   4.252   2.498   9.982  0.0553  0.3285 -0.3746
  109OSM    H3F11242   4.344   2.436   9.990  1.2094  1.8966 -0.9064
  109OSM    H3G11243   4.288   2.602   9.967  0.1660 -0.0533 -3.2815
  109OSM    C4F11244   4.168   2.448   9.862 -0.4981  0.0063  0.6060
  109OSM    H4F11245   4.077   2.511   9.856  0.8603  2.0908  0.9553
  109OSM    H4G11246   4.133   2.348   9.897  1.0622 -0.3954  1.1221
  109OSM    C5F11247   4.247   2.448   9.728  0.0647 -0.1223 -0.3730
  109OSM    H5F11248   4.333   2.378   9.728  0.2644  0.0983  0.7656
  109OSM    H5G11249   4.260   2.556   9.704 -0.8466  0.4877  1.6457
  109OSM    C6F11250   4.156   2.388   9.621 -0.1633  0.4265 -0.0624
  109OSM    H6F11251   4.057   2.438   9.618 -0.2588  0.2188 -0.4913
  109OSM    H6G11252   4.155   2.283   9.656  0.4586  1.0870  2.0685
  109OSM    C7F11253   4.206   2.397   9.470 -0.0388  0.1576  0.2566
  109OSM    H7F11254   4.302   2.341   9.477 -0.6102 -1.0508 -1.0526
  109OSM    H7G11255   4.224   2.505   9.448  0.4975  0.1171  0.4786
  109OSM    C8F11256   4.114   2.346   9.367  0.5790 -0.4633  0.2481
  109OSM    H8F11257   4.071   2.251   9.405  3.6756 -1.8244  0.6681
  109OSM    H8G11258   4.182   2.313   9.285  0.1337 -0.3936 -0.1533
  109OSM    C9F11259   4.005   2.442   9.326  0.4150  0.0325 -0.2646
  109OSM    H9F11260   3.964   2.495   9.413 -1.1664  1.3370 -1.7329
  109OSM   C10F11261   3.947   2.463   9.200  0.8909 -0.6524  0.6372
  109OSM   H10F11262   3.885   2.552   9.184  0.8116 -1.1371 -2.3544
  109OSM   C11F11263   3.994   2.391   9.079  0.3121  0.0257  0.1185
  109OSM   H11F11264   3.912   2.371   9.006  0.4677 -1.0242  0.2054
  109OSM   H11G11265   4.020   2.290   9.117  1.0591  1.0503  2.5052
  109OSM   C12F11266   4.108   2.459   8.992  0.5086 -0.4512 -0.0581
  109OSM   H12F11267   4.131   2.380   8.918 -1.4642 -1.4810  0.3402
  109OSM   H12G11268   4.187   2.479   9.067 -0.8146 -3.6102  2.4705
  109OSM   C13F11269   4.053   2.584   8.920 -0.1402 -0.2838 -0.0614
  109OSM   H13F11270   4.142   2.641   8.884  0.8547 -2.4341 -1.1744
  109OSM   H13G11271   4.010   2.643   9.003  1.8956 -1.3963  1.8933
  109OSM   C14F11272   3.959   2.570   8.800 -0.3343 -0.4655 -1.1388
  109OSM   H14F11273   3.946   2.673   8.760 -0.7545  0.4651  1.2752
  109OSM   H14G11274   3.864   2.532   8.843  1.3175 -0.6911  2.7096
  109OSM   C15F11275   4.003   2.479   8.694 -0.0333  0.1811  0.0257
  109OSM   H15F11276   3.966   2.382   8.733 -0.0677  0.3480  0.4073
  109OSM   H15G11277   4.110   2.466   8.667  0.0687  0.3308  0.3507
  109OSM   C16F11278   3.923   2.501   8.562 -0.3751  0.1610 -0.7042
  109OSM   H16F11279   3.943   2.411   8.501 -1.9887 -0.5000 -0.3149
  109OSM   H16G11280   3.960   2.596   8.517 -0.3976  0.0335 -0.9920
  109OSM   C17F11281   3.767   2.510   8.583  0.2904 -0.9219 -0.4086
  109OSM   H17F11282   3.745   2.597   8.648 -2.0786 -0.0070 -2.2862
  109OSM   H17G11283   3.726   2.412   8.615  0.8419 -1.3821 -1.0671
  109OSM   C18F11284   3.697   2.545   8.451  0.5060 -0.1885  0.1216
  109OSM   H18F11285   3.718   2.648   8.415 -0.2493  0.1322  0.5797
  109OSM   H18G11286   3.587   2.551   8.459 -0.0186 -2.7484 -3.0436
  109OSM   H18H11287   3.718   2.465   8.377 -1.9190 -0.8545  0.0751
  110OSM      N11288   0.098   6.534  11.520 -1.1190 -0.0843  0.0665
  110OSM    C1511289   0.051   6.392  11.521  0.1773  0.5667 -0.1830
  110OSM   H15A11290   0.109   6.330  11.587  1.4890 -0.1918 -1.9751
  110OSM   H15B11291   0.082   6.353  11.426  1.7083 -1.2817  0.9983
  110OSM   H15C11292  -0.056   6.405  11.532  0.2642  1.8569 -0.6234
  110OSM    C1411293   0.047   6.601  11.646 -0.0728 -0.2363 -0.3253
  110OSM   H14A11294  -0.058   6.576  11.651 -0.4233  1.3185  0.6627
  110OSM   H14B11295   0.073   6.706  11.652  0.4619 -0.3135 -1.0992
  110OSM   H14C11296   0.089   6.551  11.732 -1.4222 -0.6160  0.1252
  110OSM    C1311297   0.250   6.538  11.527  0.3118  0.7806 -0.5121
  110OSM   H13A11298   0.298   6.500  11.438  0.7763  0.2885 -0.0592
  110OSM   H13B11299   0.281   6.476  11.610 -0.2175 -0.5274 -1.2579
  110OSM   H13C11300   0.273   6.643  11.536 -3.9496  1.8601  0.3784
  110OSM    C1211301   0.046   6.615  11.403  0.1324  0.2787  0.4196
  110OSM   H12A11302   0.102   6.707  11.403  3.4011 -1.4840 -1.4657
  110OSM   H12B11303  -0.052   6.644  11.436  0.9674 -0.6326  4.2673
  110OSM    C1111304   0.036   6.547  11.261 -0.0463 -0.5381  0.6465
  110OSM   H11A11305  -0.037   6.596  11.193 -0.0480 -1.8116 -0.2979
  110OSM   H11B11306  -0.010   6.447  11.273 -0.9932 -0.3821 -1.4083
  110OSM      P11307   0.243   6.645  11.134  0.2218  0.0651 -0.5840
  110OSM    O1311308   0.330   6.726  11.223 -0.2746 -0.3221 -0.9375
  110OSM    O1411309   0.309   6.590  11.014  0.1409  0.9642  0.3733
  110OSM    O1111310   0.125   6.740  11.098  0.1299 -0.1481 -0.1044
  110OSM    O1211311   0.169   6.525  11.214 -0.1100 -0.9624  0.0651
  110OSM    C1S11312   0.128   6.853  11.017  0.4444 -0.7146  0.7759
  110OSM    H1S11313   0.206   6.926  11.045 -0.7473  1.0996 -0.4562
  110OSM    H1T11314   0.034   6.907  11.040  0.9632 -0.1821  1.6933
  110OSM     NF11315   0.150   6.954  10.799  0.1062 -0.1837  0.0918
  110OSM    HNF11316   0.064   7.002  10.781  0.8854  0.6844 -1.5654
  110OSM    C2S11317   0.136   6.828  10.864 -0.3425 -0.4904  0.5939
  110OSM    H2S11318   0.225   6.766  10.844  0.8813  1.6828 -1.0823
  110OSM    C3S11319   0.005   6.760  10.817 -0.0441 -0.5635 -0.1130
  110OSM    H3S11320  -0.075   6.833  10.844 -0.2057 -1.0858  0.9023
  110OSM     O311321  -0.035   6.641  10.895  0.3141 -0.3110  0.8370
  110OSM    HO311322   0.011   6.658  10.978 -0.5457  2.3272  0.8560
  110OSM    C4S11323   0.014   6.739  10.670 -0.4483  0.6237 -0.4897
  110OSM    H4S11324  -0.057   6.804  10.617  0.8018  3.5141  1.1575
  110OSM    C5S11325   0.080   6.650  10.599  0.2798  0.9332  0.7536
  110OSM    H5S11326   0.152   6.586  10.652  0.1578  0.8202  0.7841
  110OSM    C6S11327   0.073   6.627  10.451  0.1874 -0.5780  0.3832
  110OSM    H6S11328  -0.011   6.677  10.398 -0.9277 -1.9197  0.8349
  110OSM    H6T11329   0.068   6.517  10.433  0.5813 -0.5943  0.3768
  110OSM    C7S11330   0.213   6.671  10.397  0.6369 -0.0246  0.0517
  110OSM    H7S11331   0.297   6.610  10.436  1.6450  0.2923 -1.5196
  110OSM    H7T11332   0.231   6.776  10.429 -3.3673  1.2798 -1.3424
  110OSM    C8S11333   0.222   6.682  10.239  0.3324 -0.3135  0.2125
  110OSM    H8S11334   0.313   6.723  10.188 -1.1889 -0.4871 -2.9013
  110OSM    H8T11335   0.133   6.742  10.209  0.5432 -0.5455 -0.9264
  110OSM    C9S11336   0.190   6.547  10.169  0.0773 -0.2841 -0.5899
  110OSM    H9S11337   0.089   6.511  10.195  1.2528 -2.4290  1.4207
  110OSM    H9T11338   0.254   6.466  10.211 -1.5064 -1.0837  0.3643
  110OSM   C10S11339   0.213   6.551  10.017 -0.2437 -0.0855  0.4475
  110OSM   H10S11340   0.213   6.443   9.990 -0.4624  0.5879 -2.5335
  110OSM   H10T11341   0.315   6.586   9.990 -1.3829  2.4308 -0.9377
  110OSM   C11S11342   0.095   6.614   9.941 -0.0326  0.3460  0.1478
  110OSM   H11S11343   0.079   6.722   9.964 -2.2309  0.1431 -0.2189
  110OSM   H11T11344   0.001   6.574   9.986 -0.4567 -0.1778 -1.1584
  110OSM   C12S11345   0.104   6.608   9.787 -0.3822  0.2356 -0.1431
  110OSM   H12S11346   0.123   6.503   9.754  1.1017  0.5337 -0.3048
  110OSM   H12T11347   0.184   6.676   9.750  1.8435 -0.2580  3.2514
  110OSM   C13S11348  -0.019   6.661   9.721 -0.4688 -0.0922 -0.3228
  110OSM   H13S11349  -0.043   6.769   9.736  0.1657  0.0666 -0.4207
  110OSM   H13T11350  -0.106   6.601   9.757  1.9704 -2.5243  1.8956
  110OSM   C14S11351  -0.007   6.638   9.565  0.3721 -0.2693 -0.6695
  110OSM   H14S11352  -0.025   6.529   9.557 -3.2853  0.0032  1.6997
  110OSM   H14T11353   0.083   6.671   9.508 -1.3082  3.4575 -1.5210
  110OSM   C15S11354  -0.125   6.717   9.490  0.6873  0.6347  0.0822
  110OSM   H15S11355  -0.101   6.825   9.496  0.2694  0.6934  0.7315
  110OSM   H15T11356  -0.222   6.694   9.540  1.1493  1.1290  1.2223
  110OSM   C16S11357  -0.130   6.677   9.339 -0.1555  0.8161  0.0811
  110OSM   H16S11358  -0.164   6.573   9.322  2.2021 -0.3971  2.0972
  110OSM   H16T11359  -0.031   6.688   9.290 -1.1550  0.9768 -2.0003
  110OSM   C17S11360  -0.219   6.767   9.256  0.4812 -0.2272  0.8820
  110OSM   H17S11361  -0.206   6.715   9.159  1.7313 -1.6508  1.7826
  110OSM   H17T11362  -0.172   6.868   9.254 -0.5649  0.2638 -0.3313
  110OSM   C18S11363  -0.367   6.770   9.298 -0.0237  0.8805 -0.1406
  110OSM   H18S11364  -0.372   6.847   9.378 -0.3319 -1.0251  1.7821
  110OSM   H18T11365  -0.402   6.674   9.342  2.2944  0.2288  0.3627
  110OSM   H18U11366  -0.432   6.799   9.213 -0.9339 -0.8606 -0.0890
  110OSM    C1F11367   0.256   7.015  10.772 -0.1493  0.0840  0.2930
  110OSM     OF11368   0.363   6.972  10.810 -0.3409  0.3905  0.2469
  110OSM    C2F11369   0.243   7.153  10.703 -0.1882 -0.1127  0.4716
  110OSM    H2F11370   0.307   7.221  10.763  0.5779  0.7923 -1.2966
  110OSM    H2G11371   0.137   7.178  10.684  0.1074  1.5391  0.9120
  110OSM    C3F11372   0.309   7.149  10.559 -0.0963 -0.3550  0.3040
  110OSM    H3F11373   0.299   7.054  10.504  0.1539 -1.1037  1.5216
  110OSM    H3G11374   0.418   7.171  10.562  0.1050 -1.2485 -0.1158
  110OSM    C4F11375   0.252   7.263  10.473  0.8671  0.2047 -0.0793
  110OSM    H4F11376   0.247   7.354  10.535 -1.3738  0.3297 -0.3596
  110OSM    H4G11377   0.145   7.236  10.460  1.3231 -1.5384 -0.5777
  110OSM    C5F11378   0.339   7.283  10.350 -0.5034 -0.1713  0.1049
  110OSM    H5F11379   0.343   7.188  10.293 -0.8045  0.2718 -0.6618
  110OSM    H5G11380   0.446   7.302  10.373 -0.4587 -0.1899 -0.0892
  110OSM    C6F11381   0.272   7.385  10.253 -0.3134 -0.2157 -0.2923
  110OSM    H6F11382   0.289   7.486  10.296 -2.7719 -0.5536  1.7045
  110OSM    H6G11383   0.162   7.372  10.250 -0.8251  2.8349  0.9866
  110OSM    C7F11384   0.319   7.369  10.110  0.1781  0.3068 -0.6011
  110OSM    H7F11385   0.327   7.261  10.088 -1.2160  0.3335 -1.3158
  110OSM    H7G11386   0.421   7.412  10.096 -0.6491  2.8873  0.6380
  110OSM    C8F11387   0.218   7.445  10.010 -0.6962  0.4539 -0.1292
  110OSM    H8F11388   0.239   7.553  10.026  0.1686  0.7395 -2.6976
  110OSM    H8G11389   0.122   7.426  10.062 -0.1898 -1.2168  0.2872
  110OSM    C9F11390   0.220   7.407   9.862  0.3065  0.7216 -0.3995
  110OSM    H9F11391   0.263   7.309   9.838 -0.8626  0.2211 -0.5169
  110OSM   C10F11392   0.193   7.483   9.752 -0.4891 -0.3078 -0.6058
  110OSM   H10F11393   0.201   7.432   9.655 -1.3484 -0.5252 -0.5733
  110OSM   C11F11394   0.131   7.617   9.755  0.3502 -0.2407 -1.4559
  110OSM   H11F11395   0.198   7.698   9.719  1.2652 -0.7885 -1.0068
  110OSM   H11G11396   0.106   7.637   9.862  1.5177 -1.1575 -1.0023
  110OSM   C12F11397  -0.002   7.639   9.688 -0.3941  0.6912 -0.7602
  110OSM   H12F11398  -0.041   7.738   9.721  0.9652  0.9053  0.2764
  110OSM   H12G11399  -0.072   7.563   9.730  2.7347 -1.8231  0.2623
  110OSM   C13F11400  -0.003   7.641   9.534  0.1301  0.1369 -0.1833
  110OSM   H13F11401   0.031   7.544   9.491 -1.5209 -0.3416 -0.4623
  110OSM   H13G11402   0.066   7.722   9.501  1.6477 -1.3173 -0.6836
  110OSM   C14F11403  -0.138   7.685   9.475 -0.1598 -0.4479 -0.1335
  110OSM   H14F11404  -0.187   7.746   9.554  1.1172  1.9779 -1.1007
  110OSM   H14G11405  -0.208   7.599   9.462  0.3924 -1.0538  0.7504
  110OSM   C15F11406  -0.136   7.784   9.354 -0.1050 -0.5310 -0.1535
  110OSM   H15F11407  -0.070   7.869   9.380  0.3876 -1.3756  1.4699
  110OSM   H15G11408  -0.239   7.825   9.351 -0.9274 -2.4769  0.2858
  110OSM   C16F11409  -0.090   7.709   9.228 -0.1011  0.3550  0.4338
  110OSM   H16F11410  -0.178   7.654   9.188 -2.4945  1.2938  3.9821
  110OSM   H16G11411  -0.009   7.637   9.253 -0.4661 -0.3483 -0.3609
  110OSM   C17F11412  -0.039   7.802   9.111  0.1524 -0.3736  0.0029
  110OSM   H17F11413   0.066   7.831   9.135  0.2945 -2.1820  1.9261
  110OSM   H17G11414  -0.105   7.892   9.108 -0.8323 -1.1138 -2.2771
  110OSM   C18F11415  -0.032   7.741   8.969 -0.3313  0.0170 -0.2180
  110OSM   H18F11416   0.032   7.803   8.904  1.2312 -1.4080 -0.1062
  110OSM   H18G11417  -0.133   7.734   8.924 -0.6059 -2.4799  0.6094
  110OSM   H18H11418   0.014   7.640   8.964  0.6560  0.4700 -0.5907
  111OSM      N11419   4.472   4.427  10.810 -0.1318 -0.6262 -0.3054
  111OSM    C1511420   4.390   4.342  10.909 -0.2784 -0.3592 -0.1781
  111OSM   H15A11421   4.321   4.403  10.966  1.4810  0.3295  1.3014
  111OSM   H15B11422   4.459   4.300  10.980  0.8650  2.4707  0.5088
  111OSM   H15C11423   4.344   4.259  10.858  1.1214 -1.2570 -0.0331
  111OSM    C1411424   4.509   4.562  10.868  0.0043  0.0559 -0.0427
  111OSM   H14A11425   4.427   4.629  10.888 -0.8919 -1.7916  3.3080
  111OSM   H14B11426   4.579   4.621  10.812  0.2278 -0.4810 -0.3405
  111OSM   H14C11427   4.549   4.554  10.968  0.4207 -2.4044 -0.3204
  111OSM    C1311428   4.595   4.352  10.784  0.3450  0.9581 -0.0738
  111OSM   H13A11429   4.584   4.255  10.737 -0.5431  0.8977  0.2494
  111OSM   H13B11430   4.646   4.337  10.879 -1.6258  1.4083  1.1155
  111OSM   H13C11431   4.670   4.415  10.739  1.3696 -0.0429  0.1672
  111OSM    C1211432   4.394   4.465  10.676  0.5362  0.5729  0.6307
  111OSM   H12A11433   4.463   4.526  10.620  2.8905 -1.1044  1.5981
  111OSM   H12B11434   4.310   4.531  10.696  0.4419  0.9325 -0.8092
  111OSM    C1111435   4.338   4.349  10.588  0.2551 -0.4787  0.4907
  111OSM   H11A11436   4.407   4.269  10.554 -0.1004  0.4950 -2.8906
  111OSM   H11B11437   4.295   4.375  10.489 -0.7455  0.6054  1.1771
  111OSM      P11438   4.092   4.340  10.683 -0.0236 -0.0911  0.1160
  111OSM    O1311439   4.054   4.330  10.823  0.2501 -0.2618  0.2953
  111OSM    O1411440   4.079   4.473  10.618 -0.2595 -0.1505  0.2785
  111OSM    O1111441   4.018   4.230  10.596  0.1437 -0.1314 -0.3070
  111OSM    O1211442   4.237   4.290  10.663  0.3113  0.8091 -0.2507
  111OSM    C1S11443   4.047   4.236  10.454 -0.0713 -0.4683  0.0856
  111OSM    H1S11444   4.155   4.214  10.443  0.0708 -0.7939  1.9100
  111OSM    H1T11445   4.021   4.331  10.402  1.6069 -0.6865 -1.2470
  111OSM     NF11446   4.023   4.108  10.249  0.1404  0.1287 -0.5044
  111OSM    HNF11447   3.986   4.178  10.189  0.9678  0.2567 -0.8786
  111OSM    C2S11448   3.966   4.125  10.385 -0.0283  0.0461 -0.4082
  111OSM    H2S11449   3.977   4.024  10.430 -2.7386  0.6843  2.0262
  111OSM    C3S11450   3.814   4.157  10.393 -0.0748 -0.1526  0.4469
  111OSM    H3S11451   3.807   4.255  10.342  1.6915 -0.1520  0.1285
  111OSM     O311452   3.762   4.187  10.525 -0.2991 -0.3618  0.3215
  111OSM    HO311453   3.838   4.197  10.582 -0.6331  2.1844  0.4343
  111OSM    C4S11454   3.734   4.042  10.327  0.3611 -0.4763  0.0897
  111OSM    H4S11455   3.756   3.938  10.358  1.9705 -0.1404  0.1381
  111OSM    C5S11456   3.647   4.068  10.222 -0.0380  0.7455  0.1731
  111OSM    H5S11457   3.626   4.173  10.198  1.5333  1.7979  2.9213
  111OSM    C6S11458   3.568   3.970  10.138 -0.4954 -0.6701  0.0030
  111OSM    H6S11459   3.466   4.011  10.126  0.0347  0.2811 -1.5923
  111OSM    H6T11460   3.557   3.876  10.197 -2.5218  1.0758  2.6558
  111OSM    C7S11461   3.637   3.963  10.000  0.2285  0.1988  0.3440
  111OSM    H7S11462   3.744   3.938  10.018  0.1645 -0.0819  0.3392
  111OSM    H7T11463   3.630   4.060   9.947  3.0565  0.5198  0.3940
  111OSM    C8S11464   3.577   3.846   9.914 -0.0242 -0.0216  0.3551
  111OSM    H8S11465   3.490   3.892   9.863  0.7851 -1.5997 -2.7657
  111OSM    H8T11466   3.539   3.776   9.992 -2.4685 -0.8407 -1.4320
  111OSM    C9S11467   3.670   3.780   9.811  0.5902  0.3129 -0.1493
  111OSM    H9S11468   3.764   3.759   9.865 -0.5596 -0.5929  1.6116
  111OSM    H9T11469   3.690   3.848   9.725 -0.9377  1.8050  0.6074
  111OSM   C10S11470   3.596   3.656   9.759 -0.0180  0.2749  0.5671
  111OSM   H10S11471   3.496   3.699   9.737  1.0590  2.4719 -0.3968
  111OSM   H10T11472   3.593   3.569   9.827 -0.0758 -1.8125 -1.9303
  111OSM   C11S11473   3.666   3.607   9.634  0.4740 -0.2129  0.9608
  111OSM   H11S11474   3.610   3.514   9.611 -0.7489  0.7652 -0.1990
  111OSM   H11T11475   3.775   3.591   9.648  0.7343  0.6930  0.1117
  111OSM   C12S11476   3.651   3.694   9.507 -0.4120 -0.1949  0.0783
  111OSM   H12S11477   3.720   3.780   9.522  1.0446 -1.8044  3.9192
  111OSM   H12T11478   3.546   3.731   9.505 -0.7166 -1.0175 -1.2727
  111OSM   C13S11479   3.696   3.626   9.378  0.3782 -0.4326 -0.8839
  111OSM   H13S11480   3.627   3.540   9.370 -0.1841 -0.2123  1.0851
  111OSM   H13T11481   3.803   3.595   9.384  0.0478 -1.4885 -0.1955
  111OSM   C14S11482   3.676   3.729   9.264  0.3331 -0.9124 -0.0581
  111OSM   H14S11483   3.729   3.824   9.284 -1.0817  0.0118 -0.5633
  111OSM   H14T11484   3.571   3.761   9.273  1.4517  2.6137  2.2616
  111OSM   C15S11485   3.700   3.670   9.122  0.1712  0.1846  0.5825
  111OSM   H15S11486   3.645   3.575   9.106  1.1407 -0.4842  1.1357
  111OSM   H15T11487   3.808   3.645   9.115  0.3601  0.6381  1.6350
  111OSM   C16S11488   3.657   3.758   9.004  0.7024 -0.3234  0.2095
  111OSM   H16S11489   3.729   3.842   8.997  1.5678 -1.1354 -1.0811
  111OSM   H16T11490   3.559   3.808   9.022  2.3705  3.3108 -0.0077
  111OSM   C17S11491   3.647   3.687   8.865 -0.0771 -0.5737 -0.1589
  111OSM   H17S11492   3.616   3.760   8.788  2.8142  1.6035  0.5890
  111OSM   H17T11493   3.563   3.613   8.862 -1.2918  0.7899 -2.4799
  111OSM   C18S11494   3.776   3.622   8.821  0.8603 -0.1070 -0.0557
  111OSM   H18S11495   3.768   3.587   8.716 -1.4499  0.4351 -0.1119
  111OSM   H18T11496   3.798   3.535   8.888  1.4757 -0.0999 -0.2457
  111OSM   H18U11497   3.847   3.706   8.831  0.0233  0.7905 -1.3393
  111OSM    C1F11498   4.142   4.048  10.227  0.3990  0.6692 -0.0844
  111OSM     OF11499   4.218   4.013  10.317 -0.3778 -0.1247  0.3336
  111OSM    C2F11500   4.180   4.028  10.078 -0.8578  0.0300 -0.2419
  111OSM    H2F11501   4.200   3.919  10.067 -2.8054 -0.2780 -1.1227
  111OSM    H2G11502   4.268   4.089  10.048 -1.2688  0.0949 -1.3320
  111OSM    C3F11503   4.068   4.055   9.969 -0.3458  0.4618  0.0906
  111OSM    H3F11504   4.041   4.160   9.992  1.5863  0.4641  2.7864
  111OSM    H3G11505   3.977   3.994   9.988  1.2481 -2.1391 -0.0851
  111OSM    C4F11506   4.118   4.040   9.828  0.3760 -0.3523 -0.0336
  111OSM    H4F11507   4.156   3.936   9.821  1.7979  0.0683  0.9400
  111OSM    H4G11508   4.200   4.108   9.798 -0.1522  0.7739  0.9661
  111OSM    C5F11509   4.004   4.052   9.735 -0.1913 -1.1985  0.2048
  111OSM    H5F11510   3.962   4.155   9.736 -1.6443 -1.7754  0.9312
  111OSM    H5G11511   3.927   3.981   9.770 -1.4412 -0.1555 -0.3408
  111OSM    C6F11512   4.057   4.009   9.596 -0.0166  0.5180 -0.1206
  111OSM    H6F11513   4.115   3.914   9.601  1.0458  1.1859  0.4653
  111OSM    H6G11514   4.137   4.083   9.578  0.0614  1.0522  2.1450
  111OSM    C7F11515   3.952   4.000   9.487  0.6764 -0.1284 -0.6170
  111OSM    H7F11516   3.914   4.103   9.469  2.4487  0.1822 -3.0324
  111OSM    H7G11517   3.866   3.944   9.528 -0.9026  1.2383 -1.9181
  111OSM    C8F11518   3.997   3.934   9.352  0.2442 -0.1738  0.6005
  111OSM    H8F11519   3.919   3.958   9.276  2.1574  5.2294 -0.1188
  111OSM    H8G11520   4.005   3.826   9.376  1.1439 -0.1391  0.5063
  111OSM    C9F11521   4.123   3.996   9.303  0.7706 -0.4760  0.6243
  111OSM    H9F11522   4.198   4.011   9.382  0.2661 -2.1496  1.4820
  111OSM   C10F11523   4.156   4.016   9.169 -0.4140 -0.6775 -0.4025
  111OSM   H10F11524   4.258   4.050   9.144 -0.6789 -0.6119 -1.4339
  111OSM   C11F11525   4.068   3.982   9.052  0.4079  0.4918  0.2612
  111OSM   H11F11526   3.991   4.061   9.036  2.2870  2.3741  0.0527
  111OSM   H11G11527   4.021   3.886   9.083 -1.9267  1.7562  0.9088
  111OSM   C12F11528   4.156   3.967   8.917  0.1831 -0.0131 -0.6409
  111OSM   H12F11529   4.254   3.923   8.943  1.0598  2.3493  0.3471
  111OSM   H12G11530   4.182   4.073   8.895  0.1553  0.4912  1.4938
  111OSM   C13F11531   4.081   3.897   8.806 -0.6727  0.1616 -0.4991
  111OSM   H13F11532   3.972   3.922   8.810 -0.6590  0.2392 -0.5888
  111OSM   H13G11533   4.094   3.791   8.836 -0.6392  0.4178  0.4353
  111OSM   C14F11534   4.139   3.924   8.668  0.1903  0.0706 -0.4285
  111OSM   H14F11535   4.116   4.027   8.636  1.9741  0.6330  0.0088
  111OSM   H14G11536   4.095   3.848   8.599 -0.2646 -1.4586  1.4555
  111OSM   C15F11537   4.284   3.910   8.653 -0.1954  0.7391  0.0188
  111OSM   H15F11538   4.321   3.813   8.691  1.5794  1.7867  1.1033
  111OSM   H15G11539   4.333   3.994   8.707  0.6012  1.0385 -1.1235
  111OSM   C16F11540   4.321   3.925   8.505 -0.0725  0.7315 -0.0839
  111OSM   H16F11541   4.260   3.996   8.445  1.6106  0.6938 -1.9227
  111OSM   H16G11542   4.290   3.830   8.457 -1.4387 -0.0671  2.1924
  111OSM   C17F11543   4.468   3.938   8.468  0.5250 -0.6687 -0.1499
  111OSM   H17F11544   4.524   3.849   8.504  1.5526 -0.1103 -0.3200
  111OSM   H17G11545   4.514   4.026   8.517  0.1716 -0.8819  0.5701
  111OSM   C18F11546   4.490   3.972   8.320 -0.2204 -0.2433  0.2983
  111OSM   H18F11547   4.450   3.889   8.258  1.0288 -1.8547  1.5383
  111OSM   H18G11548   4.597   3.970   8.292 -0.6408 -1.7965 -1.4060
  111OSM   H18H11549   4.434   4.065   8.297 -0.9108 -0.8000 -0.3376
  112OSM      N11550   3.991   3.517  10.754  0.3672  0.1419  0.5582
  112OSM    C1511551   4.007   3.614  10.869  0.6760  0.2007 -0.3516
  112OSM   H15A11552   4.027   3.713  10.831 -2.1465  1.2586  0.6706
  112OSM   H15B11553   4.099   3.596  10.923 -0.5682 -2.5918  1.0685
  112OSM   H15C11554   3.924   3.622  10.937  0.2147 -1.4471 -0.6804
  112OSM    C1411555   3.848   3.504  10.699  0.2514  0.0958 -0.1424
  112OSM   H14A11556   3.782   3.469  10.776  0.0997  2.3208  0.7974
  112OSM   H14B11557   3.861   3.443  10.611  1.4863  2.0379 -1.4009
  112OSM   H14C11558   3.821   3.601  10.659 -0.3804  0.1089  0.3060
  112OSM    C1311559   4.081   3.572  10.646  0.3846 -0.0721  0.4210
  112OSM   H13A11560   4.065   3.674  10.614 -2.9100 -0.7129 -0.3453
  112OSM   H13B11561   4.063   3.519  10.554  0.1281  2.3304 -1.0235
  112OSM   H13C11562   4.184   3.545  10.664  0.4426 -1.0101 -1.1380
  112OSM    C1211563   4.040   3.391  10.806  0.6231  0.2449  0.2960
  112OSM   H12A11564   3.969   3.357  10.880  0.3792 -0.1085 -0.1035
  112OSM   H12B11565   4.127   3.403  10.869 -0.8384 -1.7604  2.9132
  112OSM    C1111566   4.071   3.279  10.705 -0.0312 -0.1659 -0.0760
  112OSM   H11A11567   4.121   3.201  10.765  2.1241  1.3183  0.1559
  112OSM   H11B11568   4.151   3.311  10.635 -0.8404  0.9110 -0.5494
  112OSM      P11569   3.942   3.222  10.483  0.1379 -0.1517 -0.3528
  112OSM    O1311570   3.850   3.110  10.450  0.0646 -0.6029  0.3388
  112OSM    O1411571   3.903   3.353  10.426  0.2853 -0.5900  0.1099
  112OSM    O1111572   4.091   3.187  10.442  0.4289 -0.4480  0.0031
  112OSM    O1211573   3.951   3.235  10.645 -0.0899  0.0224  0.0476
  112OSM    C1S11574   4.112   3.097  10.332 -0.7736  0.3079 -0.3816
  112OSM    H1S11575   4.080   3.143  10.236 -2.0435  1.3782  0.5193
  112OSM    H1T11576   4.050   3.006  10.346 -1.6136  0.7768 -0.9565
  112OSM     NF11577   4.287   2.971  10.214  0.0141 -0.4366  0.9778
  112OSM    HNF11578   4.310   2.874  10.222 -1.4898 -0.9476 -0.3503
  112OSM    C2S11579   4.261   3.052  10.332 -0.2397 -0.2489  0.1079
  112OSM    H2S11580   4.324   3.144  10.327  1.8334 -1.5562  0.5971
  112OSM    C3S11581   4.295   2.970  10.463  0.2335 -0.2456  1.0191
  112OSM    H3S11582   4.213   2.899  10.485  0.6219 -0.1034  3.0840
  112OSM     O311583   4.287   3.045  10.589  0.0307  0.2490 -0.0249
  112OSM    HO311584   4.237   3.124  10.566 -0.3191 -0.4276 -1.7702
  112OSM    C4S11585   4.426   2.901  10.441  0.0944  0.1265  0.4636
  112OSM    H4S11586   4.430   2.810  10.380  1.2376  0.9694 -0.7580
  112OSM    C5S11587   4.545   2.941  10.485 -0.6037 -0.0338  0.3626
  112OSM    H5S11588   4.544   3.044  10.525 -0.1500 -0.0639  0.4520
  112OSM    C6S11589   4.675   2.866  10.459 -0.0431  0.2964  0.0121
  112OSM    H6S11590   4.716   2.847  10.561 -0.3488 -0.4987 -0.0033
  112OSM    H6T11591   4.749   2.931  10.409 -0.5125 -0.1473 -1.2979
  112OSM    C7S11592   4.677   2.727  10.376 -0.7721  0.0735  0.3392
  112OSM    H7S11593   4.605   2.655  10.420 -0.6754  0.0760  0.5050
  112OSM    H7T11594   4.779   2.687  10.389 -1.9017 -2.8650  0.9041
  112OSM    C8S11595   4.646   2.744  10.224 -0.2097 -0.6139 -0.2749
  112OSM    H8S11596   4.707   2.829  10.186 -1.1455  1.0583  1.7625
  112OSM    H8T11597   4.539   2.771  10.220  0.3414  2.9291  3.1067
  112OSM    C9S11598   4.661   2.617  10.149  0.3312  0.4691  0.7294
  112OSM    H9S11599   4.584   2.551  10.193  0.3980  0.7728  1.3111
  112OSM    H9T11600   4.755   2.558  10.155 -0.2934 -1.2388 -3.0794
  112OSM   C10S11601   4.632   2.626  10.005  0.2791 -1.0549  0.3996
  112OSM   H10S11602   4.692   2.710   9.965 -0.5760 -1.9275 -3.0644
  112OSM   H10T11603   4.525   2.655   9.999  0.9896  2.0008  0.9172
  112OSM   C11S11604   4.660   2.490   9.926 -0.5442 -0.4161  0.0958
  112OSM   H11S11605   4.583   2.416   9.958  0.9108 -1.3983  1.4844
  112OSM   H11T11606   4.756   2.448   9.962  1.4977  1.2403 -2.9365
  112OSM   C12S11607   4.657   2.512   9.773 -0.5244 -1.1113 -0.4664
  112OSM   H12S11608   4.729   2.591   9.742 -1.8995 -0.2445 -1.5522
  112OSM   H12T11609   4.561   2.563   9.752 -0.1011 -0.1178 -0.0611
  112OSM   C13S11610   4.664   2.391   9.683 -0.7653  0.5912 -0.1568
  112OSM   H13S11611   4.595   2.319   9.732 -1.2132  2.9343  2.9720
  112OSM   H13T11612   4.764   2.346   9.693 -0.9534  0.2570  0.2341
  112OSM   C14S11613   4.630   2.446   9.544 -0.0223 -0.3107  0.0730
  112OSM   H14S11614   4.709   2.520   9.516 -2.0346  1.4376 -1.3023
  112OSM   H14T11615   4.529   2.493   9.540 -0.8057 -1.9674 -3.2720
  112OSM   C15S11616   4.618   2.322   9.452 -0.6644 -0.2551  0.1139
  112OSM   H15S11617   4.535   2.258   9.490 -0.3192 -0.2065  0.9839
  112OSM   H15T11618   4.709   2.259   9.457 -0.6818 -0.3531 -0.7313
  112OSM   C16S11619   4.598   2.361   9.305  0.6069  0.1840  0.4853
  112OSM   H16S11620   4.685   2.412   9.259  0.7066 -0.6773 -0.3009
  112OSM   H16T11621   4.512   2.432   9.295  1.0515  0.7234  0.4319
  112OSM   C17S11622   4.583   2.237   9.217  0.0027  0.1484  0.1244
  112OSM   H17S11623   4.578   2.260   9.108  1.2895 -2.1712 -0.5049
  112OSM   H17T11624   4.481   2.197   9.235 -1.2184  0.6525 -4.3590
  112OSM   C18S11625   4.687   2.117   9.225 -0.1119 -0.3238  0.4269
  112OSM   H18S11626   4.785   2.154   9.188 -0.8414  0.7404 -0.5118
  112OSM   H18T11627   4.657   2.039   9.152 -0.9151 -1.8126  2.2551
  112OSM   H18U11628   4.681   2.071   9.326 -1.0566 -0.8862  0.1216
  112OSM    C1F11629   4.276   3.016  10.085  0.3089 -0.1333  0.4944
  112OSM     OF11630   4.268   3.136  10.059  0.1798  0.3808 -0.1751
  112OSM    C2F11631   4.281   2.897   9.982  0.0151  0.3757  0.2809
  112OSM    H2F11632   4.186   2.840   9.984  0.3404 -0.2049 -0.7121
  112OSM    H2G11633   4.372   2.842  10.013  1.0950  0.0718 -3.0802
  112OSM    C3F11634   4.315   2.941   9.840 -0.1146  0.0468  0.4269
  112OSM    H3F11635   4.416   2.986   9.830  0.7593 -2.2647 -2.9722
  112OSM    H3G11636   4.243   3.019   9.808 -1.6126 -2.2649 -2.2401
  112OSM    C4F11637   4.321   2.816   9.745  0.7463 -0.0630  0.3314
  112OSM    H4F11638   4.216   2.789   9.721  0.8651  0.4481 -0.8462
  112OSM    H4G11639   4.374   2.737   9.803 -1.5750 -0.4096  2.1381
  112OSM    C5F11640   4.403   2.836   9.610  0.0991  0.5730 -0.2335
  112OSM    H5F11641   4.512   2.824   9.631 -0.1155  1.3348  1.5094
  112OSM    H5G11642   4.394   2.939   9.572 -0.6089  0.5221 -0.2060
  112OSM    C6F11643   4.353   2.750   9.493  0.5128  0.3819 -0.4577
  112OSM    H6F11644   4.242   2.749   9.493  0.4799  0.9461 -2.1384
  112OSM    H6G11645   4.389   2.646   9.482 -1.1462 -0.1666 -0.8856
  112OSM    C7F11646   4.390   2.817   9.359  0.6546  0.3749 -0.1377
  112OSM    H7F11647   4.500   2.832   9.362  0.8644 -0.9561 -0.4628
  112OSM    H7G11648   4.344   2.918   9.357  0.0468  0.1036 -1.6773
  112OSM    C8F11649   4.347   2.738   9.231  0.3207  0.1564  0.4943
  112OSM    H8F11650   4.237   2.732   9.247  0.4035 -0.7458  0.7938
  112OSM    H8G11651   4.382   2.634   9.249 -0.2536  0.2686  2.5545
  112OSM    C9F11652   4.385   2.795   9.095 -0.5954 -0.3660  0.5550
  112OSM    H9F11653   4.338   2.893   9.082 -0.7135 -0.6838 -1.8613
  112OSM   C10F11654   4.487   2.757   9.013 -0.1846  1.0869  0.3486
  112OSM   H10F11655   4.508   2.816   8.923  0.4775 -0.1296 -0.3153
  112OSM   C11F11656   4.588   2.653   9.045  0.1065 -0.1973 -0.5899
  112OSM   H11F11657   4.564   2.591   9.134 -0.6074 -0.3561 -0.8884
  112OSM   H11G11658   4.680   2.711   9.070 -0.9003  1.5180 -0.7270
  112OSM   C12F11659   4.606   2.559   8.925 -0.2409 -0.1754 -0.6891
  112OSM   H12F11660   4.693   2.495   8.953 -1.0083 -0.7361  0.4755
  112OSM   H12G11661   4.623   2.618   8.832 -1.9514  1.5876  0.0313
  112OSM   C13F11662   4.487   2.466   8.919  0.6573  0.7914 -0.3501
  112OSM   H13F11663   4.402   2.530   8.885  1.2673  1.5617 -0.4666
  112OSM   H13G11664   4.449   2.422   9.014 -0.2839  2.4831  0.0995
  112OSM   C14F11665   4.497   2.342   8.832  0.4690  0.1225  0.3344
  112OSM   H14F11666   4.426   2.266   8.870 -0.4809  1.0281  0.4151
  112OSM   H14G11667   4.598   2.299   8.847  0.3176  0.7949  4.7438
  112OSM   C15F11668   4.471   2.377   8.688 -0.6461  0.3232 -0.0279
  112OSM   H15F11669   4.534   2.467   8.668  0.4885 -0.3047  0.6515
  112OSM   H15G11670   4.364   2.404   8.677 -0.6832  2.0201  3.2202
  112OSM   C16F11671   4.504   2.263   8.595 -0.5538  0.8095 -1.3064
  112OSM   H16F11672   4.479   2.172   8.655  1.5593  0.2988 -1.1220
  112OSM   H16G11673   4.611   2.279   8.570 -0.8101  3.8064 -0.8211
  112OSM   C17F11674   4.427   2.267   8.459 -0.0747 -0.1103  0.2906
  112OSM   H17F11675   4.471   2.182   8.403  0.9424  0.6140 -0.0414
  112OSM   H17G11676   4.467   2.358   8.409  1.2538  0.2940  1.9872
  112OSM   C18F11677   4.274   2.239   8.477  0.1939 -0.6117  0.0591
  112OSM   H18F11678   4.231   2.282   8.570 -1.1738 -2.1767  0.2076
  112OSM   H18G11679   4.263   2.128   8.485 -2.0143 -0.5947 -1.5633
  112OSM   H18H11680   4.223   2.285   8.389 -0.1036  0.1401  0.6137
  113OSM      N11681   6.068   1.360  11.267  0.1796 -0.9211  0.4314
  113OSM    C1511682   6.063   1.207  11.291  0.5818 -0.0295  0.0199
  113OSM   H15A11683   5.962   1.170  11.304  0.3977 -0.3722 -2.1434
  113OSM   H15B11684   6.123   1.177  11.377  0.1517 -2.0012 -0.3182
  113OSM   H15C11685   6.103   1.168  11.198  1.4540  0.5932  0.1184
  113OSM    C1411686   5.982   1.431  11.363  0.3484  0.8453  0.3729
  113OSM   H14A11687   5.994   1.537  11.350 -0.4463  0.9024  0.0239
  113OSM   H14B11688   6.004   1.408  11.466  0.3198 -1.6543 -0.1136
  113OSM   H14C11689   5.879   1.401  11.374 -0.3856  3.2378  0.6096
  113OSM    C1311690   6.208   1.407  11.302  0.1344  0.0132  1.0387
  113OSM   H13A11691   6.283   1.357  11.242 -0.5535  1.5685 -1.2713
  113OSM   H13B11692   6.235   1.383  11.404  0.4120 -1.9115  0.5683
  113OSM   H13C11693   6.217   1.512  11.279 -1.4724  0.1348  0.7974
  113OSM    C1211694   6.024   1.393  11.120  0.5298  0.5814 -0.5368
  113OSM   H12A11695   6.035   1.499  11.102  0.4932  1.4115  3.3066
  113OSM   H12B11696   5.922   1.357  11.122  0.7735 -0.1022  0.7170
  113OSM    C1111697   6.112   1.325  11.009  0.0278 -0.4806  0.1435
  113OSM   H11A11698   6.217   1.362  11.019 -1.1391  3.1735  0.6798
  113OSM   H11B11699   6.089   1.367  10.909  1.4946 -3.3991 -1.5364
  113OSM      P11700   5.980   1.107  10.943  0.0897 -0.0579  0.4399
  113OSM    O1311701   5.964   0.989  11.023  0.0791  0.1402  0.0368
  113OSM    O1411702   5.865   1.199  10.946  0.3959 -0.2555 -0.2525
  113OSM    O1111703   6.008   1.073  10.795  0.4892 -0.4425  0.6063
  113OSM    O1211704   6.107   1.182  10.997  0.3731 -0.3728  0.8439
  113OSM    C1S11705   6.140   1.104  10.739 -0.4610 -0.3699  0.6323
  113OSM    H1S11706   6.219   1.030  10.766 -0.0380  0.0615  0.5929
  113OSM    H1T11707   6.186   1.201  10.770  2.7425 -1.7686  0.6388
  113OSM     NF11708   6.268   1.105  10.518 -0.1611  0.0080 -0.0373
  113OSM    HNF11709   6.305   1.194  10.495  1.1333  0.2547  2.6402
  113OSM    C2S11710   6.137   1.099  10.581  0.0084  0.1957 -0.1438
  113OSM    H2S11711   6.092   1.002  10.554  3.5907 -1.8544  0.5515
  113OSM    C3S11712   6.040   1.218  10.538  0.1333  0.5132  0.0848
  113OSM    H3S11713   6.085   1.316  10.563  1.2961  0.0055  0.0530
  113OSM     O311714   5.921   1.211  10.604  0.9969  0.2876 -0.0782
  113OSM    HO311715   5.940   1.153  10.678 -1.6033  1.7490  1.9288
  113OSM    C4S11716   6.012   1.203  10.389 -0.3209 -0.3010  0.4030
  113OSM    H4S11717   5.989   1.100  10.359  0.4200 -0.6872  1.1348
  113OSM    C5S11718   6.027   1.302  10.300 -0.4932  0.2570 -0.8740
  113OSM    H5S11719   6.069   1.398  10.332 -0.4241 -0.3160  0.8258
  113OSM    C6S11720   6.012   1.302  10.150 -0.1040  0.5270 -0.0745
  113OSM    H6S11721   6.111   1.325  10.105  1.1207 -1.0248  1.6965
  113OSM    H6T11722   5.950   1.388  10.117  0.7318  0.1330 -3.0448
  113OSM    C7S11723   5.951   1.179  10.076  0.2075  0.1944  0.0499
  113OSM    H7S11724   5.843   1.173  10.101 -0.0325 -0.8537 -1.1546
  113OSM    H7T11725   6.001   1.088  10.115 -1.6666  0.3224  3.0268
  113OSM    C8S11726   5.971   1.194   9.922  0.2772  0.7361 -0.4113
  113OSM    H8S11727   5.934   1.098   9.881 -1.4993  1.6535 -1.0430
  113OSM    H8T11728   6.080   1.191   9.900  0.2896  3.3216 -0.9687
  113OSM    C9S11729   5.886   1.307   9.860  0.3837  0.4955 -0.5647
  113OSM    H9S11730   5.941   1.400   9.883 -0.5098  0.4219  2.2005
  113OSM    H9T11731   5.785   1.305   9.907  1.1370 -3.2197  1.2116
  113OSM   C10S11732   5.865   1.289   9.709  0.7725  0.1116  0.4100
  113OSM   H10S11733   5.795   1.369   9.676 -0.6120 -1.4652 -0.6369
  113OSM   H10T11734   5.812   1.192   9.696 -0.8143  1.2095 -2.2997
  113OSM   C11S11735   5.985   1.285   9.625 -0.7610  0.4286  0.0336
  113OSM   H11S11736   6.047   1.197   9.653 -1.4702  0.0695  0.5229
  113OSM   H11T11737   6.048   1.373   9.649  0.4253  0.1048 -1.6631
  113OSM   C12S11738   5.961   1.278   9.471  0.1729 -0.2083  0.1383
  113OSM   H12S11739   5.905   1.369   9.441 -0.9223 -0.3129  1.6958
  113OSM   H12T11740   5.880   1.203   9.452  1.1346 -0.5321 -3.2624
  113OSM   C13S11741   6.076   1.237   9.385 -0.4770  0.0600 -0.5972
  113OSM   H13S11742   6.101   1.132   9.413 -4.2117 -1.0489 -0.9266
  113OSM   H13T11743   6.164   1.299   9.411 -0.8718  0.5702 -0.4622
  113OSM   C14S11744   6.056   1.249   9.229 -0.3946 -0.2861 -0.5744
  113OSM   H14S11745   6.150   1.245   9.170 -1.6340  0.7955 -2.7275
  113OSM   H14T11746   6.027   1.356   9.219 -1.0210 -0.2278  1.3555
  113OSM   C15S11747   5.946   1.157   9.164  0.7532  0.3553  0.2430
  113OSM   H15S11748   5.848   1.175   9.213 -0.0758 -1.4216 -0.7088
  113OSM   H15T11749   5.982   1.052   9.167  1.3804  0.2051 -4.6575
  113OSM   C16S11750   5.916   1.200   9.026 -0.0917  0.1956 -0.5051
  113OSM   H16S11751   6.005   1.207   8.960 -1.5047 -0.0804 -2.5401
  113OSM   H16T11752   5.873   1.302   9.019  0.3483  0.6372  2.1870
  113OSM   C17S11753   5.820   1.094   8.963 -0.6935  0.0026  0.1042
  113OSM   H17S11754   5.735   1.081   9.033  1.7093 -1.1941  3.0190
  113OSM   H17T11755   5.882   1.002   8.962  1.0979  1.0081  3.2273
  113OSM   C18S11756   5.765   1.130   8.824  0.5317  0.0946  0.9714
  113OSM   H18S11757   5.700   1.058   8.770 -6.1082  5.2769  0.6929
  113OSM   H18T11758   5.850   1.148   8.755  0.5464  1.1528  1.2475
  113OSM   H18U11759   5.725   1.234   8.821  2.2790  0.8049  1.1694
  113OSM    C1F11760   6.353   1.002  10.518  0.5736  0.1313  0.6808
  113OSM     OF11761   6.315   0.890  10.545  0.4984  0.3400 -0.2954
  113OSM    C2F11762   6.493   1.020  10.471  0.6555 -0.3328  0.0929
  113OSM    H2F11763   6.526   0.918  10.442 -0.1958  0.1683 -3.0242
  113OSM    H2G11764   6.543   1.059  10.562  1.4426 -3.0236  0.9092
  113OSM    C3F11765   6.520   1.119  10.354  0.2893 -0.3802 -0.8496
  113OSM    H3F11766   6.620   1.087  10.317  0.4183 -2.2257  0.9246
  113OSM    H3G11767   6.524   1.224  10.387  2.7350 -0.7156  0.1037
  113OSM    C4F11768   6.425   1.108  10.232  0.0837 -0.5151  0.5578
  113OSM    H4F11769   6.317   1.100  10.257  0.1375 -1.3255  0.5618
  113OSM    H4G11770   6.455   1.027  10.163 -0.6102  0.6181 -1.1587
  113OSM    C5F11771   6.457   1.230  10.137  0.3545 -0.1460 -0.1761
  113OSM    H5F11772   6.568   1.223  10.128  0.4758 -0.3388  1.2117
  113OSM    H5G11773   6.428   1.329  10.179  1.7466  1.2093 -2.2004
  113OSM    C6F11774   6.387   1.213   9.994  0.3542 -0.6919  0.1029
  113OSM    H6F11775   6.278   1.195  10.007 -0.0533  0.3870 -1.5192
  113OSM    H6G11776   6.425   1.128   9.933 -4.3061 -1.6353 -1.9583
  113OSM    C7F11777   6.407   1.340   9.907  0.5813 -0.5598 -0.8413
  113OSM    H7F11778   6.509   1.332   9.864  0.2827  0.6282 -1.8283
  113OSM    H7G11779   6.416   1.420   9.983  0.6780 -3.2815  2.2093
  113OSM    C8F11780   6.303   1.351   9.799 -0.5575 -0.6323  0.4206
  113OSM    H8F11781   6.208   1.335   9.853  0.2888 -0.9780  1.8785
  113OSM    H8G11782   6.322   1.266   9.730  2.0520  0.5149 -0.4115
  113OSM    C9F11783   6.311   1.489   9.726  0.2720  0.8209 -0.3693
  113OSM    H9F11784   6.284   1.577   9.785 -1.9424 -1.3038  2.0542
  113OSM   C10F11785   6.372   1.519   9.615 -0.4691 -0.3377  0.5683
  113OSM   H10F11786   6.367   1.620   9.571  1.8222  0.0733  1.1290
  113OSM   C11F11787   6.438   1.421   9.517 -0.0907 -0.3972  0.4144
  113OSM   H11F11788   6.374   1.331   9.505 -2.8825  1.4582  0.2151
  113OSM   H11G11789   6.534   1.387   9.562  1.1612  2.0256 -0.2734
  113OSM   C12F11790   6.459   1.483   9.377 -0.1200 -0.3414 -0.3345
  113OSM   H12F11791   6.531   1.565   9.395 -0.8907  0.3996 -0.5687
  113OSM   H12G11792   6.363   1.531   9.348  1.5329  2.1002 -2.2211
  113OSM   C13F11793   6.515   1.379   9.278 -0.4456 -0.3913  0.5910
  113OSM   H13F11794   6.451   1.288   9.286 -1.5536  0.3537  0.5162
  113OSM   H13G11795   6.615   1.354   9.318  0.1104  1.2685  0.2844
  113OSM   C14F11796   6.506   1.437   9.130  0.4681  0.3077 -0.1411
  113OSM   H14F11797   6.403   1.478   9.119 -0.4125 -1.7871 -0.2636
  113OSM   H14G11798   6.516   1.358   9.053  2.3114  0.6516 -0.2804
  113OSM   C15F11799   6.615   1.542   9.117  0.0295 -0.2700 -0.5327
  113OSM   H15F11800   6.713   1.492   9.129  0.2096  0.2911  0.3987
  113OSM   H15G11801   6.593   1.622   9.192 -2.3046 -0.0149 -1.3853
  113OSM   C16F11802   6.622   1.623   8.986 -0.2449 -0.3238 -0.1317
  113OSM   H16F11803   6.527   1.679   8.975  0.6724  1.3573  0.2847
  113OSM   H16G11804   6.622   1.559   8.895 -1.3709 -1.1194  0.4077
  113OSM   C17F11805   6.746   1.712   8.987  0.6363  0.2882 -0.1382
  113OSM   H17F11806   6.839   1.652   8.988  0.4259 -0.0523 -0.6420
  113OSM   H17G11807   6.737   1.778   9.076 -1.8019 -0.8698  0.5551
  113OSM   C18F11808   6.760   1.814   8.872  0.4802  0.0005 -0.7185
  113OSM   H18F11809   6.857   1.867   8.873  0.4053  0.4813  4.2491
  113OSM   H18G11810   6.672   1.881   8.875 -1.8977 -2.9236  0.0536
  113OSM   H18H11811   6.740   1.750   8.783 -1.2135 -1.2853  0.5300
  114OSM      N11812   5.423   1.705  11.359 -0.5133  0.5132 -0.7155
  114OSM    C1511813   5.462   1.803  11.466  0.4528 -0.0448 -0.2600
  114OSM   H15A11814   5.387   1.799  11.543  0.9796 -0.8959  0.2262
  114OSM   H15B11815   5.467   1.906  11.434  1.2081  0.3611  1.0845
  114OSM   H15C11816   5.556   1.775  11.511  1.0051 -0.4321 -1.6042
  114OSM    C1411817   5.395   1.571  11.410 -0.3520  0.4725 -0.7346
  114OSM   H14A11818   5.464   1.550  11.490  0.4352  0.3940 -1.4199
  114OSM   H14B11819   5.399   1.486  11.343  0.6025 -0.6980  0.7406
  114OSM   H14C11820   5.296   1.570  11.454 -0.7171  0.1869 -1.5328
  114OSM    C1311821   5.297   1.756  11.297 -0.5441  0.0526 -0.0883
  114OSM   H13A11822   5.213   1.750  11.364 -0.5977  0.2649 -0.1371
  114OSM   H13B11823   5.266   1.680  11.227 -3.1720 -0.9503  2.0058
  114OSM   H13C11824   5.317   1.846  11.241  0.0924 -0.1090 -0.1352
  114OSM    C1211825   5.542   1.695  11.256 -0.0604  0.1523  0.1360
  114OSM   H12A11826   5.513   1.620  11.184 -2.6109  1.7003 -0.6195
  114OSM   H12B11827   5.627   1.653  11.307 -0.6904 -1.6426 -0.2197
  114OSM    C1111828   5.572   1.817  11.177  0.0300  0.5915 -0.4066
  114OSM   H11A11829   5.480   1.870  11.143 -0.4433  1.5392  2.1227
  114OSM   H11B11830   5.622   1.805  11.078 -0.3914  0.4733 -0.6087
  114OSM      P11831   5.678   2.049  11.232 -0.0854  0.4138  0.0707
  114OSM    O1311832   5.551   2.116  11.265  0.0013 -0.4909 -0.7785
  114OSM    O1411833   5.798   2.101  11.303 -0.5008 -0.2216  0.4833
  114OSM    O1111834   5.693   2.031  11.070  0.4453 -0.5071 -0.2869
  114OSM    O1211835   5.661   1.889  11.263  0.0463 -0.2350  0.3850
  114OSM    C1S11836   5.817   2.007  11.009  0.0306  0.3700 -0.1413
  114OSM    H1S11837   5.884   1.954  11.079 -1.7926 -1.2277  0.4868
  114OSM    H1T11838   5.866   2.102  10.978 -0.4204  0.0054 -2.0828
  114OSM     NF11839   5.936   1.868  10.857  0.0086 -0.3622  0.0177
  114OSM    HNF11840   5.975   1.933  10.793  1.2563 -1.9751 -0.9614
  114OSM    C2S11841   5.802   1.907  10.889 -0.3201  0.3866 -0.0984
  114OSM    H2S11842   5.753   1.811  10.917 -1.5167  1.2089  0.7060
  114OSM    C3S11843   5.723   1.969  10.770 -0.2536 -0.2985 -0.0474
  114OSM    H3S11844   5.782   2.057  10.736  0.4050 -1.2131 -1.3630
  114OSM     O311845   5.594   2.013  10.806  0.5859  0.2839 -0.2864
  114OSM    HO311846   5.599   2.032  10.900 -0.5921  0.2609 -0.2051
  114OSM    C4S11847   5.727   1.874  10.656 -0.2315  0.5627  0.1844
  114OSM    H4S11848   5.820   1.892  10.600  0.2146 -0.7591  0.4806
  114OSM    C5S11849   5.644   1.771  10.621  0.4419  0.4080  0.0428
  114OSM    H5S11850   5.547   1.762  10.672  0.2570  0.6953 -0.2507
  114OSM    C6S11851   5.661   1.686  10.503  0.0821 -0.4216  0.4054
  114OSM    H6S11852   5.560   1.668  10.460  1.4856 -3.0313 -2.1745
  114OSM    H6T11853   5.693   1.585  10.536 -3.9808 -0.7782  4.2323
  114OSM    C7S11854   5.741   1.739  10.381 -0.5309  0.3942  0.1143
  114OSM    H7S11855   5.849   1.739  10.404 -0.7201 -1.8089  1.2809
  114OSM    H7T11856   5.697   1.841  10.366 -0.3915  0.7667  1.9923
  114OSM    C8S11857   5.721   1.653  10.251  0.6693 -0.3116  0.9624
  114OSM    H8S11858   5.611   1.635  10.252  0.2250  2.0249  2.7371
  114OSM    H8T11859   5.763   1.551  10.258  2.4095  0.3628  0.6906
  114OSM    C9S11860   5.753   1.732  10.128  0.2110  0.3864 -0.4951
  114OSM    H9S11861   5.854   1.777  10.136 -0.2985  1.3071  1.4375
  114OSM    H9T11862   5.687   1.821  10.121 -0.3046  0.1871  1.2221
  114OSM   C10S11863   5.754   1.653   9.995  0.8963 -0.0059 -0.1595
  114OSM   H10S11864   5.662   1.600   9.961 -0.8349  2.5957  0.1115
  114OSM   H10T11865   5.823   1.569  10.015 -0.2417 -0.5127  1.8838
  114OSM   C11S11866   5.794   1.744   9.878  0.1566  0.0005  0.4237
  114OSM   H11S11867   5.886   1.800   9.908 -0.1602  0.5607  0.3687
  114OSM   H11T11868   5.714   1.817   9.855  1.3019  0.7520 -1.3796
  114OSM   C12S11869   5.844   1.662   9.758  0.0703 -0.3337 -0.0764
  114OSM   H12S11870   5.765   1.589   9.729 -1.1123  0.8413  0.1300
  114OSM   H12T11871   5.929   1.593   9.782 -0.0323  0.1271  1.7809
  114OSM   C13S11872   5.886   1.747   9.637 -0.2341  0.3474  0.2675
  114OSM   H13S11873   5.968   1.815   9.670 -0.4404  0.8569 -0.2463
  114OSM   H13T11874   5.797   1.804   9.603 -0.4464 -0.8665 -1.2971
  114OSM   C14S11875   5.944   1.661   9.520 -0.1701  0.4657 -0.0650
  114OSM   H14S11876   5.877   1.577   9.492 -1.3276  1.6980 -1.1510
  114OSM   H14T11877   6.043   1.625   9.555  0.3806  1.6666 -0.3249
  114OSM   C15S11878   5.959   1.738   9.389 -0.1465  0.2542  0.4189
  114OSM   H15S11879   6.022   1.826   9.415 -0.0313  0.4460 -0.4749
  114OSM   H15T11880   5.859   1.777   9.360 -0.1881  0.0413  0.2758
  114OSM   C16S11881   6.035   1.655   9.277 -0.1813 -0.0554 -0.6278
  114OSM   H16S11882   5.970   1.575   9.234  1.3737 -1.3492 -0.6794
  114OSM   H16T11883   6.127   1.602   9.311  0.8938  0.1157 -3.0407
  114OSM   C17S11884   6.061   1.744   9.159 -0.1658 -0.3102  1.0521
  114OSM   H17S11885   6.097   1.844   9.189  0.3527 -0.1297 -0.0762
  114OSM   H17T11886   5.956   1.763   9.127 -0.2802 -1.0530  0.9661
  114OSM   C18S11887   6.149   1.688   9.051  0.0306  1.0192  0.2767
  114OSM   H18S11888   6.149   1.748   8.957  0.6550 -0.7345 -0.8916
  114OSM   H18T11889   6.115   1.586   9.024 -0.3698  1.2883 -0.2577
  114OSM   H18U11890   6.257   1.679   9.077  0.5632 -1.4167 -2.3065
  114OSM    C1F11891   6.014   1.787  10.928  0.4285  1.0695 -0.0489
  114OSM     OF11892   5.967   1.719  11.019  0.8297 -0.0368  0.4292
  114OSM    C2F11893   6.161   1.782  10.894  0.1110 -0.0925 -0.0832
  114OSM    H2F11894   6.212   1.822  10.984 -1.0310  1.4179 -0.0737
  114OSM    H2G11895   6.169   1.854  10.810 -0.1433 -1.3052 -1.1749
  114OSM    C3F11896   6.193   1.636  10.843 -0.3732 -0.7128  0.0863
  114OSM    H3F11897   6.213   1.560  10.922  3.1921  0.7141  0.7422
  114OSM    H3G11898   6.293   1.640  10.794 -0.8213 -1.1319 -0.9071
  114OSM    C4F11899   6.091   1.562  10.757 -0.2412  0.8313  0.1386
  114OSM    H4F11900   5.993   1.553  10.810  0.7150 -0.4824  1.7686
  114OSM    H4G11901   6.119   1.457  10.736  0.7057  1.5881 -2.7886
  114OSM    C5F11902   6.044   1.608  10.617 -0.2629 -0.4440  0.0101
  114OSM    H5F11903   5.971   1.691  10.624 -1.0598 -1.0400 -0.9380
  114OSM    H5G11904   5.988   1.517  10.588  0.2690 -0.6205 -0.4731
  114OSM    C6F11905   6.157   1.639  10.516  0.0772 -0.2522 -0.5539
  114OSM    H6F11906   6.142   1.561  10.439 -2.1351 -0.1429 -0.3201
  114OSM    H6G11907   6.249   1.621  10.576 -1.6130 -0.7180  2.0991
  114OSM    C7F11908   6.150   1.768  10.435  0.4507 -0.0437 -0.2541
  114OSM    H7F11909   6.148   1.861  10.496 -1.6930 -0.5590  0.5553
  114OSM    H7G11910   6.066   1.770  10.362  1.5762 -1.6410 -1.6836
  114OSM    C8F11911   6.270   1.793  10.336 -0.2751 -0.3735  0.1538
  114OSM    H8F11912   6.367   1.814  10.386  0.7456 -1.2335 -1.3703
  114OSM    H8G11913   6.237   1.885  10.283  0.9831 -0.8937 -1.6227
  114OSM    C9F11914   6.288   1.679  10.237 -0.2341  0.3615  0.1518
  114OSM    H9F11915   6.326   1.585  10.280  1.4029  0.4543 -0.9816
  114OSM   C10F11916   6.271   1.685  10.104 -0.3177  0.6671 -0.9609
  114OSM   H10F11917   6.295   1.594  10.048 -0.8775  0.8639 -1.5250
  114OSM   C11F11918   6.227   1.800  10.016  0.2026 -0.4649  0.0053
  114OSM   H11F11919   6.202   1.884  10.084 -0.3760 -1.6238  1.2667
  114OSM   H11G11920   6.135   1.757   9.969  0.0643  0.9711 -1.1236
  114OSM   C12F11921   6.326   1.841   9.903  0.0377 -0.4509 -0.5185
  114OSM   H12F11922   6.391   1.753   9.882  0.0953 -0.2850 -1.0292
  114OSM   H12G11923   6.391   1.928   9.930 -0.1230 -0.4768 -0.0322
  114OSM   C13F11924   6.258   1.868   9.766 -0.4405  0.6357 -0.3277
  114OSM   H13F11925   6.179   1.944   9.786 -0.9584 -0.5587  2.6998
  114OSM   H13G11926   6.211   1.777   9.724  0.4475  0.7281 -1.5766
  114OSM   C14F11927   6.351   1.927   9.663  0.2343  0.5271  0.3806
  114OSM   H14F11928   6.446   1.869   9.664  1.9229  3.1405  0.2720
  114OSM   H14G11929   6.382   2.030   9.690 -0.3035  0.6012  0.7318
  114OSM   C15F11930   6.291   1.949   9.524 -0.5995 -0.0207 -0.0308
  114OSM   H15F11931   6.210   2.024   9.540 -0.8430 -0.0568 -1.0496
  114OSM   H15G11932   6.250   1.852   9.489  1.9768 -1.3172  0.3720
  114OSM   C16F11933   6.387   2.015   9.426 -0.2558  0.3681 -0.3959
  114OSM   H16F11934   6.475   1.948   9.412  1.1404  1.9945  0.2369
  114OSM   H16G11935   6.421   2.114   9.464 -1.2571  0.0518  1.4461
  114OSM   C17F11936   6.325   2.026   9.291 -0.4155 -0.1032  0.4368
  114OSM   H17F11937   6.242   2.100   9.296  1.1702  1.8929 -1.3121
  114OSM   H17G11938   6.288   1.927   9.257  0.6424 -0.5083  0.4292
  114OSM   C18F11939   6.435   2.066   9.182  0.6468 -0.6251 -0.2256
  114OSM   H18F11940   6.391   2.105   9.087  0.2704 -0.8771 -0.1582
  114OSM   H18G11941   6.489   1.971   9.163 -1.7138 -1.7883 -1.5963
  114OSM   H18H11942   6.501   2.145   9.222  1.5879 -0.7576 -1.4466
  115OSM      N11943   1.431   0.112   6.082 -0.1071  0.3914 -0.4096
  115OSM    C1511944   1.289   0.093   6.034  0.1009  0.1588 -0.3140
  115OSM   H15A11945   1.222   0.077   6.117 -3.8081 -1.8596 -3.5167
  115OSM   H15B11946   1.282   0.006   5.969 -2.3906  1.4023 -1.8503
  115OSM   H15C11947   1.258   0.169   5.965  0.0592 -0.8563 -1.4584
  115OSM    C1411948   1.441   0.256   6.129  0.1263 -0.3425 -0.4155
  115OSM   H14A11949   1.393   0.272   6.224  0.2968 -0.5313 -0.2979
  115OSM   H14B11950   1.395   0.324   6.058  1.3821 -0.5721 -1.4846
  115OSM   H14C11951   1.545   0.279   6.144 -0.2975  2.8442 -1.4757
  115OSM    C1311952   1.472   0.017   6.194  0.4355 -0.4957 -0.1419
  115OSM   H13A11953   1.565   0.041   6.243 -1.1168  1.6612  1.9298
  115OSM   H13B11954   1.447  -0.083   6.160 -0.7851 -0.7543  1.4208
  115OSM   H13C11955   1.399   0.034   6.272  1.2966 -0.7650  0.7284
  115OSM    C1211956   1.532   0.099   5.968 -0.1618 -0.3223 -0.0030
  115OSM   H12A11957   1.632   0.093   6.008  0.1856  1.0896 -0.6203
  115OSM   H12B11958   1.529   0.184   5.902 -1.6551  0.0958  0.5615
  115OSM    C1111959   1.527  -0.033   5.884  0.5830  0.0544 -0.3734
  115OSM   H11A11960   1.597  -0.020   5.799 -0.2795  1.9057 -0.8545
  115OSM   H11B11961   1.429  -0.045   5.834 -0.8549  0.2572  2.1947
  115OSM      P11962   1.673  -0.252   5.947  0.1538 -0.6016 -0.0386
  115OSM    O1311963   1.619  -0.359   5.855 -0.1737 -0.4818 -0.1517
  115OSM    O1411964   1.790  -0.183   5.901 -0.2023 -0.0022  0.7364
  115OSM    O1111965   1.696  -0.310   6.084 -0.0379 -0.2642  0.3347
  115OSM    O1211966   1.559  -0.147   5.969 -0.1907 -0.4679 -0.0849
  115OSM    C1S11967   1.739  -0.235   6.199  0.0905  0.3240  0.5380
  115OSM    H1S11968   1.671  -0.152   6.228  1.8024  0.1685  5.9930
  115OSM    H1T11969   1.845  -0.200   6.194 -0.4693  2.1939  0.8889
  115OSM     NF11970   1.701  -0.248   6.448 -0.1369  0.1256 -0.1272
  115OSM    HNF11971   1.773  -0.187   6.481  0.3696 -1.7035  2.4176
  115OSM    C2S11972   1.725  -0.333   6.324 -0.1777  0.0130 -0.0345
  115OSM    H2S11973   1.641  -0.403   6.310  0.2106 -0.3214 -0.7585
  115OSM    C3S11974   1.854  -0.414   6.333  0.5023  1.3286 -0.4230
  115OSM    H3S11975   1.946  -0.359   6.361  2.1264 -1.5524  0.3427
  115OSM     O311976   1.892  -0.484   6.216 -0.1341  0.4505 -0.0449
  115OSM    HO311977   1.830  -0.457   6.148  0.2336 -1.0406 -1.0190
  115OSM    C4S11978   1.829  -0.518   6.439 -0.5680  1.2024  0.0009
  115OSM    H4S11979   1.725  -0.554   6.448 -1.0935  2.5811 -0.3870
  115OSM    C5S11980   1.915  -0.554   6.536 -0.2113  0.0347  0.1147
  115OSM    H5S11981   2.005  -0.495   6.556 -0.1902 -0.1074  0.4482
  115OSM    C6S11982   1.884  -0.661   6.641  0.2903 -0.1806  0.2770
  115OSM    H6S11983   1.978  -0.719   6.655  0.7075 -0.0956 -1.8870
  115OSM    H6T11984   1.806  -0.735   6.611 -0.6663  0.7085  0.5073
  115OSM    C7S11985   1.832  -0.597   6.768 -0.0455  0.1150 -0.0104
  115OSM    H7S11986   1.793  -0.669   6.843 -1.3354  0.3921 -0.3933
  115OSM    H7T11987   1.749  -0.529   6.741  0.8003  0.4964 -1.7943
  115OSM    C8S11988   1.934  -0.512   6.843 -0.0303 -0.4139 -0.5319
  115OSM    H8S11989   1.975  -0.429   6.783 -2.4117  0.6764 -0.7484
  115OSM    H8T11990   2.009  -0.575   6.896  0.4875  1.7642  1.4698
  115OSM    C9S11991   1.852  -0.437   6.959 -0.2204  0.1450 -0.0478
  115OSM    H9S11992   1.760  -0.382   6.927 -1.5335 -0.3585  2.5534
  115OSM    H9T11993   1.916  -0.358   7.005  0.6966  0.1172 -1.2336
  115OSM   C10S11994   1.810  -0.526   7.075  0.0515  0.6140  0.0061
  115OSM   H10S11995   1.876  -0.615   7.084  0.3295  0.9795  2.1383
  115OSM   H10T11996   1.721  -0.575   7.031 -0.9334  1.0863  1.3964
  115OSM   C11S11997   1.791  -0.446   7.202 -0.3828  0.5180 -0.1333
  115OSM   H11S11998   1.725  -0.511   7.263  0.0356 -0.3305 -0.5774
  115OSM   H11T11999   1.741  -0.351   7.173  0.9745  1.0303 -0.8911
  115OSM   C12S12000   1.916  -0.397   7.283 -0.3108  0.9878 -0.2729
  115OSM   H12S12001   1.964  -0.313   7.228 -2.7194  1.8435 -1.1952
  115OSM   H12T12002   1.987  -0.483   7.282  0.3998  1.5630 -0.0307
  115OSM   C13S12003   1.871  -0.357   7.432  0.3001 -0.4684 -0.1527
  115OSM   H13S12004   1.777  -0.299   7.421  1.5026  1.4885 -0.5960
  115OSM   H13T12005   1.958  -0.293   7.459  0.2019 -0.8107  0.9958
  115OSM   C14S12006   1.865  -0.463   7.531 -0.3480 -0.1412  0.3230
  115OSM   H14S12007   1.957  -0.526   7.541  0.0566  0.4003  0.0574
  115OSM   H14T12008   1.792  -0.541   7.499 -0.0217 -0.5018  0.4348
  115OSM   C15S12009   1.823  -0.415   7.669  0.3935 -0.4135  0.4456
  115OSM   H15S12010   1.790  -0.492   7.742 -2.0018  0.3956  0.3054
  115OSM   H15T12011   1.729  -0.356   7.664  1.5038  1.5210  1.2069
  115OSM   C16S12012   1.937  -0.340   7.741  0.2039 -0.5106 -0.2739
  115OSM   H16S12013   1.952  -0.250   7.678 -0.8321 -1.8136 -2.4690
  115OSM   H16T12014   2.026  -0.406   7.733  0.3349 -0.2434 -1.0890
  115OSM   C17S12015   1.920  -0.313   7.894 -0.2855  0.5284 -0.2814
  115OSM   H17S12016   1.820  -0.273   7.917 -0.0082  0.8013  0.4647
  115OSM   H17T12017   1.995  -0.234   7.917 -1.1978  1.5186 -0.6389
  115OSM   C18S12018   1.940  -0.436   7.984  0.2381 -0.3851 -0.3784
  115OSM   H18S12019   1.902  -0.409   8.085  0.7189  1.9824 -0.7712
  115OSM   H18T12020   2.049  -0.455   7.994  0.3633  0.5428  0.0770
  115OSM   H18U12021   1.899  -0.530   7.942  1.5602 -1.1215 -0.0574
  115OSM    C1F12022   1.579  -0.221   6.494  0.0199  0.6465 -0.0708
  115OSM     OF12023   1.477  -0.242   6.428 -0.2085  0.0797  0.5490
  115OSM    C2F12024   1.570  -0.163   6.630 -0.3428  0.0606  0.1616
  115OSM    H2F12025   1.588  -0.054   6.617  0.9684 -0.0401  0.9868
  115OSM    H2G12026   1.654  -0.195   6.694 -1.3256  0.6412  1.8312
  115OSM    C3F12027   1.426  -0.184   6.700 -0.7912  0.4679 -0.5206
  115OSM    H3F12028   1.398  -0.290   6.681  1.5747 -0.0733 -1.3758
  115OSM    H3G12029   1.352  -0.117   6.652 -0.7067 -0.2570 -1.7022
  115OSM    C4F12030   1.435  -0.164   6.857 -0.3322 -0.1292 -0.3278
  115OSM    H4F12031   1.353  -0.090   6.868 -0.7517 -0.7863  1.2146
  115OSM    H4G12032   1.529  -0.113   6.889  1.7679 -2.0660 -2.8800
  115OSM    C5F12033   1.414  -0.292   6.941 -0.3361 -0.3713 -0.0061
  115OSM    H5F12034   1.493  -0.364   6.910 -0.2362  0.6278 -2.2722
  115OSM    H5G12035   1.315  -0.330   6.906  0.5021  0.2051 -3.3771
  115OSM    C6F12036   1.415  -0.258   7.086 -0.4856  0.2287  0.4883
  115OSM    H6F12037   1.343  -0.178   7.113  0.0853  0.5589  1.0410
  115OSM    H6G12038   1.516  -0.220   7.111 -0.4898 -0.2458  1.2613
  115OSM    C7F12039   1.392  -0.387   7.170 -0.5716  0.1257 -0.0359
  115OSM    H7F12040   1.463  -0.465   7.134 -0.5553 -0.1199  0.5149
  115OSM    H7G12041   1.285  -0.418   7.165 -0.7367  0.8343 -1.2238
  115OSM    C8F12042   1.432  -0.363   7.312  0.1708 -0.2223  0.0363
  115OSM    H8F12043   1.531  -0.313   7.308 -0.5534  1.1530 -2.2133
  115OSM    H8G12044   1.439  -0.466   7.352 -0.1283 -0.3101 -0.1355
  115OSM    C9F12045   1.329  -0.289   7.392  0.1629 -0.3013  0.0786
  115OSM    H9F12046   1.315  -0.185   7.361  1.3634  0.3522  1.5852
  115OSM   C10F12047   1.262  -0.332   7.500 -0.1659  1.0747  1.1206
  115OSM   H10F12048   1.190  -0.263   7.546  1.1385  2.7632  0.7453
  115OSM   C11F12049   1.272  -0.472   7.547 -0.1479  0.4969  0.2792
  115OSM   H11F12050   1.376  -0.512   7.539 -0.0033  0.8003  0.6211
  115OSM   H11G12051   1.210  -0.537   7.482 -1.2030  0.6723  1.0899
  115OSM   C12F12052   1.223  -0.493   7.691  0.5772  0.1364  0.1634
  115OSM   H12F12053   1.214  -0.601   7.717  1.3249  0.2237  0.8343
  115OSM   H12G12054   1.122  -0.448   7.702 -0.0665 -1.6196  2.1474
  115OSM   C13F12055   1.311  -0.419   7.787  0.3208  0.1062 -0.2397
  115OSM   H13F12056   1.327  -0.311   7.762  0.4147  0.9100  2.8646
  115OSM   H13G12057   1.414  -0.461   7.780  0.7894  1.3342 -1.2740
  115OSM   C14F12058   1.257  -0.421   7.932 -0.1295  0.0806 -0.4938
  115OSM   H14F12059   1.316  -0.359   8.004  0.3424  1.0005 -1.6476
  115OSM   H14G12060   1.267  -0.525   7.971  4.1922 -0.6975 -3.0315
  115OSM   C15F12061   1.117  -0.360   7.948 -0.2695 -0.4648 -0.2072
  115OSM   H15F12062   1.046  -0.413   7.882  1.0189 -0.1853 -1.8775
  115OSM   H15G12063   1.129  -0.257   7.910  0.1818 -0.2833  0.4095
  115OSM   C16F12064   1.068  -0.351   8.097  0.5156 -0.1763 -0.0050
  115OSM   H16F12065   1.060  -0.455   8.135  2.3563  0.1187  1.3463
  115OSM   H16G12066   0.967  -0.307   8.107  0.6637  0.1129  0.2432
  115OSM   C17F12067   1.152  -0.271   8.195 -0.4344 -0.2740 -0.7822
  115OSM   H17F12068   1.174  -0.168   8.157  0.3134 -0.9461 -2.2770
  115OSM   H17G12069   1.252  -0.318   8.198 -0.1107  0.4274 -0.2620
  115OSM   C18F12070   1.090  -0.243   8.330  0.0228  0.1215  0.0412
  115OSM   H18F12071   1.162  -0.182   8.388 -0.4517  0.4400  0.3029
  115OSM   H18G12072   1.077  -0.338   8.386  3.2424 -0.7268 -0.4747
  115OSM   H18H12073   1.004  -0.174   8.318  0.5626  1.2197  1.9965
  116OSM      N12074   6.483   4.308   6.110  0.2223 -0.1806 -0.1209
  116OSM    C1512075   6.612   4.347   6.038  0.2506  0.7933 -0.0850
  116OSM   H15A12076   6.639   4.261   5.979 -0.2724  0.3755  0.2794
  116OSM   H15B12077   6.695   4.354   6.106  1.3338 -1.9540 -0.9970
  116OSM   H15C12078   6.611   4.435   5.975 -1.9676  0.9538  0.1000
  116OSM    C1412079   6.428   4.421   6.190  0.2975 -0.1736 -0.5615
  116OSM   H14A12080   6.381   4.496   6.129 -1.5516 -1.4575 -0.7952
  116OSM   H14B12081   6.509   4.474   6.239  1.5806  0.1601 -2.9220
  116OSM   H14C12082   6.348   4.380   6.251  0.5782 -0.8736 -0.6496
  116OSM    C1312083   6.392   4.269   5.998 -0.2387  0.1750  0.0735
  116OSM   H13A12084   6.420   4.182   5.940 -2.3468 -0.1695 -0.5102
  116OSM   H13B12085   6.403   4.351   5.928 -1.2467  0.5507  0.3290
  116OSM   H13C12086   6.288   4.256   6.024  0.2066 -0.2365  1.7565
  116OSM    C1212087   6.491   4.186   6.201 -0.1571 -0.0205  0.6090
  116OSM   H12A12088   6.522   4.104   6.138 -1.1705 -1.5753  2.0554
  116OSM   H12B12089   6.389   4.160   6.225 -0.5423 -0.6770 -1.5187
  116OSM    C1112090   6.586   4.187   6.324  0.3778  0.2312 -0.8719
  116OSM   H11A12091   6.561   4.111   6.401 -0.6080  0.8094 -0.5961
  116OSM   H11B12092   6.579   4.282   6.382  0.1779  0.2835 -0.9800
  116OSM      P12093   6.835   4.243   6.342 -0.3551  0.4020 -0.0860
  116OSM    O1312094   6.963   4.204   6.276 -0.0671 -0.6645 -0.4334
  116OSM    O1412095   6.788   4.383   6.330 -0.0918 -0.2902  0.1058
  116OSM    O1112096   6.847   4.197   6.489  0.9086  0.1437 -0.3564
  116OSM    O1212097   6.716   4.155   6.274 -0.2952  0.0108 -0.6887
  116OSM    C1S12098   6.866   4.289   6.597  0.1986 -0.0595 -0.6054
  116OSM    H1S12099   6.833   4.392   6.575  0.2677  0.0463 -0.2288
  116OSM    H1T12100   6.973   4.305   6.624  0.7444 -0.8601 -2.1774
  116OSM     NF12101   6.798   4.359   6.830 -0.8232  0.0450  0.6449
  116OSM    HNF12102   6.861   4.343   6.906 -1.0683  1.0415  1.0703
  116OSM    C2S12103   6.781   4.253   6.726  0.2483 -0.2043 -0.2350
  116OSM    H2S12104   6.675   4.257   6.695 -0.1250  1.4231  1.1028
  116OSM    C3S12105   6.820   4.113   6.770  0.2666 -0.0073 -0.1932
  116OSM    H3S12106   6.927   4.102   6.798  0.1926  1.8347  0.9781
  116OSM     O312107   6.799   4.016   6.667 -0.4424  0.4427 -0.0468
  116OSM    HO312108   6.807   4.068   6.587 -0.8326 -1.1685 -1.1802
  116OSM    C4S12109   6.740   4.091   6.902 -1.1055  0.7882  0.6450
  116OSM    H4S12110   6.819   4.085   6.977  2.5582  1.7028 -2.7754
  116OSM    C5S12111   6.606   4.086   6.926 -0.3994  0.0766 -0.4541
  116OSM    H5S12112   6.538   4.103   6.842  0.2033  0.9024 -0.7898
  116OSM    C6S12113   6.549   4.066   7.065  0.0658  0.0130 -0.2561
  116OSM    H6S12114   6.516   3.960   7.075 -0.0381  0.0924  0.2318
  116OSM    H6T12115   6.451   4.118   7.072 -0.3741 -0.7784 -0.3116
  116OSM    C7S12116   6.633   4.107   7.184  0.0778  0.1622  0.3787
  116OSM    H7S12117   6.671   4.211   7.182  1.6837 -0.4047 -1.2891
  116OSM    H7T12118   6.726   4.048   7.196  1.0473  1.4158 -0.5975
  116OSM    C8S12119   6.570   4.094   7.317  0.3359  0.1950 -1.1670
  116OSM    H8S12120   6.480   4.030   7.306  1.3913 -1.4139 -0.7798
  116OSM    H8T12121   6.536   4.194   7.351  0.8646 -0.4717  1.6432
  116OSM    C9S12122   6.664   4.033   7.420  0.9349  0.0504  0.5361
  116OSM    H9S12123   6.766   4.078   7.423  1.6588 -1.0604 -2.9653
  116OSM    H9T12124   6.672   3.928   7.383  0.2182  1.3298 -3.8262
  116OSM   C10S12125   6.598   4.035   7.560 -0.7231 -0.5468  0.3722
  116OSM   H10S12126   6.490   4.060   7.554 -0.6984 -0.7957 -1.7428
  116OSM   H10T12127   6.641   4.121   7.617  0.4547  0.3271 -1.7267
  116OSM   C11S12128   6.627   3.907   7.643  0.0786 -0.4518 -0.3793
  116OSM   H11S12129   6.738   3.904   7.657  0.4306  1.8479 -2.0641
  116OSM   H11T12130   6.586   3.821   7.586 -1.8823  0.1125  0.1273
  116OSM   C12S12131   6.553   3.896   7.775  0.0341  0.2788  0.2827
  116OSM   H12S12132   6.561   3.791   7.808  3.0144  0.4275  0.2436
  116OSM   H12T12133   6.443   3.906   7.761  0.2222  0.2459 -1.4353
  116OSM   C13S12134   6.590   4.009   7.874  0.1119  0.2300 -0.2826
  116OSM   H13S12135   6.551   4.100   7.824  1.2925 -0.2669 -2.2453
  116OSM   H13T12136   6.701   4.019   7.872  0.0986  0.2943 -2.0304
  116OSM   C14S12137   6.537   3.984   8.020 -0.4725 -0.3087  0.2657
  116OSM   H14S12138   6.620   4.011   8.088  0.6261  0.9988 -1.4938
  116OSM   H14T12139   6.516   3.878   8.047  0.6087 -0.3484  1.0176
  116OSM   C15S12140   6.414   4.064   8.064  0.3091  0.2695  0.2013
  116OSM   H15S12141   6.326   4.040   8.000 -0.3005 -1.1698  1.5062
  116OSM   H15T12142   6.429   4.173   8.055 -1.8497  0.8909  2.7634
  116OSM   C16S12143   6.372   4.037   8.208  0.6571  0.2230  0.3060
  116OSM   H16S12144   6.443   4.079   8.283 -0.6459 -1.8901  2.9081
  116OSM   H16T12145   6.380   3.927   8.221 -0.3601  0.2993  1.9816
  116OSM   C17S12146   6.233   4.086   8.244  0.0427  0.3204 -0.1225
  116OSM   H17S12147   6.216   4.194   8.224 -1.1201  0.5153  1.6489
  116OSM   H17T12148   6.213   4.083   8.353  0.3163  0.7454 -0.0606
  116OSM   C18S12149   6.119   4.003   8.182  0.6097  0.5111  0.1362
  116OSM   H18S12150   6.119   3.896   8.209 -1.9184  0.4744  0.1693
  116OSM   H18T12151   6.137   4.006   8.072  2.6902  3.7177  0.4082
  116OSM   H18U12152   6.017   4.046   8.188 -0.0284 -0.9383  0.0123
  116OSM    C1F12153   6.762   4.483   6.800 -0.6028  0.2881 -0.1468
  116OSM     OF12154   6.685   4.505   6.712  0.2334  0.7040  0.1340
  116OSM    C2F12155   6.818   4.590   6.880  0.7548 -0.6946  0.1925
  116OSM    H2F12156   6.825   4.668   6.800 -2.9526 -0.0874  0.2534
  116OSM    H2G12157   6.917   4.567   6.924  2.0456  3.6516  0.0844
  116OSM    C3F12158   6.712   4.641   6.988  0.6967 -0.3046 -0.0632
  116OSM    H3F12159   6.614   4.669   6.943  1.0407 -0.3858 -0.8823
  116OSM    H3G12160   6.749   4.734   7.037 -1.5289  0.4056  0.3996
  116OSM    C4F12161   6.674   4.540   7.103  0.0088  0.3973  1.2171
  116OSM    H4F12162   6.763   4.478   7.128  0.4478  0.8259  0.7536
  116OSM    H4G12163   6.591   4.483   7.057 -2.5745  3.7077  1.4226
  116OSM    C5F12164   6.619   4.598   7.229  0.2755  0.4506  0.4904
  116OSM    H5F12165   6.535   4.660   7.194  0.6863 -0.4189 -2.2729
  116OSM    H5G12166   6.698   4.662   7.273 -0.5886  0.7312  1.6910
  116OSM    C6F12167   6.579   4.493   7.330 -0.3137  0.5023 -0.0006
  116OSM    H6F12168   6.670   4.432   7.348  0.2057  1.2019 -0.2131
  116OSM    H6G12169   6.495   4.434   7.287 -1.1266  0.9474  0.9316
  116OSM    C7F12170   6.534   4.554   7.456  0.2888  0.0281  0.2973
  116OSM    H7F12171   6.441   4.613   7.445  2.3326  3.8021  1.5843
  116OSM    H7G12172   6.616   4.625   7.479  3.3853 -1.5547 -4.3695
  116OSM    C8F12173   6.517   4.432   7.557  0.0502 -0.5351 -0.7021
  116OSM    H8F12174   6.568   4.338   7.530 -1.3847 -2.0173  1.4109
  116OSM    H8G12175   6.409   4.403   7.555  0.1465 -0.9538 -0.1412
  116OSM    C9F12176   6.558   4.491   7.692  0.3330  0.9588 -0.0284
  116OSM    H9F12177   6.667   4.503   7.695  0.3330  1.4908 -1.2434
  116OSM   C10F12178   6.482   4.528   7.799 -1.5378  0.1611  0.1792
  116OSM   H10F12179   6.531   4.558   7.892 -0.7860 -1.2618  0.2682
  116OSM   C11F12180   6.333   4.521   7.802 -0.1226  0.1176  0.3242
  116OSM   H11F12181   6.283   4.488   7.709 -0.3172 -2.7160  1.3567
  116OSM   H11G12182   6.302   4.628   7.805  0.0153  0.2474 -1.7074
  116OSM   C12F12183   6.269   4.447   7.920  0.1109  0.6390  0.1748
  116OSM   H12F12184   6.324   4.484   8.009 -0.2949 -1.1198  1.2014
  116OSM   H12G12185   6.295   4.340   7.903 -1.9721  0.3082 -1.3906
  116OSM   C13F12186   6.124   4.455   7.926  0.1979  0.3079  0.8086
  116OSM   H13F12187   6.064   4.409   7.844  1.9311  0.1822 -0.4463
  116OSM   H13G12188   6.111   4.564   7.911  1.7337  0.3619 -0.3100
  116OSM   C14F12189   6.063   4.422   8.062  0.1332 -0.3514  0.0610
  116OSM   H14F12190   6.052   4.516   8.120 -0.0754 -0.6196  0.4576
  116OSM   H14G12191   6.135   4.360   8.119 -2.4494 -0.4559  3.5080
  116OSM   C15F12192   5.928   4.340   8.069  0.0729 -0.3947  0.0569
  116OSM   H15F12193   5.919   4.246   8.010  0.5824 -0.1634 -0.3968
  116OSM   H15G12194   5.846   4.413   8.053  0.8122  0.5104  0.2844
  116OSM   C16F12195   5.912   4.298   8.220 -0.2013 -0.1195 -0.3822
  116OSM   H16F12196   5.893   4.385   8.288 -0.4455  1.0132 -1.8497
  116OSM   H16G12197   6.005   4.247   8.255 -1.8409 -2.1091  1.3346
  116OSM   C17F12198   5.784   4.207   8.229 -0.7797 -0.6192  0.2213
  116OSM   H17F12199   5.799   4.127   8.153 -0.2254  0.0232 -0.3626
  116OSM   H17G12200   5.701   4.280   8.213 -1.0543 -0.7824  0.8877
  116OSM   C18F12201   5.776   4.156   8.373  0.0407  0.1902  1.1820
  116OSM   H18F12202   5.862   4.091   8.400 -0.5110  0.4600  3.8873
  116OSM   H18G12203   5.684   4.096   8.385 -0.5279  0.3549 -1.5938
  116OSM   H18H12204   5.774   4.238   8.448  1.7998  1.2929  0.1171
  117OSM      N12205   3.997   5.215   5.882 -0.2850  0.1510 -0.8290
  117OSM    C1512206   3.898   5.111   5.911  0.5182  0.3133  0.5551
  117OSM   H15A12207   3.831   5.103   5.827 -0.4745  1.1339  1.2440
  117OSM   H15B12208   3.839   5.132   5.999 -1.0061  1.4403 -0.6817
  117OSM   H15C12209   3.939   5.012   5.930 -2.2242 -1.5892 -2.4182
  117OSM    C1412210   4.060   5.180   5.760 -0.0287 -0.0312 -0.9815
  117OSM   H14A12211   4.108   5.084   5.775  0.5871  0.4533  0.3405
  117OSM   H14B12212   4.146   5.241   5.736  0.7161 -0.8584 -0.4930
  117OSM   H14C12213   3.994   5.179   5.675 -1.2498 -0.4804 -0.0658
  117OSM    C1312214   3.928   5.344   5.856 -0.4452  0.5240  0.6882
  117OSM   H13A12215   3.888   5.386   5.947  1.0024  0.3622  1.4464
  117OSM   H13B12216   3.848   5.320   5.788  0.9805  0.8704 -1.1932
  117OSM   H13C12217   3.996   5.416   5.813 -0.2947 -0.3343 -0.5798
  117OSM    C1212218   4.107   5.224   5.992  0.0631  0.0915  0.5243
  117OSM   H12A12219   4.180   5.295   5.957 -0.6188 -0.2220 -1.7635
  117OSM   H12B12220   4.158   5.129   6.000  0.7615  0.5600  2.0074
  117OSM    C1112221   4.067   5.272   6.135  0.9375 -0.0423 -0.7773
  117OSM   H11A12222   4.023   5.373   6.126  0.5045 -0.1678 -0.1339
  117OSM   H11B12223   4.164   5.281   6.188 -0.4610  1.6503  1.7060
  117OSM      P12224   4.035   5.081   6.306 -0.3073 -0.2627 -0.0585
  117OSM    O1312225   3.936   4.968   6.308  0.2104  0.2375 -0.1531
  117OSM    O1412226   4.170   5.052   6.267  0.6187  0.7866  0.2491
  117OSM    O1112227   4.035   5.163   6.441  0.0582 -0.0277 -0.1844
  117OSM    O1212228   3.981   5.184   6.204  0.3653 -0.5690 -0.2163
  117OSM    C1S12229   3.920   5.200   6.512 -0.1692  0.4164  0.5434
  117OSM    H1S12230   3.846   5.117   6.505  0.0013  0.2854  0.2509
  117OSM    H1T12231   3.885   5.285   6.450  0.9891 -0.0449 -0.8103
  117OSM     NF12232   3.814   5.298   6.704  0.6646  0.2268 -0.6585
  117OSM    HNF12233   3.795   5.396   6.705 -1.3381 -0.1058 -0.3783
  117OSM    C2S12234   3.942   5.254   6.658  0.2023 -0.3547  0.1048
  117OSM    H2S12235   3.978   5.163   6.712  1.5328  0.2860  0.3291
  117OSM    C3S12236   4.050   5.363   6.675 -0.3271 -0.1469 -0.5088
  117OSM    H3S12237   4.036   5.448   6.605  2.2951  2.1067  1.4265
  117OSM     O312238   4.174   5.313   6.648 -0.8055  0.4054 -0.0517
  117OSM    HO312239   4.158   5.230   6.602 -2.3335  1.0779 -0.7962
  117OSM    C4S12240   4.036   5.425   6.812  0.2172 -0.4485 -0.2443
  117OSM    H4S12241   3.971   5.514   6.814  1.9269  0.8743  1.8881
  117OSM    C5S12242   4.090   5.386   6.931  0.6214 -0.1688  0.0625
  117OSM    H5S12243   4.126   5.282   6.930  1.1876  0.0195  0.5296
  117OSM    C6S12244   4.062   5.447   7.063  1.0691  0.1692  0.5495
  117OSM    H6S12245   4.155   5.499   7.096  1.1268 -1.7191  3.7735
  117OSM    H6T12246   4.040   5.364   7.134  0.7793 -1.5733 -1.4803
  117OSM    C7S12247   3.937   5.542   7.068  0.1119  0.0193  0.2342
  117OSM    H7S12248   3.848   5.484   7.038 -0.4635  1.0588 -0.1232
  117OSM    H7T12249   3.958   5.625   6.997  0.7624  1.0557  1.5819
  117OSM    C8S12250   3.914   5.589   7.210 -0.5061  0.8799 -0.0954
  117OSM    H8S12251   4.012   5.636   7.233  1.0406 -0.4416 -3.3537
  117OSM    H8T12252   3.897   5.498   7.271  0.6631  1.5284  1.2642
  117OSM    C9S12253   3.786   5.669   7.209  0.1346 -0.1096 -0.2334
  117OSM    H9S12254   3.711   5.588   7.196  0.4424 -0.4283 -0.0326
  117OSM    H9T12255   3.786   5.743   7.126  1.4528 -0.5468 -0.6375
  117OSM   C10S12256   3.752   5.741   7.339  0.2416 -0.4387 -0.5941
  117OSM   H10S12257   3.652   5.786   7.323  0.5892  1.4706  1.9098
  117OSM   H10T12258   3.819   5.829   7.353 -2.0617  1.1063  1.7604
  117OSM   C11S12259   3.760   5.650   7.466 -0.1596  0.2797 -0.3178
  117OSM   H11S12260   3.864   5.632   7.498 -0.8779 -1.0576  1.4188
  117OSM   H11T12261   3.716   5.554   7.432 -0.8594  0.8463 -1.0533
  117OSM   C12S12262   3.671   5.697   7.589 -0.5850  1.2482 -0.7478
  117OSM   H12S12263   3.638   5.610   7.649 -1.7354  2.3715  0.3243
  117OSM   H12T12264   3.571   5.727   7.549 -1.2246 -1.4267 -1.3158
  117OSM   C13S12265   3.733   5.815   7.664 -0.3504 -0.0220 -0.2250
  117OSM   H13S12266   3.725   5.900   7.592 -0.4309  1.4880  1.4861
  117OSM   H13T12267   3.840   5.798   7.688 -0.5389  1.3005  1.8185
  117OSM   C14S12268   3.657   5.854   7.797 -0.1888 -0.0840 -0.0885
  117OSM   H14S12269   3.647   5.761   7.858 -2.3582 -0.3554 -0.7564
  117OSM   H14T12270   3.558   5.893   7.765 -0.8337 -0.6114  1.1684
  117OSM   C15S12271   3.741   5.952   7.880  0.2219 -0.1841  0.0896
  117OSM   H15S12272   3.768   6.037   7.815 -0.0926 -1.1419 -1.3456
  117OSM   H15T12273   3.836   5.906   7.916 -0.3115  1.2129  3.7016
  117OSM   C16S12274   3.669   6.008   8.010 -0.0223  0.4317 -1.2011
  117OSM   H16S12275   3.613   5.917   8.041 -1.4780  1.6616 -0.0712
  117OSM   H16T12276   3.594   6.087   7.990 -1.2363 -0.4847 -0.4137
  117OSM   C17S12277   3.771   6.035   8.115 -0.5312 -0.4739 -0.5865
  117OSM   H17S12278   3.861   6.079   8.067  0.2923 -0.6985  0.6776
  117OSM   H17T12279   3.819   5.951   8.170  1.5534  1.0868  0.1158
  117OSM   C18S12280   3.726   6.137   8.223  0.0124 -0.4590  0.1246
  117OSM   H18S12281   3.805   6.204   8.263  1.0235  0.3033 -2.8516
  117OSM   H18T12282   3.671   6.083   8.304  0.7911 -0.9546  0.3307
  117OSM   H18U12283   3.653   6.205   8.173  1.7220  0.3711 -1.3371
  117OSM    C1F12284   3.719   5.213   6.742 -0.2215  0.1537 -0.4474
  117OSM     OF12285   3.726   5.091   6.725 -1.1695  0.3172 -0.7288
  117OSM    C2F12286   3.601   5.266   6.810  0.5439  0.3560  0.1624
  117OSM    H2F12287   3.541   5.316   6.731  0.2303 -2.8237 -1.7624
  117OSM    H2G12288   3.630   5.339   6.889  1.0257 -1.4877  1.7760
  117OSM    C3F12289   3.507   5.152   6.872  0.2552  0.5509 -0.6397
  117OSM    H3F12290   3.477   5.071   6.803  1.0297 -1.7989  1.6089
  117OSM    H3G12291   3.416   5.207   6.905 -0.2804 -0.5779 -0.1759
  117OSM    C4F12292   3.572   5.075   6.991  0.9808 -0.2743 -0.1240
  117OSM    H4F12293   3.631   5.153   7.045  1.4292  2.0043 -3.5890
  117OSM    H4G12294   3.637   4.994   6.953 -0.0279 -0.2761 -1.9239
  117OSM    C5F12295   3.467   5.015   7.090 -0.6136  0.6522  0.3068
  117OSM    H5F12296   3.394   4.948   7.040 -2.4075  2.4494  0.3898
  117OSM    H5G12297   3.401   5.094   7.133 -0.2115  1.0064  0.2784
  117OSM    C6F12298   3.530   4.950   7.213 -0.0974  1.0939 -0.3631
  117OSM    H6F12299   3.612   5.009   7.259 -0.0773  0.9108 -0.1677
  117OSM    H6G12300   3.576   4.854   7.183  0.9712  1.7761 -1.0015
  117OSM    C7F12301   3.432   4.913   7.325  0.5122  0.8145 -0.6324
  117OSM    H7F12302   3.341   4.866   7.284  1.4844  0.1273 -2.0865
  117OSM    H7G12303   3.393   5.010   7.364  1.6438  0.0750  2.6685
  117OSM    C8F12304   3.493   4.830   7.435 -0.4511 -0.3285  0.1368
  117OSM    H8F12305   3.592   4.880   7.448 -1.4129  2.2049 -1.5573
  117OSM    H8G12306   3.504   4.725   7.401 -2.5444 -0.6897  0.4774
  117OSM    C9F12307   3.426   4.840   7.568 -0.2806  0.2315  0.4924
  117OSM    H9F12308   3.372   4.930   7.599 -0.2323 -0.0462  1.4122
  117OSM   C10F12309   3.468   4.757   7.673  0.6310 -0.3765 -0.0317
  117OSM   H10F12310   3.430   4.763   7.776 -0.6830 -0.3620 -0.4974
  117OSM   C11F12311   3.566   4.651   7.649  0.5706  0.1081 -0.2987
  117OSM   H11F12312   3.668   4.693   7.643  0.3290  0.6079 -0.9583
  117OSM   H11G12313   3.543   4.604   7.551 -2.6063 -2.3731  1.4217
  117OSM   C12F12314   3.565   4.542   7.762  0.1626 -0.5960 -0.1640
  117OSM   H12F12315   3.467   4.489   7.768  0.0302 -0.1858  1.7971
  117OSM   H12G12316   3.589   4.597   7.855 -2.0100 -1.8752  1.2547
  117OSM   C13F12317   3.682   4.443   7.749 -0.4467 -0.2275  0.0797
  117OSM   H13F12318   3.776   4.502   7.736 -0.5335 -0.0145  0.4023
  117OSM   H13G12319   3.673   4.387   7.654  0.4581 -0.0928 -0.0954
  117OSM   C14F12320   3.690   4.341   7.864 -0.6777 -0.4269 -0.4034
  117OSM   H14F12321   3.785   4.284   7.852  0.8025  1.9164 -0.5189
  117OSM   H14G12322   3.601   4.276   7.855 -0.3459 -1.7963  3.8964
  117OSM   C15F12323   3.678   4.409   8.006  0.7909  0.1429  0.2298
  117OSM   H15F12324   3.578   4.458   8.013  1.9416  3.3270 -2.8409
  117OSM   H15G12325   3.753   4.491   8.013  1.6705 -0.7590  2.0929
  117OSM   C16F12326   3.685   4.315   8.116  0.2601 -0.5237  0.1712
  117OSM   H16F12327   3.776   4.252   8.123  0.5477 -0.0658  0.6642
  117OSM   H16G12328   3.606   4.239   8.100  0.1162 -0.4004  0.2882
  117OSM   C17F12329   3.653   4.375   8.256 -0.1307  0.0077 -0.0706
  117OSM   H17F12330   3.556   4.426   8.237 -1.2695 -1.7758  0.6765
  117OSM   H17G12331   3.637   4.301   8.338 -1.0027  1.5147  1.1818
  117OSM   C18F12332   3.753   4.479   8.303 -0.2713  0.4993  0.8434
  117OSM   H18F12333   3.737   4.573   8.245  0.0664  0.2120  0.2727
  117OSM   H18G12334   3.857   4.442   8.292  1.5875  5.2127  0.5423
  117OSM   H18H12335   3.748   4.505   8.411  2.2446 -0.3140  1.2152
  118OSM      N12336   6.526   6.548   6.048 -0.4627  0.6121 -0.3648
  118OSM    C1512337   6.523   6.691   5.993  0.5079  0.1067 -0.0273
  118OSM   H15A12338   6.624   6.728   5.999 -0.0523  1.8918 -0.9121
  118OSM   H15B12339   6.467   6.763   6.051 -0.4427 -1.9965  1.8515
  118OSM   H15C12340   6.495   6.687   5.889 -0.0552 -2.4393  0.1449
  118OSM    C1412341   6.395   6.480   6.036 -0.0012 -0.4993  0.0579
  118OSM   H14A12342   6.394   6.384   6.086  1.0211 -0.2379  0.6120
  118OSM   H14B12343   6.359   6.490   5.935 -0.0506  0.5974  0.1731
  118OSM   H14C12344   6.332   6.536   6.104 -0.0026  0.4394 -0.7010
  118OSM    C1312345   6.627   6.475   5.966  0.9004  0.2764  0.1974
  118OSM   H13A12346   6.697   6.546   5.923  0.4926  0.2140 -0.5983
  118OSM   H13B12347   6.569   6.422   5.892  1.4453 -3.4779  2.2099
  118OSM   H13C12348   6.681   6.400   6.020  1.1403  0.2599 -0.0637
  118OSM    C1212349   6.570   6.546   6.192  0.1697  0.0118 -0.0634
  118OSM   H12A12350   6.489   6.601   6.237  0.0739  0.0570 -0.2917
  118OSM   H12B12351   6.662   6.601   6.193 -0.9505  2.2453 -3.6398
  118OSM    C1112352   6.572   6.408   6.268  0.3406  0.4708  0.1552
  118OSM   H11A12353   6.475   6.357   6.252  1.1630 -2.0765  2.4788
  118OSM   H11B12354   6.587   6.434   6.375  1.2760 -0.5433  0.2905
  118OSM      P12355   6.830   6.361   6.275  0.2947 -0.3017  0.2577
  118OSM    O1312356   6.923   6.265   6.207 -0.4742  0.6815 -0.6935
  118OSM    O1412357   6.858   6.509   6.252 -0.0317  0.4201 -0.2435
  118OSM    O1112358   6.814   6.326   6.426  0.4401 -0.4560  0.3236
  118OSM    O1212359   6.682   6.331   6.220  0.0233  0.5067 -0.0241
  118OSM    C1S12360   6.923   6.353   6.516  0.6382  0.7906 -0.5837
  118OSM    H1S12361   7.001   6.422   6.476  1.8975 -0.2243  0.0492
  118OSM    H1T12362   6.977   6.257   6.533 -0.1842  0.6622  1.5533
  118OSM     NF12363   6.990   6.393   6.750  0.5011 -0.5183  0.2048
  118OSM    HNF12364   7.001   6.326   6.823 -1.3035 -0.2590  0.7463
  118OSM    C2S12365   6.882   6.391   6.663  0.4392 -0.5049  0.5976
  118OSM    H2S12366   6.835   6.491   6.654 -1.1770 -1.0611  2.1838
  118OSM    C3S12367   6.773   6.292   6.720  0.1167  0.4456  0.2349
  118OSM    H3S12368   6.824   6.195   6.736 -0.3312  0.2389  0.4153
  118OSM     O312369   6.662   6.271   6.636  0.8625 -0.3795 -0.0171
  118OSM    HO312370   6.690   6.309   6.553  1.0574 -0.3427  0.0622
  118OSM    C4S12371   6.729   6.340   6.859  0.1901 -0.3631  0.5463
  118OSM    H4S12372   6.755   6.272   6.941 -0.0047 -0.2758  0.6823
  118OSM    C5S12373   6.655   6.454   6.877  0.1525 -0.4033  0.1314
  118OSM    H5S12374   6.621   6.497   6.782 -1.9553 -2.7044 -0.2624
  118OSM    C6S12375   6.610   6.514   7.008  0.1649  0.0713  0.0472
  118OSM    H6S12376   6.504   6.546   6.994 -0.0955 -0.1930  1.2539
  118OSM    H6T12377   6.664   6.608   7.028 -1.3569  0.7688  1.0962
  118OSM    C7S12378   6.632   6.423   7.128  0.1562 -0.4611  0.0560
  118OSM    H7S12379   6.742   6.408   7.136  0.6669  1.6314 -2.0583
  118OSM    H7T12380   6.577   6.327   7.121 -1.1733  0.2166  0.8207
  118OSM    C8S12381   6.578   6.481   7.266  0.1169  1.5708 -0.2466
  118OSM    H8S12382   6.470   6.505   7.264 -0.7871 -1.9217 -2.2966
  118OSM    H8T12383   6.634   6.574   7.290  2.4514 -0.3756  2.5539
  118OSM    C9S12384   6.588   6.371   7.381 -0.9735  0.0672 -0.0236
  118OSM    H9S12385   6.695   6.366   7.410 -0.9188  0.2186 -0.1963
  118OSM    H9T12386   6.564   6.268   7.344 -0.0653 -0.9043  1.9575
  118OSM   C10S12387   6.487   6.402   7.493  0.4594 -0.0106 -0.3313
  118OSM   H10S12388   6.384   6.371   7.467  1.2977 -3.8346  0.1883
  118OSM   H10T12389   6.513   6.508   7.510 -1.7315  0.5726 -0.4401
  118OSM   C11S12390   6.515   6.331   7.622 -0.1570  0.2852  0.0128
  118OSM   H11S12391   6.613   6.368   7.660 -0.2123 -0.1532  0.5908
  118OSM   H11T12392   6.524   6.222   7.601  0.1187 -0.0328  1.6734
  118OSM   C12S12393   6.400   6.360   7.722 -0.4383  0.6295 -0.6051
  118OSM   H12S12394   6.302   6.332   7.676 -0.8537 -0.9929  1.1140
  118OSM   H12T12395   6.410   6.465   7.754 -1.0465  0.7499 -0.7972
  118OSM   C13S12396   6.420   6.268   7.849 -0.9926 -0.0344 -0.1054
  118OSM   H13S12397   6.521   6.302   7.880  0.0010 -3.2472  0.5949
  118OSM   H13T12398   6.438   6.162   7.822  1.3244  0.1547  0.4769
  118OSM   C14S12399   6.323   6.296   7.962 -0.0528 -0.7932  0.3018
  118OSM   H14S12400   6.213   6.283   7.954 -0.3456  0.6087  1.6065
  118OSM   H14T12401   6.312   6.406   7.977  1.1580 -0.4575 -1.0157
  118OSM   C15S12402   6.364   6.216   8.084 -0.9787 -0.0928  0.0046
  118OSM   H15S12403   6.465   6.245   8.122 -1.1086 -0.8263  0.9389
  118OSM   H15T12404   6.373   6.108   8.059 -0.0138  0.0003 -0.1114
  118OSM   C16S12405   6.261   6.236   8.206 -0.1613  0.6026 -0.2227
  118OSM   H16S12406   6.171   6.174   8.185  1.1144 -1.3779 -0.1116
  118OSM   H16T12407   6.224   6.340   8.208 -3.1845 -0.3686 -0.4264
  118OSM   C17S12408   6.333   6.198   8.335 -0.0628 -0.7930 -0.4654
  118OSM   H17S12409   6.399   6.281   8.368 -0.1716 -0.9170  0.0657
  118OSM   H17T12410   6.395   6.109   8.312  2.4730  0.2907  1.5840
  118OSM   C18S12411   6.233   6.165   8.453 -0.2629  0.1135 -0.0002
  118OSM   H18S12412   6.142   6.106   8.432 -0.3299 -0.6577  2.1718
  118OSM   H18T12413   6.183   6.257   8.490  1.9358  1.2760  0.2952
  118OSM   H18U12414   6.291   6.132   8.542  1.6081  1.1192 -0.7743
  118OSM    C1F12415   7.102   6.469   6.731 -0.6039  1.0545 -0.2348
  118OSM     OF12416   7.102   6.548   6.639 -0.1963  0.1932  0.0972
  118OSM    C2F12417   7.223   6.456   6.822 -0.9141  0.5420 -0.0471
  118OSM    H2F12418   7.283   6.369   6.788 -1.1962  0.5875 -0.6826
  118OSM    H2G12419   7.180   6.434   6.922  0.1941 -0.6077  0.2071
  118OSM    C3F12420   7.307   6.582   6.832  0.4535  0.2437 -0.0700
  118OSM    H3F12421   7.247   6.658   6.886  0.3419 -0.2971  0.5768
  118OSM    H3G12422   7.332   6.621   6.731 -0.8588  0.7618 -0.2038
  118OSM    C4F12423   7.435   6.557   6.927  0.6151  0.5643  0.0711
  118OSM    H4F12424   7.495   6.650   6.930  0.7935  0.4095  1.5768
  118OSM    H4G12425   7.502   6.479   6.885  1.0673 -0.5075  2.6064
  118OSM    C5F12426   7.408   6.532   7.076 -0.8335 -0.5917  0.6144
  118OSM    H5F12427   7.322   6.467   7.102 -0.7305 -0.3399  1.6670
  118OSM    H5G12428   7.387   6.636   7.111 -1.1841 -0.8355  1.1498
  118OSM    C6F12429   7.524   6.468   7.161 -0.2297 -0.1606  0.6141
  118OSM    H6F12430   7.618   6.518   7.131 -0.0198 -1.0459 -0.2887
  118OSM    H6G12431   7.538   6.360   7.140  0.2481  0.0629 -0.2578
  118OSM    C7F12432   7.505   6.499   7.312 -0.1385  0.2870  0.2731
  118OSM    H7F12433   7.423   6.444   7.363 -0.4464  0.8916  0.4470
  118OSM    H7G12434   7.482   6.608   7.318 -1.1313  0.2424 -1.9049
  118OSM    C8F12435   7.641   6.495   7.386  0.0211  0.1665 -0.0437
  118OSM    H8F12436   7.699   6.580   7.345 -2.3930  2.3742  0.7510
  118OSM    H8G12437   7.695   6.404   7.355 -2.2865 -0.7240 -1.7063
  118OSM    C9F12438   7.624   6.525   7.536 -0.4632 -0.4661  0.1231
  118OSM    H9F12439   7.605   6.631   7.555  1.9273  0.3642 -1.7147
  118OSM   C10F12440   7.638   6.432   7.627  0.1914  0.3653 -0.0541
  118OSM   H10F12441   7.651   6.466   7.731 -0.2421 -0.0603  0.1433
  118OSM   C11F12442   7.672   6.284   7.600  0.0250  0.0989  0.0778
  118OSM   H11F12443   7.779   6.277   7.573  0.3202 -1.5130  1.5334
  118OSM   H11G12444   7.625   6.250   7.506  0.4316 -0.3241  0.0261
  118OSM   C12F12445   7.644   6.173   7.710  0.1798 -0.2679  0.4023
  118OSM   H12F12446   7.692   6.084   7.664 -0.6906 -0.8754  0.6345
  118OSM   H12G12447   7.536   6.153   7.729  0.2258  0.3066  1.2861
  118OSM   C13F12448   7.715   6.200   7.843  0.1038  0.0694 -0.3637
  118OSM   H13F12449   7.691   6.301   7.882  1.7526  0.7961 -1.1349
  118OSM   H13G12450   7.826   6.205   7.831  0.0745  1.6824 -0.1940
  118OSM   C14F12451   7.684   6.102   7.961 -0.6743 -0.3682 -0.8906
  118OSM   H14F12452   7.733   6.135   8.055 -0.1691 -2.4232 -0.3858
  118OSM   H14G12453   7.734   6.006   7.936  0.4034 -0.8861  2.7184
  118OSM   C15F12454   7.535   6.093   7.999 -0.4965  0.0950  0.4507
  118OSM   H15F12455   7.482   6.082   7.902 -0.0321  1.6617 -0.0120
  118OSM   H15G12456   7.493   6.184   8.048 -3.1674 -1.1843  0.7338
  118OSM   C16F12457   7.495   5.986   8.099  0.2551 -0.3318 -0.2943
  118OSM   H16F12458   7.546   5.986   8.198  1.0178 -1.6509 -0.6655
  118OSM   H16G12459   7.529   5.893   8.050 -0.4692 -1.1881  0.7883
  118OSM   C17F12460   7.342   5.975   8.130 -0.2226  0.6817 -0.4079
  118OSM   H17F12461   7.295   5.924   8.043  0.4710 -0.8559  0.0798
  118OSM   H17G12462   7.282   6.068   8.139 -0.2748  0.5299  0.9738
  118OSM   C18F12463   7.302   5.866   8.236  0.0459  0.2935  0.2002
  118OSM   H18F12464   7.337   5.905   8.334  1.7527 -1.1889  0.2340
  118OSM   H18G12465   7.357   5.772   8.216 -0.5070  0.2665 -1.2841
  118OSM   H18H12466   7.193   5.847   8.226  0.2855 -2.0019  1.3056
  119OSM      N12467   4.326   5.745   6.108 -0.4807  0.2057  0.3542
  119OSM    C1512468   4.327   5.781   5.959 -0.6441  0.0479 -0.0979
  119OSM   H15A12469   4.365   5.703   5.894 -1.3428  0.5967 -1.1808
  119OSM   H15B12470   4.370   5.879   5.947 -1.2003  0.2806 -0.2082
  119OSM   H15C12471   4.228   5.803   5.921 -1.1421  0.3383  1.3273
  119OSM    C1412472   4.262   5.616   6.130  0.5237 -0.0606 -0.2853
  119OSM   H14A12473   4.157   5.621   6.105  0.4024 -1.4030 -0.1229
  119OSM   H14B12474   4.271   5.586   6.234 -2.2713 -1.9935 -0.5005
  119OSM   H14C12475   4.319   5.538   6.080  2.1621  0.6833  0.3455
  119OSM    C1312476   4.467   5.733   6.162 -0.2180  0.6165 -0.3624
  119OSM   H13A12477   4.512   5.830   6.146 -1.3886  0.8809 -2.1982
  119OSM   H13B12478   4.532   5.659   6.118  0.2887 -0.2143  1.6677
  119OSM   H13C12479   4.466   5.704   6.266 -1.1962  0.7810 -0.3215
  119OSM    C1212480   4.251   5.847   6.192 -0.4665 -0.3948 -0.4626
  119OSM   H12A12481   4.282   5.829   6.294  0.7092  3.3002  0.0098
  119OSM   H12B12482   4.146   5.821   6.194 -0.4482 -0.7338  3.1556
  119OSM    C1112483   4.273   6.003   6.162  0.6701 -0.2982 -1.0555
  119OSM   H11A12484   4.382   6.020   6.178  0.5355  1.8032 -1.9922
  119OSM   H11B12485   4.225   6.066   6.240  2.8724 -1.2138  1.1654
  119OSM      P12486   4.084   6.095   6.009  0.1370 -0.3827 -0.2021
  119OSM    O1312487   4.083   6.184   5.892 -0.5509  0.0645 -0.0743
  119OSM    O1412488   3.999   5.974   5.995  0.5026 -0.8736 -0.0772
  119OSM    O1112489   4.042   6.179   6.141 -0.1486  0.4128 -0.1423
  119OSM    O1212490   4.232   6.043   6.034  0.2882 -0.3428  0.6037
  119OSM    C1S12491   3.903   6.217   6.148 -0.4193  1.0425  0.3826
  119OSM    H1S12492   3.837   6.150   6.090  1.5795  1.4068 -2.5006
  119OSM    H1T12493   3.892   6.314   6.095  1.1485  1.0926  0.1072
  119OSM     NF12494   3.702   6.223   6.308 -0.3308 -0.4207 -0.0156
  119OSM    HNF12495   3.673   6.316   6.328  1.1072 -0.0686  0.5159
  119OSM    C2S12496   3.849   6.219   6.297  0.3967 -0.2202 -0.1084
  119OSM    H2S12497   3.886   6.118   6.326  0.6963  0.0143  0.3355
  119OSM    C3S12498   3.921   6.330   6.377  0.1104  0.0979  1.2459
  119OSM    H3S12499   3.901   6.429   6.332  0.2061 -0.9995 -1.3947
  119OSM     O312500   4.063   6.341   6.366  0.1650 -0.6593  0.0714
  119OSM    HO312501   4.092   6.289   6.291  1.8892  1.8499 -1.1267
  119OSM    C4S12502   3.892   6.314   6.524  0.2929 -0.1495  0.2751
  119OSM    H4S12503   3.928   6.223   6.573  0.3872 -1.2214 -1.6972
  119OSM    C5S12504   3.834   6.417   6.596 -0.2537 -0.4685 -0.7434
  119OSM    H5S12505   3.815   6.509   6.539  1.5236  0.2396 -0.2513
  119OSM    C6S12506   3.815   6.419   6.747 -0.0961  0.0059 -0.4140
  119OSM    H6S12507   3.716   6.462   6.774 -1.0188 -1.9377 -0.5045
  119OSM    H6T12508   3.895   6.486   6.784  0.1124  0.4372 -1.6025
  119OSM    C7S12509   3.831   6.280   6.812 -0.0237 -0.3052  0.3862
  119OSM    H7S12510   3.938   6.249   6.811  0.0297 -0.2314 -1.8875
  119OSM    H7T12511   3.787   6.196   6.755  2.7315  0.2912 -3.0149
  119OSM    C8S12512   3.776   6.275   6.953 -0.0727 -0.2359 -0.2215
  119OSM    H8S12513   3.672   6.315   6.957 -1.0175 -2.5951  1.6064
  119OSM    H8T12514   3.845   6.337   7.013 -0.8491  0.7179 -0.2843
  119OSM    C9S12515   3.752   6.134   7.005  0.2585 -0.1807 -0.5245
  119OSM    H9S12516   3.847   6.077   7.001 -1.2532 -3.1596  1.7455
  119OSM    H9T12517   3.681   6.086   6.934  0.0411  0.5758 -0.8348
  119OSM   C10S12518   3.727   6.126   7.159  0.0801 -0.2080  0.3942
  119OSM   H10S12519   3.655   6.042   7.168 -0.9563  0.6786  0.6494
  119OSM   H10T12520   3.660   6.213   7.180 -1.6131 -1.5006  0.5654
  119OSM   C11S12521   3.852   6.134   7.246  0.1073 -0.8291 -0.2877
  119OSM   H11S12522   3.903   6.227   7.215  1.2744 -1.3033  0.1766
  119OSM   H11T12523   3.910   6.041   7.231  0.4120 -0.3022 -2.7716
  119OSM   C12S12524   3.831   6.158   7.401  0.3179 -0.0006  0.6020
  119OSM   H12S12525   3.779   6.074   7.452  1.3864 -1.2845 -0.3410
  119OSM   H12T12526   3.756   6.239   7.407 -3.6464 -3.0098 -2.5367
  119OSM   C13S12527   3.963   6.201   7.466  0.0293 -0.3733  0.2302
  119OSM   H13S12528   4.005   6.295   7.423  0.6919 -0.2826  1.0505
  119OSM   H13T12529   4.048   6.133   7.446  0.8050  0.0102  2.0140
  119OSM   C14S12530   3.942   6.225   7.623 -0.2618 -0.1352  0.1271
  119OSM   H14S12531   3.901   6.131   7.665  1.4306 -2.1131 -2.3644
  119OSM   H14T12532   3.860   6.300   7.629  1.3865  1.7732 -0.2651
  119OSM   C15S12533   4.071   6.273   7.689  0.1374 -0.3656 -0.3378
  119OSM   H15S12534   4.085   6.383   7.685  1.2492 -0.5272 -1.6697
  119OSM   H15T12535   4.160   6.229   7.638  1.7942  1.6880  0.6493
  119OSM   C16S12536   4.089   6.222   7.838  0.2707  0.2442 -0.1093
  119OSM   H16S12537   4.104   6.113   7.822 -0.5302  0.5594 -4.1805
  119OSM   H16T12538   3.992   6.236   7.891  1.2569  1.4088  1.4449
  119OSM   C17S12539   4.201   6.287   7.925 -0.9597  0.2280 -0.2603
  119OSM   H17S12540   4.149   6.381   7.951 -4.0526 -1.3868 -0.1526
  119OSM   H17T12541   4.303   6.303   7.884 -0.7818 -2.3117 -0.9654
  119OSM   C18S12542   4.211   6.208   8.054  0.9192  0.4310 -0.0884
  119OSM   H18S12543   4.252   6.107   8.029  2.4703  1.2367 -0.9720
  119OSM   H18T12544   4.105   6.201   8.087  1.2574  0.3142  1.0163
  119OSM   H18U12545   4.261   6.275   8.127 -1.6187  1.1517  1.0770
  119OSM    C1F12546   3.623   6.128   6.250 -0.1136 -0.6454  0.7283
  119OSM     OF12547   3.670   6.021   6.214 -0.0948 -0.7934  0.1666
  119OSM    C2F12548   3.475   6.163   6.214 -0.0110  0.1603 -0.1134
  119OSM    H2F12549   3.465   6.199   6.110 -2.3205 -0.6873 -0.2489
  119OSM    H2G12550   3.440   6.248   6.276 -2.5670 -0.7655 -0.1620
  119OSM    C3F12551   3.388   6.037   6.262 -0.5708  0.4892 -0.2425
  119OSM    H3F12552   3.418   5.949   6.200 -0.4385 -0.7334  1.4896
  119OSM    H3G12553   3.284   6.055   6.230 -0.7334  0.1138  0.0620
  119OSM    C4F12554   3.390   6.005   6.409 -0.3721  0.3093 -0.2441
  119OSM    H4F12555   3.492   5.992   6.451 -0.1093  0.7708 -0.7312
  119OSM    H4G12556   3.327   5.914   6.421 -1.0429  1.0244  2.3889
  119OSM    C5F12557   3.329   6.118   6.495 -0.1355 -0.3618  0.1438
  119OSM    H5F12558   3.228   6.137   6.454  0.4577  0.2202 -1.1047
  119OSM    H5G12559   3.393   6.209   6.493 -0.6867  0.0747  1.4600
  119OSM    C6F12560   3.321   6.069   6.639  0.0377  0.1418 -0.6448
  119OSM    H6F12561   3.421   6.086   6.685 -1.4842  1.7768  2.4457
  119OSM    H6G12562   3.293   5.962   6.640 -2.3650  0.7150 -0.8073
  119OSM    C7F12563   3.224   6.164   6.718  0.3500  0.7079 -0.3736
  119OSM    H7F12564   3.124   6.153   6.672  0.2163  1.0943 -0.1760
  119OSM    H7G12565   3.248   6.272   6.705 -1.8373  1.1612 -1.0427
  119OSM    C8F12566   3.217   6.152   6.870  0.4876  0.1309 -0.2505
  119OSM    H8F12567   3.146   6.230   6.905  0.3963  0.8359 -1.8826
  119OSM    H8G12568   3.316   6.186   6.906  0.3673  0.5217 -0.2843
  119OSM    C9F12569   3.169   6.018   6.922  0.0890  0.3390 -0.5016
  119OSM    H9F12570   3.154   5.940   6.845  1.6161 -0.8362  0.3218
  119OSM   C10F12571   3.171   5.983   7.053  0.5647 -0.0134  0.7944
  119OSM   H10F12572   3.146   5.880   7.084 -1.3567  0.5619  1.2486
  119OSM   C11F12573   3.190   6.078   7.172 -0.4321  0.4709  0.0059
  119OSM   H11F12574   3.101   6.089   7.237  0.1323 -0.2713  0.9303
  119OSM   H11G12575   3.196   6.177   7.121  0.7331  0.0943 -0.6195
  119OSM   C12F12576   3.315   6.054   7.256 -0.1819  0.4940 -0.0067
  119OSM   H12F12577   3.349   6.148   7.304  1.6800 -0.8941  1.5648
  119OSM   H12G12578   3.407   6.025   7.200  0.0649  0.4684  0.4058
  119OSM   C13F12579   3.292   5.934   7.350  0.0464 -0.1442 -0.4440
  119OSM   H13F12580   3.388   5.885   7.379  0.7548  2.5165  2.2205
  119OSM   H13G12581   3.231   5.861   7.292 -1.1482 -0.0863  0.7062
  119OSM   C14F12582   3.242   5.977   7.482 -0.1345  0.1023 -0.0708
  119OSM   H14F12583   3.152   6.038   7.460 -0.7143 -0.9803 -0.7995
  119OSM   H14G12584   3.316   6.045   7.529  0.2472  0.0695 -0.6199
  119OSM   C15F12585   3.205   5.869   7.576  0.7587  0.3915 -0.3327
  119OSM   H15F12586   3.292   5.804   7.598  0.5204 -0.0339 -0.6423
  119OSM   H15G12587   3.125   5.803   7.535  0.8949  0.4538 -0.7087
  119OSM   C16F12588   3.147   5.915   7.703 -0.9399 -0.5771  0.2175
  119OSM   H16F12589   3.083   5.999   7.667  2.7445  1.9536 -1.0664
  119OSM   H16G12590   3.221   5.968   7.768 -0.9046 -1.2461  0.7308
  119OSM   C17F12591   3.080   5.813   7.796 -0.1194  0.4154  1.3381
  119OSM   H17F12592   3.154   5.750   7.849 -1.2031 -1.3659  0.8479
  119OSM   H17G12593   3.021   5.752   7.724  0.6768  0.3452  0.7238
  119OSM   C18F12594   2.998   5.873   7.907 -0.1134  0.4919 -0.1424
  119OSM   H18F12595   3.071   5.939   7.958 -2.3958  1.9650  1.3981
  119OSM   H18G12596   2.954   5.799   7.977 -1.5731  1.1259 -0.3498
  119OSM   H18H12597   2.910   5.933   7.875 -1.3265  0.2838  2.5465
  120OSM      N12598   0.803   4.997   6.037 -0.3659  0.1404 -0.0327
  120OSM    C1512599   0.905   5.076   5.960 -0.2090  0.1481 -0.6413
  120OSM   H15A12600   0.926   5.168   6.012 -1.1763 -0.3615  0.7196
  120OSM   H15B12601   0.864   5.106   5.865 -1.0823  1.5807  0.1552
  120OSM   H15C12602   0.991   5.012   5.953  0.7065  0.9908  1.7605
  120OSM    C1412603   0.676   5.074   6.052  0.1417 -0.6187  0.3373
  120OSM   H14A12604   0.631   5.095   5.956  0.3399 -0.2875  0.3166
  120OSM   H14B12605   0.696   5.164   6.110 -2.4819 -0.6019  1.3557
  120OSM   H14C12606   0.613   5.013   6.115 -0.8672 -0.6999 -0.7192
  120OSM    C1312607   0.761   4.877   5.959  0.0674 -0.2908 -0.3705
  120OSM   H13A12608   0.844   4.810   5.942 -0.5595 -1.2716  0.3571
  120OSM   H13B12609   0.725   4.905   5.861 -2.1469 -0.2214  0.4241
  120OSM   H13C12610   0.675   4.830   6.005 -0.1194  0.4930  0.0950
  120OSM    C1212611   0.851   4.964   6.176 -0.6490 -0.3321 -0.5993
  120OSM   H12A12612   0.777   4.902   6.225 -0.0386  0.2936  1.2025
  120OSM   H12B12613   0.889   5.051   6.228  1.9547 -0.8304 -1.5305
  120OSM    C1112614   0.972   4.868   6.184  0.1537 -0.2663 -0.6715
  120OSM   H11A12615   0.942   4.781   6.121  1.1314 -3.0048  2.3712
  120OSM   H11B12616   0.985   4.822   6.284  0.3108  1.5542  0.1828
  120OSM      P12617   1.195   4.987   6.234 -0.1639 -0.1143  0.1180
  120OSM    O1312618   1.261   4.870   6.305  0.1052  0.1353 -0.8281
  120OSM    O1412619   1.283   5.080   6.158 -0.0543 -0.2062  0.0827
  120OSM    O1112620   1.103   5.060   6.342  0.0404 -0.5012 -0.3861
  120OSM    O1212621   1.099   4.916   6.132  0.6403  0.2775 -0.0501
  120OSM    C1S12622   1.153   5.182   6.404  0.5440  0.3914 -0.2141
  120OSM    H1S12623   1.165   5.254   6.321  0.1558 -0.7602 -1.2940
  120OSM    H1T12624   1.256   5.158   6.437 -0.0714 -2.0474  0.1205
  120OSM     NF12625   1.140   5.342   6.595 -1.0338  0.7053 -0.0297
  120OSM    HNF12626   1.201   5.313   6.669  0.7697  1.7973 -1.0130
  120OSM    C2S12627   1.070   5.232   6.532  0.3258 -0.0938  0.6468
  120OSM    H2S12628   0.972   5.270   6.497  0.5420 -0.8182 -0.7862
  120OSM    C3S12629   1.043   5.118   6.632 -0.7424  0.2804 -0.1805
  120OSM    H3S12630   1.140   5.069   6.657 -0.0327  1.0782 -1.2849
  120OSM     O312631   0.967   5.007   6.581 -0.3140  0.3693  0.1504
  120OSM    HO312632   0.970   5.023   6.486  1.7791  1.6124  0.3703
  120OSM    C4S12633   0.969   5.151   6.759 -0.0820  0.5956  0.2054
  120OSM    H4S12634   0.865   5.184   6.745 -0.5920 -0.1186  1.9530
  120OSM    C5S12635   1.028   5.142   6.883  0.9099 -0.3134  1.5549
  120OSM    H5S12636   1.124   5.088   6.883  1.1340 -0.0304 -1.0349
  120OSM    C6S12637   0.952   5.174   7.011 -0.2025  0.3839 -0.0496
  120OSM    H6S12638   0.926   5.076   7.057  0.5364 -0.8218 -2.0903
  120OSM    H6T12639   0.865   5.238   6.985  0.3224  0.4582 -1.7024
  120OSM    C7S12640   1.050   5.257   7.094  0.1564  0.4134 -0.3525
  120OSM    H7S12641   1.052   5.363   7.062  4.4892 -0.1301 -2.6805
  120OSM    H7T12642   1.153   5.216   7.092 -0.0110 -0.0169 -0.3440
  120OSM    C8S12643   1.014   5.243   7.247 -0.4813  0.4526 -0.0789
  120OSM    H8S12644   0.989   5.136   7.266 -0.8690  0.3522 -1.0993
  120OSM    H8T12645   0.916   5.291   7.268 -0.5745 -0.0333  0.6394
  120OSM    C9S12646   1.122   5.288   7.335 -0.4125 -0.4791 -0.8256
  120OSM    H9S12647   1.165   5.382   7.294 -1.2836 -0.1049 -0.8929
  120OSM    H9T12648   1.210   5.221   7.340  2.6469  3.2156 -0.7114
  120OSM   C10S12649   1.072   5.323   7.479  0.3896 -0.0542  0.8879
  120OSM   H10S12650   1.006   5.411   7.489  2.0315  1.3803 -0.2704
  120OSM   H10T12651   1.163   5.348   7.537  1.3113 -0.4486 -0.3252
  120OSM   C11S12652   1.014   5.206   7.556  0.2778 -0.4640  1.2503
  120OSM   H11S12653   1.077   5.115   7.555 -1.8708 -2.0542 -1.1214
  120OSM   H11T12654   0.912   5.183   7.518  0.2100 -1.7270  2.1535
  120OSM   C12S12655   1.006   5.247   7.706 -0.4774  0.7854  0.3189
  120OSM   H12S12656   0.931   5.328   7.716 -0.5208  0.4916  2.7444
  120OSM   H12T12657   1.103   5.275   7.753  0.4764 -0.4131 -0.8675
  120OSM   C13S12658   0.962   5.128   7.793 -0.7287  0.0495 -0.2169
  120OSM   H13S12659   1.032   5.041   7.795  0.3115  0.8765  0.3001
  120OSM   H13T12660   0.876   5.078   7.744 -1.4835  0.2004  0.9253
  120OSM   C14S12661   0.927   5.172   7.934  0.1215  0.7004 -0.4370
  120OSM   H14S12662   0.844   5.246   7.929  1.0720  1.8490  0.2214
  120OSM   H14T12663   1.012   5.216   7.989 -1.8601  4.1656  0.1168
  120OSM   C15S12664   0.886   5.051   8.019 -0.3494  0.0398 -1.2085
  120OSM   H15S12665   0.966   4.975   8.023 -0.5404 -0.2330 -2.2733
  120OSM   H15T12666   0.793   5.004   7.979 -0.3548 -2.7034  1.5637
  120OSM   C16S12667   0.855   5.088   8.163  0.5672 -0.3464  0.1226
  120OSM   H16S12668   0.770   5.160   8.165  1.2930  0.5723 -0.8433
  120OSM   H16T12669   0.943   5.136   8.210  1.7932 -2.4122  0.0415
  120OSM   C17S12670   0.818   4.973   8.254  0.0679 -0.3210  0.0613
  120OSM   H17S12671   0.890   4.890   8.238 -1.0679 -1.1058 -1.2241
  120OSM   H17T12672   0.724   4.929   8.213  1.3198 -3.2065  0.0676
  120OSM   C18S12673   0.800   4.996   8.404 -0.2328 -0.7638  0.3704
  120OSM   H18S12674   0.799   4.902   8.463  2.1058 -1.6406 -0.8375
  120OSM   H18T12675   0.708   5.053   8.425 -0.8735 -0.8799 -1.8945
  120OSM   H18U12676   0.883   5.057   8.445 -1.0008  0.2666  0.4226
  120OSM    C1F12677   1.164   5.459   6.533  0.1011  0.1180  0.7208
  120OSM     OF12678   1.092   5.490   6.435 -0.0680  0.2115 -0.1582
  120OSM    C2F12679   1.274   5.549   6.573 -0.5611 -0.1114  0.2457
  120OSM    H2F12680   1.322   5.588   6.481 -1.1579  1.2120  0.4798
  120OSM    H2G12681   1.352   5.494   6.631 -1.2968 -0.7063  0.6847
  120OSM    C3F12682   1.217   5.676   6.639  0.6620  0.7748 -0.0537
  120OSM    H3F12683   1.155   5.736   6.569 -0.1591 -0.9979 -0.9065
  120OSM    H3G12684   1.310   5.733   6.659 -1.1555  3.9682 -0.1058
  120OSM    C4F12685   1.138   5.663   6.764  0.3362  0.0923 -0.2286
  120OSM    H4F12686   1.206   5.630   6.846 -1.0324 -1.2014  0.4223
  120OSM    H4G12687   1.052   5.594   6.752 -1.5476  2.0855  1.1032
  120OSM    C5F12688   1.087   5.793   6.815 -0.5135 -0.4715  0.1741
  120OSM    H5F12689   0.981   5.810   6.787 -0.4459 -0.7443 -0.2624
  120OSM    H5G12690   1.128   5.883   6.763 -1.2365 -2.0788 -3.4708
  120OSM    C6F12691   1.111   5.816   6.959 -0.1506  0.1825 -0.4236
  120OSM    H6F12692   1.081   5.922   6.977  1.2018  0.9010 -2.1283
  120OSM    H6G12693   1.221   5.807   6.974 -0.1398 -3.2922 -1.6998
  120OSM    C7F12694   1.068   5.707   7.066 -0.1921 -0.2233  0.1486
  120OSM    H7F12695   1.107   5.734   7.166 -0.2488  0.4810 -0.0121
  120OSM    H7G12696   1.115   5.610   7.038  2.3427  1.4101 -1.6388
  120OSM    C8F12697   0.914   5.702   7.082  0.6432 -0.0268 -0.2643
  120OSM    H8F12698   0.867   5.699   6.981  2.6899  0.2647 -1.2756
  120OSM    H8G12699   0.891   5.806   7.113 -0.8798 -0.0174 -1.3013
  120OSM    C9F12700   0.866   5.593   7.167  0.2776 -0.2046 -0.3073
  120OSM    H9F12701   0.928   5.503   7.166  0.5758 -0.0520  1.6247
  120OSM   C10F12702   0.767   5.602   7.262  1.0088  0.8928  0.5789
  120OSM   H10F12703   0.759   5.513   7.326  0.3960  0.8133  0.3935
  120OSM   C11F12704   0.691   5.721   7.290  0.8420  0.4394 -0.9182
  120OSM   H11F12705   0.700   5.808   7.222  0.0493 -0.8026 -2.6963
  120OSM   H11G12706   0.725   5.754   7.391 -0.1689  0.7193 -0.6565
  120OSM   C12F12707   0.543   5.697   7.308 -0.2474 -0.8618 -0.4416
  120OSM   H12F12708   0.490   5.776   7.366 -0.4996 -1.6084  0.3598
  120OSM   H12G12709   0.517   5.608   7.368 -1.3591 -0.2657  0.0016
  120OSM   C13F12710   0.476   5.690   7.166 -0.1646 -0.8316  0.6565
  120OSM   H13F12711   0.524   5.608   7.109  0.8866 -0.4380  0.9566
  120OSM   H13G12712   0.485   5.785   7.110 -1.9938 -1.7630 -1.3352
  120OSM   C14F12713   0.329   5.647   7.175 -0.2419  0.1367 -0.1632
  120OSM   H14F12714   0.320   5.540   7.207 -0.2430  0.7296  1.9798
  120OSM   H14G12715   0.267   5.657   7.084 -1.2218 -0.8248  0.3747
  120OSM   C15F12716   0.237   5.728   7.271 -0.3070  0.7391  0.1468
  120OSM   H15F12717   0.283   5.719   7.371 -1.4335  0.3818  0.6457
  120OSM   H15G12718   0.138   5.676   7.269  0.0180  0.1133 -1.0079
  120OSM   C16F12719   0.224   5.875   7.239 -0.3134 -0.1602  0.6157
  120OSM   H16F12720   0.230   5.898   7.130  1.6700  1.2044  0.9512
  120OSM   H16G12721   0.312   5.934   7.273  1.9861 -2.3430 -1.1717
  120OSM   C17F12722   0.093   5.927   7.299  0.9123 -0.3991 -0.6081
  120OSM   H17F12723   0.088   5.914   7.409 -1.8041  1.9235 -0.3508
  120OSM   H17G12724   0.004   5.879   7.253  0.4050  0.8046 -0.9244
  120OSM   C18F12725   0.079   6.074   7.264  0.7100  0.1018  1.1137
  120OSM   H18F12726   0.063   6.082   7.154 -1.1394 -0.0597  1.3466
  120OSM   H18G12727   0.162   6.139   7.297  0.8688  0.2166  0.5050
  120OSM   H18H12728  -0.016   6.100   7.315 -0.5608 -3.6045  0.9903
  121OSM      N12729   2.387   6.200   5.655 -0.0085 -0.0632 -0.4124
  121OSM    C1512730   2.408   6.057   5.616 -0.3872  0.1614  0.1868
  121OSM   H15A12731   2.350   5.992   5.680  0.0124  1.0868  1.5287
  121OSM   H15B12732   2.509   6.024   5.632  0.1284  1.6189  0.0523
  121OSM   H15C12733   2.376   6.030   5.517  0.7725 -0.0874 -0.1358
  121OSM    C1412734   2.464   6.291   5.565 -0.3615 -0.1152 -0.3023
  121OSM   H14A12735   2.430   6.391   5.588 -0.5781 -0.2416 -0.0670
  121OSM   H14B12736   2.446   6.280   5.459  1.2711  3.9953 -1.1693
  121OSM   H14C12737   2.568   6.285   5.592 -0.5345 -1.4333  0.1813
  121OSM    C1312738   2.236   6.225   5.635 -0.4987  0.4087 -0.0448
  121OSM   H13A12739   2.183   6.142   5.679 -0.0897 -0.2076 -0.7100
  121OSM   H13B12740   2.209   6.252   5.534  0.3811  1.6690  0.0264
  121OSM   H13C12741   2.210   6.313   5.693 -2.0417  1.6761 -2.4618
  121OSM    C1212742   2.430   6.218   5.798 -0.3096  0.1850 -1.0375
  121OSM   H12A12743   2.429   6.319   5.835 -1.4059  0.0667 -0.7398
  121OSM   H12B12744   2.531   6.187   5.823 -0.6118  0.3123  0.3805
  121OSM    C1112745   2.344   6.139   5.906 -0.1897 -0.4165  0.5332
  121OSM   H11A12746   2.238   6.162   5.885  0.3067  0.3691 -1.3730
  121OSM   H11B12747   2.374   6.185   6.003 -2.1700 -0.1985  1.0772
  121OSM      P12748   2.487   5.923   5.961  0.2046 -0.3226 -0.0617
  121OSM    O1312749   2.445   5.788   5.997 -0.7523 -0.4976  0.5246
  121OSM    O1412750   2.602   5.951   5.868  0.5801  0.0861 -0.1657
  121OSM    O1112751   2.515   5.998   6.092  0.2933 -0.3110  0.3909
  121OSM    O1212752   2.359   5.999   5.902 -0.0437  0.0746  0.0751
  121OSM    C1S12753   2.421   5.997   6.201  0.4859 -0.0274 -0.0845
  121OSM    H1S12754   2.364   5.902   6.190 -0.0467  0.1862  0.7916
  121OSM    H1T12755   2.350   6.082   6.200  1.6312  0.9810  0.9048
  121OSM     NF12756   2.392   5.992   6.442 -0.1620 -0.0621 -0.1221
  121OSM    HNF12757   2.377   6.083   6.481 -1.6023 -0.1460 -0.4395
  121OSM    C2S12758   2.494   5.990   6.340  0.3263  0.1208  0.1603
  121OSM    H2S12759   2.545   5.891   6.342 -1.5220 -0.9222 -1.0589
  121OSM    C3S12760   2.609   6.089   6.353 -0.4389  0.2616 -0.1130
  121OSM    H3S12761   2.578   6.194   6.334  3.2279  1.4763 -0.2860
  121OSM     O312762   2.716   6.059   6.256  0.3162 -0.1210 -0.2744
  121OSM    HO312763   2.661   6.014   6.192 -0.6696 -0.1069  0.5412
  121OSM    C4S12764   2.670   6.093   6.496 -0.1629  0.1781  0.4451
  121OSM    H4S12765   2.609   6.143   6.572 -1.0117 -2.0174  1.2860
  121OSM    C5S12766   2.787   6.038   6.536  0.0918  0.1368 -0.4176
  121OSM    H5S12767   2.853   5.988   6.463 -0.4578 -2.4164  0.7285
  121OSM    C6S12768   2.840   6.045   6.677 -0.8671  0.0905 -0.4007
  121OSM    H6S12769   2.925   6.117   6.683 -0.1651 -0.8415  1.6176
  121OSM    H6T12770   2.871   5.942   6.706  1.4504  0.3144 -1.8192
  121OSM    C7S12771   2.748   6.085   6.802 -0.1050 -0.2343  0.0315
  121OSM    H7S12772   2.655   6.025   6.800 -1.0217  1.1447 -2.4572
  121OSM    H7T12773   2.710   6.188   6.786  1.1020  0.0168 -1.4451
  121OSM    C8S12774   2.819   6.078   6.931 -0.1193  0.1968  0.4709
  121OSM    H8S12775   2.923   6.114   6.913 -0.7595  0.4086 -3.7420
  121OSM    H8T12776   2.838   5.973   6.962  1.8910 -0.0907 -1.4151
  121OSM    C9S12777   2.749   6.157   7.045 -0.9453 -0.0896 -0.2651
  121OSM    H9S12778   2.656   6.098   7.057 -0.0982 -1.6425 -1.0794
  121OSM    H9T12779   2.720   6.258   7.009  1.8978  0.7054 -0.5295
  121OSM   C10S12780   2.831   6.167   7.175 -0.3077  0.0287  0.0300
  121OSM   H10S12781   2.924   6.218   7.142 -1.0230  0.8229 -0.8130
  121OSM   H10T12782   2.863   6.064   7.201 -0.2128  0.0503  0.0008
  121OSM   C11S12783   2.758   6.237   7.289  0.0636  0.2341 -0.1601
  121OSM   H11S12784   2.660   6.187   7.307  0.3148 -0.6906 -1.2348
  121OSM   H11T12785   2.741   6.341   7.255  0.8856  1.0492  1.8294
  121OSM   C12S12786   2.833   6.234   7.416  0.0174  0.2256 -0.5489
  121OSM   H12S12787   2.903   6.320   7.426 -0.4688  0.3835  2.3267
  121OSM   H12T12788   2.907   6.151   7.413 -0.7722 -0.5313  0.3335
  121OSM   C13S12789   2.748   6.230   7.548 -0.3817 -0.6750  0.6741
  121OSM   H13S12790   2.693   6.133   7.544 -1.1185 -0.2544  0.4193
  121OSM   H13T12791   2.685   6.320   7.532 -0.6068 -1.0629 -0.7014
  121OSM   C14S12792   2.824   6.242   7.684 -0.2989 -0.1362  0.5245
  121OSM   H14S12793   2.922   6.293   7.669  0.1554 -0.9900  0.5442
  121OSM   H14T12794   2.844   6.139   7.721 -0.5711  0.1362  1.4560
  121OSM   C15S12795   2.747   6.319   7.794  0.0241 -0.3036  0.4618
  121OSM   H15S12796   2.654   6.277   7.838 -0.7910  1.1312  0.1905
  121OSM   H15T12797   2.709   6.414   7.749 -0.3761 -0.0835  1.2435
  121OSM   C16S12798   2.836   6.363   7.912 -0.0135  0.8048  0.3730
  121OSM   H16S12799   2.787   6.452   7.957 -0.1458  1.2437 -0.6149
  121OSM   H16T12800   2.935   6.389   7.867  0.0926 -1.8102 -1.1148
  121OSM   C17S12801   2.873   6.252   8.015  0.7989  0.4032  0.0715
  121OSM   H17S12802   2.927   6.169   7.964  1.0215  0.1411  0.7306
  121OSM   H17T12803   2.782   6.209   8.063 -0.5658 -1.6173 -3.8235
  121OSM   C18S12804   2.966   6.306   8.123 -0.1377 -0.1244  0.3801
  121OSM   H18S12805   3.021   6.231   8.183  2.2989  0.1080 -1.4074
  121OSM   H18T12806   2.911   6.381   8.184  1.7647  1.1209  0.6386
  121OSM   H18U12807   3.048   6.360   8.070 -1.3358  2.7173  1.2090
  121OSM    C1F12808   2.318   5.889   6.482 -0.6294  0.0613  1.1296
  121OSM     OF12809   2.337   5.786   6.424 -0.3488  0.5730  0.3585
  121OSM    C2F12810   2.212   5.907   6.584  0.1525 -0.7934 -0.3539
  121OSM    H2F12811   2.119   5.887   6.526  0.3915 -0.7113 -0.7714
  121OSM    H2G12812   2.202   6.015   6.607  0.2996 -0.6448 -0.9575
  121OSM    C3F12813   2.230   5.829   6.707 -0.2294  0.5289  0.3377
  121OSM    H3F12814   2.321   5.865   6.761 -0.0755  0.3681  0.1871
  121OSM    H3G12815   2.251   5.721   6.692  1.2865  1.0021 -1.1697
  121OSM    C4F12816   2.117   5.852   6.812 -0.3366 -0.5958  0.3283
  121OSM    H4F12817   2.024   5.813   6.765 -1.8694  3.4402 -0.3492
  121OSM    H4G12818   2.111   5.958   6.845  0.3665  0.3268 -2.2583
  121OSM    C5F12819   2.143   5.771   6.940 -0.6637  0.3452 -0.1848
  121OSM    H5F12820   2.248   5.788   6.973 -0.4437 -0.7510 -0.2834
  121OSM    H5G12821   2.133   5.662   6.919 -1.2405 -0.3989  3.2890
  121OSM    C6F12822   2.048   5.804   7.057  0.0849  0.4740  0.7493
  121OSM    H6F12823   1.948   5.763   7.030  0.4996 -0.7971  1.0857
  121OSM    H6G12824   2.042   5.915   7.059  0.9877  0.6150 -1.2106
  121OSM    C7F12825   2.086   5.738   7.187 -0.2112  0.2777  0.6056
  121OSM    H7F12826   2.187   5.778   7.210 -0.7961  1.0617  1.9068
  121OSM    H7G12827   2.106   5.630   7.171 -0.2916  0.2774  0.5020
  121OSM    C8F12828   1.985   5.754   7.300  0.5847  0.1884  0.1911
  121OSM    H8F12829   1.890   5.710   7.265 -0.0826  0.8424  1.1218
  121OSM    H8G12830   1.960   5.861   7.321 -0.3293  0.1655 -0.7227
  121OSM    C9F12831   2.038   5.688   7.423 -0.1031 -0.2193 -0.2999
  121OSM    H9F12832   2.034   5.579   7.405 -1.9481  0.0509 -2.0047
  121OSM   C10F12833   2.114   5.743   7.518  0.3597  0.5230  0.0153
  121OSM   H10F12834   2.148   5.688   7.607  1.1597  1.3898  0.2648
  121OSM   C11F12835   2.150   5.893   7.518  0.4777  0.6519 -0.4304
  121OSM   H11F12836   2.159   5.939   7.417 -2.4471  1.8371 -0.2701
  121OSM   H11G12837   2.249   5.911   7.565 -0.1120 -0.1173  1.1625
  121OSM   C12F12838   2.046   5.974   7.596  0.6418  0.0982  0.2200
  121OSM   H12F12839   1.954   5.964   7.534  0.7327 -0.1116  0.1162
  121OSM   H12G12840   2.065   6.083   7.593 -2.5530  0.7481  0.1808
  121OSM   C13F12841   2.011   5.922   7.737 -0.0380  0.1768  0.6579
  121OSM   H13F12842   2.104   5.891   7.790  1.9135  3.2199 -0.6802
  121OSM   H13G12843   1.949   5.834   7.713 -0.9337  1.0605 -0.3616
  121OSM   C14F12844   1.936   6.022   7.824 -0.6800 -0.1173 -0.3930
  121OSM   H14F12845   1.859   6.076   7.764 -0.3705  0.3451 -0.3762
  121OSM   H14G12846   2.000   6.110   7.847  1.0961 -1.4778  0.0955
  121OSM   C15F12847   1.883   5.958   7.955  0.5599  0.8378  0.1717
  121OSM   H15F12848   1.971   5.922   8.011  0.8389 -0.0185 -0.7765
  121OSM   H15G12849   1.812   5.878   7.924  2.3117 -0.8010  0.2495
  121OSM   C16F12850   1.791   6.056   8.029  0.1548  0.0202  0.4329
  121OSM   H16F12851   1.713   6.097   7.962  1.9173  0.2572 -1.5644
  121OSM   H16G12852   1.849   6.147   8.055 -0.6345  0.6617 -0.0157
  121OSM   C17F12853   1.722   5.987   8.151  0.1080 -0.4230  0.2177
  121OSM   H17F12854   1.808   5.938   8.201  2.0803  0.3258 -2.2404
  121OSM   H17G12855   1.646   5.913   8.118  0.7798 -2.0281  2.0571
  121OSM   C18F12856   1.644   6.085   8.246  0.2179 -0.0606  0.3585
  121OSM   H18F12857   1.588   6.160   8.187  0.3206  1.5966  2.2741
  121OSM   H18G12858   1.723   6.144   8.298  1.1564  1.8546 -2.9249
  121OSM   H18H12859   1.573   6.020   8.302 -0.0988  0.4517  0.5624
  122OSM      N12860   6.125   0.672   6.022  0.0530  0.1717 -0.2411
  122OSM    C1512861   6.000   0.712   5.947  0.1060 -0.5577  0.1592
  122OSM   H15A12862   6.017   0.783   5.868  1.4479 -2.1169 -1.0469
  122OSM   H15B12863   5.935   0.763   6.016 -1.7643  0.0142 -1.8956
  122OSM   H15C12864   5.954   0.622   5.908 -0.9341  0.0896 -0.1439
  122OSM    C1412865   6.233   0.663   5.911  0.8040  0.0293 -0.6444
  122OSM   H14A12866   6.330   0.667   5.957  0.7279 -2.3119 -0.1272
  122OSM   H14B12867   6.232   0.758   5.860  0.2978  0.3657 -0.0168
  122OSM   H14C12868   6.216   0.569   5.860 -0.4855  0.2279 -0.6208
  122OSM    C1312869   6.171   0.798   6.093  0.2713 -0.5250 -0.0093
  122OSM   H13A12870   6.212   0.871   6.025 -1.3798  0.4315 -0.0456
  122OSM   H13B12871   6.253   0.780   6.160 -1.0438  1.8117  2.4435
  122OSM   H13C12872   6.103   0.850   6.159  1.8013  0.7632  0.6092
  122OSM    C1212873   6.100   0.555   6.110 -0.1840 -0.2091  0.2352
  122OSM   H12A12874   6.086   0.468   6.047  0.4857  0.5498 -0.9893
  122OSM   H12B12875   6.009   0.578   6.164 -0.2392  1.7710 -0.6055
  122OSM    C1112876   6.201   0.513   6.219  0.7801 -1.2356 -0.5425
  122OSM   H11A12877   6.174   0.418   6.269 -2.4718  1.1505  2.7720
  122OSM   H11B12878   6.189   0.577   6.309  0.9624  0.5277 -1.7188
  122OSM      P12879   6.459   0.583   6.209  0.2644 -0.1183  0.1115
  122OSM    O1312880   6.572   0.499   6.158  0.4668  0.1183  0.6794
  122OSM    O1412881   6.455   0.728   6.171  0.3575  1.2062  0.4174
  122OSM    O1112882   6.461   0.581   6.369 -0.0903  0.1736  0.0164
  122OSM    O1212883   6.331   0.511   6.169 -0.1128  0.8306 -0.3514
  122OSM    C1S12884   6.470   0.450   6.433  0.4962 -0.8205  0.3083
  122OSM    H1S12885   6.544   0.389   6.377  2.0942  0.9893  0.3608
  122OSM    H1T12886   6.365   0.413   6.435  0.3064 -0.4748 -1.7756
  122OSM     NF12887   6.558   0.337   6.638 -0.2307 -0.3819 -0.3888
  122OSM    HNF12888   6.509   0.296   6.715 -1.1428  1.7358  0.2249
  122OSM    C2S12889   6.507   0.465   6.585  0.5325  0.3658  0.5976
  122OSM    H2S12890   6.591   0.538   6.586 -0.0206  1.3670 -3.9243
  122OSM    C3S12891   6.379   0.510   6.667 -0.0970 -0.4061  0.2771
  122OSM    H3S12892   6.315   0.419   6.664  1.2723 -1.4307  0.9942
  122OSM     O312893   6.305   0.613   6.601  0.6996 -0.6167  0.6826
  122OSM    HO312894   6.351   0.626   6.518 -0.9510  3.0624  0.1491
  122OSM    C4S12895   6.420   0.545   6.807  0.4916 -0.3287 -0.8211
  122OSM    H4S12896   6.409   0.458   6.873  1.7343  1.0410  1.3236
  122OSM    C5S12897   6.427   0.666   6.863  0.0831  0.1605  0.0458
  122OSM    H5S12898   6.399   0.753   6.802  0.3800 -0.8408 -1.5947
  122OSM    C6S12899   6.460   0.694   7.010 -0.2598 -0.6906  0.0991
  122OSM    H6S12900   6.387   0.751   7.071 -1.2898 -1.7764 -0.0768
  122OSM    H6T12901   6.540   0.771   6.999 -1.9020  0.9126 -1.5642
  122OSM    C7S12902   6.504   0.584   7.099  0.2977  0.0611  0.3644
  122OSM    H7S12903   6.605   0.556   7.060  1.6255  3.4471  1.0642
  122OSM    H7T12904   6.442   0.492   7.093  0.3055  0.1146 -1.0163
  122OSM    C8S12905   6.520   0.642   7.237 -0.4473 -0.6420  0.1495
  122OSM    H8S12906   6.545   0.558   7.306  0.5889 -2.4928 -2.3096
  122OSM    H8T12907   6.418   0.675   7.263 -0.5597 -0.4501 -0.5348
  122OSM    C9S12908   6.621   0.756   7.244  0.0955 -0.1311  0.0488
  122OSM    H9S12909   6.566   0.852   7.254  1.2250  0.4371  1.0398
  122OSM    H9T12910   6.687   0.764   7.155  0.1927 -0.7609  0.0602
  122OSM   C10S12911   6.725   0.735   7.361  0.1711  1.0731 -0.2466
  122OSM   H10S12912   6.798   0.819   7.353  1.7428 -0.1484  0.6829
  122OSM   H10T12913   6.786   0.644   7.349 -0.6426  0.2646  1.3311
  122OSM   C11S12914   6.657   0.752   7.507 -0.5371  0.3927  0.3252
  122OSM   H11S12915   6.593   0.662   7.521  0.7539 -0.5247  0.3927
  122OSM   H11T12916   6.597   0.844   7.489 -2.2741 -0.6828  0.3289
  122OSM   C12S12917   6.771   0.761   7.609  0.4723  0.1065 -0.0828
  122OSM   H12S12918   6.836   0.842   7.571  1.4344 -1.1264 -1.1345
  122OSM   H12T12919   6.840   0.675   7.599  1.2033  0.7195 -0.3914
  122OSM   C13S12920   6.733   0.778   7.753 -0.1058  0.3604  0.4129
  122OSM   H13S12921   6.647   0.711   7.774 -1.2826  1.4335 -0.8120
  122OSM   H13T12922   6.689   0.879   7.767  0.8618  0.6701  1.4159
  122OSM   C14S12923   6.854   0.759   7.846 -0.6104 -0.2718  0.5417
  122OSM   H14S12924   6.934   0.834   7.824  2.8991 -2.5342  4.1221
  122OSM   H14T12925   6.903   0.664   7.816 -0.9542 -0.9137  1.9201
  122OSM   C15S12926   6.816   0.754   7.990 -0.6058 -0.5336  0.1882
  122OSM   H15S12927   6.751   0.666   8.009  0.2300 -1.2522 -0.2197
  122OSM   H15T12928   6.767   0.851   8.014  0.1970  0.1303 -0.7674
  122OSM   C16S12929   6.940   0.737   8.074 -0.7949  0.3935  0.5896
  122OSM   H16S12930   7.007   0.658   8.035 -1.0485 -0.5740  2.0250
  122OSM   H16T12931   6.907   0.693   8.171 -0.1688 -1.4998 -0.0127
  122OSM   C17S12932   7.020   0.860   8.096  0.9429  0.4851 -0.4852
  122OSM   H17S12933   6.961   0.943   8.141 -0.6755 -0.3152 -1.0495
  122OSM   H17T12934   7.066   0.888   7.999  0.2791  1.1311 -0.6257
  122OSM   C18S12935   7.150   0.842   8.176 -0.5787  0.3075 -0.1547
  122OSM   H18S12936   7.122   0.826   8.282  0.3598  0.1309  0.0717
  122OSM   H18T12937   7.216   0.929   8.155 -0.8531 -0.1374 -3.3510
  122OSM   H18U12938   7.200   0.749   8.138  1.0915  1.0383  0.1707
  122OSM    C1F12939   6.671   0.282   6.591  0.6184  0.3436 -0.1468
  122OSM     OF12940   6.736   0.347   6.511 -0.0229 -0.1670  0.5850
  122OSM    C2F12941   6.702   0.149   6.649 -0.0900 -1.1055 -0.7344
  122OSM    H2F12942   6.655   0.071   6.585  0.3806 -1.1847 -0.9839
  122OSM    H2G12943   6.647   0.142   6.745  0.9041 -2.4829 -0.2443
  122OSM    C3F12944   6.852   0.122   6.654  0.9702  0.3446 -0.7204
  122OSM    H3F12945   6.896   0.209   6.707  0.9444  1.5275 -2.5728
  122OSM    H3G12946   6.914   0.103   6.563  5.4040 -2.8273  2.4985
  122OSM    C4F12947   6.892  -0.004   6.736 -0.1386 -1.7400 -0.1632
  122OSM    H4F12948   7.003  -0.002   6.732 -0.1071 -0.8984  0.6439
  122OSM    H4G12949   6.847  -0.095   6.689 -2.4557 -0.1390 -1.2572
  122OSM    C5F12950   6.876   0.002   6.883  0.8530 -0.8312  0.3481
  122OSM    H5F12951   6.768  -0.016   6.903  1.0099  0.5025  2.6803
  122OSM    H5G12952   6.900   0.105   6.917 -2.1471 -0.8196  2.8432
  122OSM    C6F12953   6.971  -0.091   6.960 -0.0803  0.1958  0.3481
  122OSM    H6F12954   7.072  -0.067   6.921 -0.2689 -2.0792 -1.7858
  122OSM    H6G12955   6.943  -0.198   6.949  3.0014 -0.8342  1.4427
  122OSM    C7F12956   6.982  -0.052   7.108  0.3622 -0.1280  0.3255
  122OSM    H7F12957   6.892  -0.065   7.171  0.1430 -0.4171 -0.0496
  122OSM    H7G12958   7.017   0.054   7.116 -1.7391  0.6023  0.3367
  122OSM    C8F12959   7.094  -0.132   7.183 -0.1961 -0.2054  0.5585
  122OSM    H8F12960   7.119  -0.072   7.273  0.0340 -0.0901  0.4189
  122OSM    H8G12961   7.178  -0.131   7.110 -1.4001  0.2893 -0.8794
  122OSM    C9F12962   7.043  -0.271   7.198  0.5287 -0.0485 -0.1789
  122OSM    H9F12963   7.007  -0.315   7.104  1.0198  1.3227 -1.0464
  122OSM   C10F12964   7.040  -0.335   7.321  0.7287 -0.2427  1.6360
  122OSM   H10F12965   7.008  -0.440   7.317 -2.2648  0.6069 -0.4000
  122OSM   C11F12966   7.085  -0.283   7.459 -0.6953 -0.2800 -0.8592
  122OSM   H11F12967   7.126  -0.180   7.462 -1.1012 -0.1152  2.3932
  122OSM   H11G12968   7.167  -0.349   7.496 -1.7336 -0.6151  0.9577
  122OSM   C12F12969   6.982  -0.294   7.568 -0.1982 -0.6208  0.3961
  122OSM   H12F12970   7.019  -0.275   7.671 -0.8274  0.8973  0.3651
  122OSM   H12G12971   6.929  -0.392   7.561  0.5823 -1.0707  0.7349
  122OSM   C13F12972   6.870  -0.191   7.535 -0.5786  0.0135 -0.0094
  122OSM   H13F12973   6.820  -0.235   7.446 -2.3282  0.8921  0.4845
  122OSM   H13G12974   6.914  -0.094   7.504  1.0016 -0.8021 -0.4177
  122OSM   C14F12975   6.752  -0.183   7.635 -0.2260 -0.6068  0.6915
  122OSM   H14F12976   6.720  -0.285   7.663 -0.1884 -0.2703  2.0245
  122OSM   H14G12977   6.672  -0.134   7.576 -0.1351 -1.0133  0.2255
  122OSM   C15F12978   6.783  -0.105   7.759  0.2518  0.1119  0.1552
  122OSM   H15F12979   6.827  -0.006   7.736 -1.0487  0.3049 -1.7152
  122OSM   H15G12980   6.835  -0.168   7.834 -2.1207 -1.5243  0.5397
  122OSM   C16F12981   6.657  -0.069   7.840 -0.1169 -0.4116 -0.5133
  122OSM   H16F12982   6.577  -0.034   7.772 -0.7080  1.1554  0.9245
  122OSM   H16G12983   6.683   0.007   7.916 -1.4814  0.3750 -0.7931
  122OSM   C17F12984   6.599  -0.201   7.905  0.4940 -0.3728 -0.3466
  122OSM   H17F12985   6.681  -0.259   7.953  0.7403 -0.0096 -0.3199
  122OSM   H17G12986   6.556  -0.256   7.819 -0.1134 -0.7824  0.2112
  122OSM   C18F12987   6.473  -0.179   7.998  0.5554  0.1441 -0.4817
  122OSM   H18F12988   6.482  -0.120   8.092 -2.6773 -0.7359  0.5133
  122OSM   H18G12989   6.421  -0.275   8.018 -0.2009  0.3809 -1.2620
  122OSM   H18H12990   6.393  -0.129   7.939 -2.2032  1.6590  4.0565
  123OSM      N12991   5.407   3.118   6.211 -0.1073 -0.1991 -0.5900
  123OSM    C1512992   5.274   3.144   6.141 -0.1374 -0.1270  0.4112
  123OSM   H15A12993   5.211   3.061   6.169 -0.4721  0.0889  0.2905
  123OSM   H15B12994   5.294   3.135   6.035  0.5820  0.4386  0.4927
  123OSM   H15C12995   5.223   3.236   6.165  2.0180  1.5040 -0.8328
  123OSM    C1412996   5.453   2.981   6.168  0.1948 -0.5126  0.3341
  123OSM   H14A12997   5.375   2.911   6.193  0.1957 -1.5139 -2.1923
  123OSM   H14B12998   5.542   2.962   6.227  0.6123 -1.3879 -0.5519
  123OSM   H14C12999   5.475   2.973   6.062  0.2282  2.4478  0.0126
  123OSM    C1313000   5.507   3.223   6.175  0.2327 -0.5308  0.1068
  123OSM   H13A13001   5.601   3.188   6.212 -0.4864 -0.1219  2.5070
  123OSM   H13B13002   5.479   3.316   6.224  0.7055 -0.3538  0.0495
  123OSM   H13C13003   5.512   3.239   6.068 -0.6756 -2.0165 -0.1859
  123OSM    C1213004   5.385   3.127   6.359  0.0042 -0.3893  0.0631
  123OSM   H12A13005   5.302   3.061   6.382  1.7762 -2.5366  0.6890
  123OSM   H12B13006   5.340   3.222   6.381  1.2642 -0.0295  1.1908
  123OSM    C1113007   5.500   3.095   6.454  0.2233  0.9187  0.7594
  123OSM   H11A13008   5.465   3.103   6.559 -0.5498 -0.5131  0.6289
  123OSM   H11B13009   5.589   3.160   6.443  2.2676 -1.5353  1.7251
  123OSM      P13010   5.472   2.833   6.500  0.4925 -0.0345  0.4396
  123OSM    O1313011   5.339   2.837   6.440 -0.2353 -0.1826 -0.3134
  123OSM    O1413012   5.556   2.714   6.480 -0.4475 -0.1123 -0.1247
  123OSM    O1113013   5.450   2.867   6.650 -0.2754  0.4469 -0.0163
  123OSM    O1213014   5.556   2.962   6.438  0.3517  0.2560  0.0619
  123OSM    C1S13015   5.561   2.875   6.740  0.1828 -0.3852 -0.3967
  123OSM    H1S13016   5.592   2.981   6.751  1.8582 -0.7326 -1.3821
  123OSM    H1T13017   5.639   2.798   6.718 -1.0450 -1.2593 -1.9145
  123OSM     NF13018   5.627   2.848   6.980 -0.0703 -0.0715  0.2414
  123OSM    HNF13019   5.650   2.761   7.024 -0.2945 -0.0433  0.4186
  123OSM    C2S13020   5.514   2.839   6.887 -0.2206  0.1362 -0.1079
  123OSM    H2S13021   5.440   2.917   6.917  0.1243  0.1560  0.7232
  123OSM    C3S13022   5.444   2.700   6.896  0.0389 -0.4494  0.4968
  123OSM    H3S13023   5.508   2.619   6.855  0.5231  1.5138 -3.0170
  123OSM     O313024   5.334   2.695   6.806 -0.1232  0.4186  0.0889
  123OSM    HO313025   5.358   2.762   6.742 -2.4192  1.3401  0.0810
  123OSM    C4S13026   5.393   2.689   7.040  0.4232 -0.2286  0.5193
  123OSM    H4S13027   5.471   2.642   7.102 -0.3437 -2.7332 -0.2661
  123OSM    C5S13028   5.272   2.727   7.096  0.8780  0.2215  0.7408
  123OSM    H5S13029   5.191   2.766   7.031  0.8285 -1.3402 -0.1746
  123OSM    C6S13030   5.243   2.716   7.242  0.7628 -0.7694 -0.3274
  123OSM    H6S13031   5.156   2.650   7.260 -0.7200  1.4987  1.3951
  123OSM    H6T13032   5.214   2.816   7.281 -0.5504 -0.3162 -2.3003
  123OSM    C7S13033   5.347   2.657   7.326 -0.0122  0.7011 -0.7169
  123OSM    H7S13034   5.446   2.701   7.304  1.2751 -2.0293 -0.8951
  123OSM    H7T13035   5.349   2.554   7.284 -0.8455  0.8380 -1.1111
  123OSM    C8S13036   5.318   2.651   7.481 -0.4079 -0.5027  0.8904
  123OSM    H8S13037   5.212   2.617   7.484 -0.4516 -0.3075  3.0137
  123OSM    H8T13038   5.334   2.753   7.522  2.5470 -0.6718  0.3573
  123OSM    C9S13039   5.408   2.552   7.556  0.2159  0.1981  0.1872
  123OSM    H9S13040   5.509   2.597   7.568  1.4422 -2.6594  1.5553
  123OSM    H9T13041   5.417   2.458   7.496  1.7203 -0.0745  0.7762
  123OSM   C10S13042   5.348   2.514   7.696  0.3404  0.2653  0.4319
  123OSM   H10S13043   5.329   2.605   7.755 -1.7527  1.1464 -1.4509
  123OSM   H10T13044   5.426   2.452   7.745  1.6721 -0.2408 -2.1427
  123OSM   C11S13045   5.215   2.434   7.691  0.2429  0.0865  0.3229
  123OSM   H11S13046   5.237   2.338   7.640 -2.1257 -0.4348  0.1702
  123OSM   H11T13047   5.147   2.478   7.616  1.7039  0.2398 -0.9690
  123OSM   C12S13048   5.144   2.402   7.821 -0.0869  0.4653  0.0280
  123OSM   H12S13049   5.046   2.353   7.806 -0.5325  1.2534  0.2936
  123OSM   H12T13050   5.119   2.495   7.878 -1.2901  0.3894 -0.3487
  123OSM   C13S13051   5.225   2.323   7.924  0.4379  0.4954  0.4904
  123OSM   H13S13052   5.317   2.380   7.951 -0.0833  1.0296  1.1566
  123OSM   H13T13053   5.244   2.226   7.872 -1.2701  0.7000 -0.5915
  123OSM   C14S13054   5.162   2.277   8.060  0.1057 -0.2201 -0.3250
  123OSM   H14S13055   5.074   2.214   8.034 -0.6680  1.6811 -2.6684
  123OSM   H14T13056   5.120   2.367   8.110 -1.4865 -0.6254 -0.8704
  123OSM   C15S13057   5.266   2.215   8.160  0.0842 -0.0202  0.4339
  123OSM   H15S13058   5.346   2.289   8.180  0.8414 -0.2572 -1.4911
  123OSM   H15T13059   5.309   2.119   8.122 -0.0883  0.2689 -0.5154
  123OSM   C16S13060   5.214   2.177   8.301 -0.0900  0.2896 -0.0825
  123OSM   H16S13061   5.176   2.272   8.345  0.7079  1.8990 -2.6325
  123OSM   H16T13062   5.302   2.141   8.359  2.2326  3.8333 -1.0898
  123OSM   C17S13063   5.113   2.060   8.315  0.2826 -0.0126  0.4752
  123OSM   H17S13064   5.156   1.960   8.294  0.4664  0.2750 -0.6193
  123OSM   H17T13065   5.031   2.065   8.239  1.2177 -1.9341 -0.7514
  123OSM   C18S13066   5.066   2.061   8.459  0.8352  0.6027 -0.7329
  123OSM   H18S13067   5.154   2.051   8.527 -0.1662 -0.2053  0.4972
  123OSM   H18T13068   4.993   1.982   8.487  1.7630  0.0951  0.3972
  123OSM   H18U13069   5.014   2.154   8.490  0.8847  0.6394 -0.7596
  123OSM    C1F13070   5.678   2.964   7.021 -0.3663  0.0049  0.6730
  123OSM     OF13071   5.635   3.070   6.979  0.2426  0.2619 -0.0059
  123OSM    C2F13072   5.781   2.961   7.118  0.2493 -0.1473  0.4107
  123OSM    H2F13073   5.869   3.012   7.074  1.3080 -2.5449 -0.4075
  123OSM    H2G13074   5.804   2.854   7.135  0.8882  0.1655  1.7130
  123OSM    C3F13075   5.750   3.032   7.256  0.9812  0.2521 -0.4018
  123OSM    H3F13076   5.710   3.134   7.237  2.0964  0.5074 -1.4653
  123OSM    H3G13077   5.840   3.047   7.319  0.7131 -0.5570  0.2018
  123OSM    C4F13078   5.654   2.941   7.328  0.0859  0.4441 -1.0814
  123OSM    H4F13079   5.680   2.836   7.303 -0.3804  0.4949 -1.7993
  123OSM    H4G13080   5.552   2.963   7.290 -0.2394 -0.3605 -0.7058
  123OSM    C5F13081   5.655   2.970   7.479  0.1322  0.0561  0.1524
  123OSM    H5F13082   5.550   2.968   7.514  0.2892 -0.6125  0.6076
  123OSM    H5G13083   5.699   3.070   7.498 -0.1526  0.5739 -1.6706
  123OSM    C6F13084   5.722   2.870   7.572 -0.5195  0.9560 -0.3506
  123OSM    H6F13085   5.831   2.880   7.553 -0.5747  1.8912 -0.2241
  123OSM    H6G13086   5.692   2.767   7.543 -0.4898  0.8636 -0.0514
  123OSM    C7F13087   5.695   2.899   7.717  0.6454 -0.4266  0.4744
  123OSM    H7F13088   5.585   2.894   7.732  0.4563 -1.0172 -0.9581
  123OSM    H7G13089   5.719   3.006   7.735 -0.1181  0.1671 -1.7456
  123OSM    C8F13090   5.761   2.811   7.812  0.7269 -0.7342  0.1383
  123OSM    H8F13091   5.752   2.861   7.911  3.1742  3.8485 -1.6499
  123OSM    H8G13092   5.868   2.813   7.780  0.4465 -2.3690 -1.0243
  123OSM    C9F13093   5.720   2.669   7.805 -0.5023  0.0252  0.6900
  123OSM    H9F13094   5.765   2.609   7.725 -1.0554 -0.5319  0.7893
  123OSM   C10F13095   5.635   2.606   7.889 -0.6113  0.1831  0.7257
  123OSM   H10F13096   5.613   2.500   7.866 -0.7471  0.6323 -1.4488
  123OSM   C11F13097   5.560   2.663   8.007  0.0055 -0.5434 -0.8287
  123OSM   H11F13098   5.457   2.697   7.986 -0.4772 -1.8043 -0.5751
  123OSM   H11G13099   5.620   2.747   8.048  3.2598 -2.8336 -0.4583
  123OSM   C12F13100   5.572   2.572   8.129  0.5221  0.1191  0.0905
  123OSM   H12F13101   5.678   2.549   8.153  0.3989  0.1417  0.6560
  123OSM   H12G13102   5.518   2.476   8.110 -0.5567  0.6964  0.1646
  123OSM   C13F13103   5.504   2.650   8.243  0.9910  0.0217  0.5831
  123OSM   H13F13104   5.405   2.682   8.203  0.8944 -0.1516  0.6834
  123OSM   H13G13105   5.566   2.738   8.271  1.6261 -0.5832  1.1059
  123OSM   C14F13106   5.499   2.564   8.369  0.0928 -0.9621  0.1254
  123OSM   H14F13107   5.605   2.552   8.401  0.0686 -1.4976  0.0054
  123OSM   H14G13108   5.454   2.463   8.364  0.6674 -1.2137 -0.1288
  123OSM   C15F13109   5.447   2.649   8.489 -0.8344 -0.4941  0.2288
  123OSM   H15F13110   5.516   2.736   8.487 -0.5562 -0.6814  1.1193
  123OSM   H15G13111   5.466   2.601   8.588  0.9223  1.5017  0.9428
  123OSM   C16F13112   5.311   2.715   8.465 -0.6440  0.1718 -0.1444
  123OSM   H16F13113   5.240   2.630   8.466  0.8879 -1.1694  0.6687
  123OSM   H16G13114   5.312   2.779   8.373 -0.3653 -0.2079 -0.4116
  123OSM   C17F13115   5.267   2.809   8.578 -0.3117 -0.0018  0.3049
  123OSM   H17F13116   5.282   2.740   8.664  2.1163  1.4785  1.1531
  123OSM   H17G13117   5.158   2.834   8.577 -1.0701 -2.6929 -2.9366
  123OSM   C18F13118   5.343   2.943   8.593 -0.1786  0.0904  0.0277
  123OSM   H18F13119   5.453   2.946   8.583  0.0653  1.5380  2.3722
  123OSM   H18G13120   5.322   2.980   8.696 -2.7852  0.8982 -0.7258
  123OSM   H18H13121   5.300   3.008   8.514 -2.3240 -0.6972  0.4708
  124OSM      N13122   1.035   4.382   6.004 -0.0395 -0.8975  0.2670
  124OSM    C1513123   1.163   4.352   5.931 -0.3528 -0.5315 -0.2831
  124OSM   H15A13124   1.209   4.444   5.896  0.1779 -0.3140  0.9123
  124OSM   H15B13125   1.152   4.289   5.844  0.1862 -0.5841 -0.3209
  124OSM   H15C13126   1.238   4.305   5.993  0.5031  0.1229 -0.7989
  124OSM    C1413127   0.930   4.424   5.909 -0.2768  0.9368 -0.2183
  124OSM   H14A13128   0.959   4.504   5.841  1.6631 -0.2527 -0.8493
  124OSM   H14B13129   0.840   4.460   5.956  0.4130  2.7698 -0.1935
  124OSM   H14C13130   0.907   4.340   5.846  1.1007 -0.2059  0.7570
  124OSM    C1313131   0.978   4.268   6.075  0.0790  0.2596  0.7645
  124OSM   H13A13132   1.054   4.245   6.148  1.0147  2.9908  0.7832
  124OSM   H13B13133   0.965   4.187   6.004  0.6863  1.5547 -0.9155
  124OSM   H13C13134   0.894   4.304   6.131 -0.3149 -0.3875  0.5960
  124OSM    C1213135   1.060   4.495   6.106  0.3670 -0.5963  1.3098
  124OSM   H12A13136   1.088   4.587   6.057  1.5364 -1.9609 -0.7469
  124OSM   H12B13137   1.148   4.477   6.166  1.5386  0.8936  0.1303
  124OSM    C1113138   0.950   4.535   6.207  0.1135 -0.2715 -0.4198
  124OSM   H11A13139   0.997   4.619   6.263 -0.5127  0.5838 -1.1536
  124OSM   H11B13140   0.934   4.458   6.285  0.6511  0.2362  0.2048
  124OSM      P13141   0.691   4.517   6.179  0.2316 -0.1030 -0.1193
  124OSM    O1313142   0.586   4.610   6.127 -0.1712  0.1620  0.4700
  124OSM    O1413143   0.681   4.379   6.128 -0.2861 -0.1199  0.0527
  124OSM    O1113144   0.681   4.517   6.337  0.3380 -1.0843 -0.5258
  124OSM    O1213145   0.827   4.577   6.136  0.3978  0.1187  0.5703
  124OSM    C1S13146   0.708   4.629   6.423  0.0893  0.5835 -0.2152
  124OSM    H1S13147   0.627   4.704   6.417 -1.6131 -1.2707 -3.0587
  124OSM    H1T13148   0.804   4.677   6.392  0.5056 -0.2545 -0.2575
  124OSM     NF13149   0.724   4.675   6.663 -0.1096  0.5874 -0.7082
  124OSM    HNF13150   0.808   4.698   6.713 -0.0833  4.1529 -2.1442
  124OSM    C2S13151   0.723   4.568   6.562 -0.3114  0.2431 -0.0567
  124OSM    H2S13152   0.638   4.504   6.594  0.3891 -1.1934 -0.9193
  124OSM    C3S13153   0.836   4.463   6.568  0.5221  0.4755  0.0053
  124OSM    H3S13154   0.929   4.508   6.527 -0.6061  1.5943 -1.4328
  124OSM     O313155   0.812   4.344   6.491  0.2374  0.1177 -0.9639
  124OSM    HO313156   0.741   4.373   6.433 -1.3223 -0.2517  0.6615
  124OSM    C4S13157   0.868   4.427   6.713  0.4487 -0.8046  0.1785
  124OSM    H4S13158   0.930   4.502   6.765 -0.9907 -0.0364  0.8653
  124OSM    C5S13159   0.823   4.322   6.788 -0.0176  0.8511  0.2425
  124OSM    H5S13160   0.738   4.264   6.748  0.8284  0.2358 -0.6861
  124OSM    C6S13161   0.858   4.304   6.932 -0.2021  0.0606 -0.2198
  124OSM    H6S13162   0.940   4.231   6.952 -0.0173  0.0261 -1.0495
  124OSM    H6T13163   0.769   4.260   6.983 -1.4298 -0.3979 -2.5798
  124OSM    C7S13164   0.904   4.426   7.015 -0.2214 -0.3658  0.2155
  124OSM    H7S13165   0.834   4.512   7.018  0.4550  0.1770  1.9077
  124OSM    H7T13166   0.991   4.463   6.957  0.5876 -1.2030  0.8543
  124OSM    C8S13167   0.958   4.383   7.151 -0.1519  0.4095  0.4988
  124OSM    H8S13168   1.010   4.473   7.189 -0.9268  1.8053 -1.5773
  124OSM    H8T13169   1.027   4.297   7.139 -0.7160 -0.0079  0.2068
  124OSM    C9S13170   0.835   4.345   7.237  0.8197  0.0401  0.3925
  124OSM    H9S13171   0.815   4.243   7.197  2.9667 -0.4394  0.3936
  124OSM    H9T13172   0.751   4.412   7.211 -1.2315 -2.9049 -1.1949
  124OSM   C10S13173   0.851   4.329   7.389  0.4025 -0.2772 -0.2853
  124OSM   H10S13174   0.902   4.413   7.440 -0.9438 -0.9510  2.3617
  124OSM   H10T13175   0.910   4.237   7.408  1.1350  0.5115  1.4483
  124OSM   C11S13176   0.715   4.310   7.457 -0.3147 -0.1518 -0.5320
  124OSM   H11S13177   0.666   4.216   7.423 -2.2888  0.6657 -0.0577
  124OSM   H11T13178   0.649   4.395   7.432  0.8371  1.3332  1.2203
  124OSM   C12S13179   0.715   4.300   7.612 -0.1226  0.2544 -0.5810
  124OSM   H12S13180   0.765   4.380   7.670  0.2719 -0.4286  0.0430
  124OSM   H12T13181   0.772   4.211   7.647  0.1802  0.7195  0.1268
  124OSM   C13S13182   0.571   4.295   7.672 -0.7814  0.3683  0.1161
  124OSM   H13S13183   0.519   4.220   7.609 -0.1952 -0.2661  0.3815
  124OSM   H13T13184   0.517   4.391   7.654  1.6409  1.2500 -3.7097
  124OSM   C14S13185   0.582   4.273   7.821  0.0256  0.2005 -0.6754
  124OSM   H14S13186   0.675   4.314   7.866 -1.0761  1.1520  0.8442
  124OSM   H14T13187   0.583   4.163   7.837  0.2263 -0.4152 -4.2276
  124OSM   C15S13188   0.474   4.324   7.915  0.5989 -0.2943  0.0475
  124OSM   H15S13189   0.373   4.307   7.870  0.3592 -0.9182  0.8011
  124OSM   H15T13190   0.491   4.431   7.939  1.5106 -0.2491 -0.7677
  124OSM   C16S13191   0.495   4.256   8.046 -0.9435 -0.4006 -0.8126
  124OSM   H16S13192   0.602   4.229   8.061 -0.9732  0.3014  0.9694
  124OSM   H16T13193   0.444   4.159   8.031  0.4292 -1.2564 -0.1201
  124OSM   C17S13194   0.468   4.340   8.172  0.2813 -0.4012 -0.0112
  124OSM   H17S13195   0.364   4.378   8.181 -0.1125 -1.9378  4.6461
  124OSM   H17T13196   0.533   4.431   8.176  1.6717 -1.2785 -1.7044
  124OSM   C18S13197   0.500   4.270   8.302  0.0378 -0.2062 -0.4327
  124OSM   H18S13198   0.475   4.162   8.303  0.1257 -0.2431  1.1562
  124OSM   H18T13199   0.442   4.315   8.386 -0.4498  0.8285 -1.3031
  124OSM   H18U13200   0.609   4.284   8.314  0.4560 -0.5652 -3.1438
  124OSM    C1F13201   0.617   4.753   6.686 -0.2683 -0.4740 -0.4010
  124OSM     OF13202   0.507   4.721   6.656  0.7670  0.2315 -0.0355
  124OSM    C2F13203   0.643   4.878   6.759 -0.0557  0.2012 -0.2636
  124OSM    H2F13204   0.548   4.924   6.794  0.8914  1.3478  0.9267
  124OSM    H2G13205   0.694   4.956   6.699 -2.9595  1.9884 -0.6311
  124OSM    C3F13206   0.726   4.862   6.890  0.7270 -0.6820 -0.4202
  124OSM    H3F13207   0.756   4.963   6.926 -2.8545  1.0496 -1.7725
  124OSM    H3G13208   0.811   4.796   6.865  0.2324 -0.7316 -2.1075
  124OSM    C4F13209   0.645   4.791   7.006  0.4932  0.3177 -0.0180
  124OSM    H4F13210   0.615   4.690   6.970  2.4304  0.1140 -1.2247
  124OSM    H4G13211   0.547   4.835   7.032  0.8060  0.0187  1.8759
  124OSM    C5F13212   0.740   4.797   7.133  0.2357  0.1325  0.0940
  124OSM    H5F13213   0.782   4.898   7.151  5.1668 -1.1002 -2.6713
  124OSM    H5G13214   0.827   4.734   7.104 -0.5813 -0.8175 -0.3648
  124OSM    C6F13215   0.673   4.740   7.255 -0.2162  0.0148 -0.5890
  124OSM    H6F13216   0.618   4.647   7.230  0.3333  0.1030 -2.2131
  124OSM    H6G13217   0.600   4.820   7.282 -0.2836  0.1960 -1.2840
  124OSM    C7F13218   0.774   4.700   7.368  0.4752  0.4689  0.5897
  124OSM    H7F13219   0.839   4.789   7.384  1.4246 -0.2068  0.5301
  124OSM    H7G13220   0.837   4.619   7.327  1.2475  1.1210  0.4602
  124OSM    C8F13221   0.718   4.656   7.504 -0.3949 -0.0992 -0.2422
  124OSM    H8F13222   0.771   4.574   7.557 -0.4497  0.6774  1.0686
  124OSM    H8G13223   0.612   4.625   7.489 -1.1147  0.5702  2.7472
  124OSM    C9F13224   0.702   4.767   7.603  0.4659 -0.0198 -0.2750
  124OSM    H9F13225   0.687   4.865   7.555 -0.5218  0.3755  0.7703
  124OSM   C10F13226   0.708   4.769   7.738 -0.4759 -0.3240  0.2328
  124OSM   H10F13227   0.697   4.865   7.789  1.2532 -0.1458  0.3251
  124OSM   C11F13228   0.724   4.649   7.825  0.1403  0.2299 -0.5324
  124OSM   H11F13229   0.779   4.572   7.767  0.6470 -0.8557  1.3042
  124OSM   H11G13230   0.623   4.617   7.857 -1.2960  1.7935 -3.1134
  124OSM   C12F13231   0.793   4.675   7.957 -0.1418 -0.4867  0.3413
  124OSM   H12F13232   0.738   4.749   8.019 -0.1337 -0.0026 -0.2221
  124OSM   H12G13233   0.895   4.719   7.947 -0.1733 -0.2112  1.1600
  124OSM   C13F13234   0.809   4.547   8.041  0.4310 -0.4550  0.2099
  124OSM   H13F13235   0.839   4.461   7.977 -0.2271 -1.0348  0.6620
  124OSM   H13G13236   0.710   4.523   8.086 -0.6296 -2.8185 -3.0242
  124OSM   C14F13237   0.914   4.549   8.151  0.2103 -0.5300  0.1028
  124OSM   H14F13238   0.893   4.645   8.203 -2.1403 -0.6598 -0.4840
  124OSM   H14G13239   1.016   4.546   8.106  1.3302 -1.0783  2.5291
  124OSM   C15F13240   0.898   4.430   8.242  0.2768  0.2294  0.3845
  124OSM   H15F13241   0.894   4.341   8.175  0.9359 -0.1487  0.8305
  124OSM   H15G13242   0.805   4.443   8.301 -1.1537 -0.4791 -1.5944
  124OSM   C16F13243   1.016   4.424   8.340 -0.4728  0.2088  0.1673
  124OSM   H16F13244   1.046   4.531   8.350 -1.2345  0.7171 -2.2024
  124OSM   H16G13245   1.101   4.367   8.296 -1.4149 -0.9023 -0.2418
  124OSM   C17F13246   0.972   4.371   8.474  0.2429  0.0099 -0.5249
  124OSM   H17F13247   0.902   4.442   8.522  1.9269 -0.6582  3.3699
  124OSM   H17G13248   1.065   4.361   8.534  1.9907 -1.3547 -3.2391
  124OSM   C18F13249   0.918   4.228   8.458  0.1868 -0.0469  0.5002
  124OSM   H18F13250   0.878   4.190   8.555  0.5514  2.6551  1.8149
  124OSM   H18G13251   1.002   4.159   8.434  0.7206  0.6258  0.4103
  124OSM   H18H13252   0.841   4.222   8.379 -0.4730 -0.1633  1.1371
  125OSM      N13253   3.659   3.876   6.051 -0.4926  0.3454 -0.2198
  125OSM    C1513254   3.534   3.954   6.053 -0.2211 -0.1301  0.0130
  125OSM   H15A13255   3.452   3.884   6.063 -0.3137  0.1909  2.0358
  125OSM   H15B13256   3.515   4.027   5.976  2.3368 -0.4479 -0.9928
  125OSM   H15C13257   3.528   4.016   6.141  0.6384 -1.7464  1.2648
  125OSM    C1413258   3.672   3.796   6.178  0.0385 -0.2909  0.0136
  125OSM   H14A13259   3.754   3.725   6.174  1.9242  1.8310 -0.7499
  125OSM   H14B13260   3.590   3.726   6.192 -0.4316  0.4266  0.8720
  125OSM   H14C13261   3.690   3.860   6.263  0.3975  0.5782 -0.7008
  125OSM    C1313262   3.656   3.770   5.949 -0.1662 -1.0294  0.4167
  125OSM   H13A13263   3.569   3.707   5.939  0.2414 -1.3227 -1.7985
  125OSM   H13B13264   3.739   3.703   5.962  0.3898 -0.5849 -0.7309
  125OSM   H13C13265   3.665   3.808   5.848 -1.2782 -0.1291  0.6372
  125OSM    C1213266   3.777   3.973   6.028  0.0510 -0.1965 -0.5756
  125OSM   H12A13267   3.762   4.012   5.929  0.2813 -1.2897 -1.0568
  125OSM   H12B13268   3.868   3.914   6.024  0.4350  0.4510 -1.8443
  125OSM    C1113269   3.796   4.092   6.122 -0.0727  0.0406  0.1963
  125OSM   H11A13270   3.701   4.148   6.136 -0.6534 -1.4198  3.0838
  125OSM   H11B13271   3.880   4.160   6.098  0.3451 -0.0619  1.2888
  125OSM      P13272   3.974   4.024   6.296 -0.4218  0.2800  0.0961
  125OSM    O1313273   4.012   3.890   6.245 -0.1233 -0.3621  0.2101
  125OSM    O1413274   4.066   4.134   6.254 -0.0794  0.2643  0.0246
  125OSM    O1113275   3.978   4.035   6.455 -0.0807  0.3855  0.2786
  125OSM    O1213276   3.816   4.038   6.258  0.3763  0.0148  0.3265
  125OSM    C1S13277   4.065   3.962   6.534 -0.4235 -0.0107  0.0325
  125OSM    H1S13278   4.170   3.973   6.499 -0.3004  2.3688  0.9658
  125OSM    H1T13279   4.039   3.854   6.539 -1.3501  0.1463 -0.9985
  125OSM     NF13280   4.136   3.925   6.766 -0.4536 -0.5891 -0.4041
  125OSM    HNF13281   4.080   3.865   6.823  2.1312 -1.8435  0.9957
  125OSM    C2S13282   4.062   4.021   6.670 -0.3207  0.3340 -0.8993
  125OSM    H2S13283   4.117   4.117   6.671 -0.9179  0.7107  1.0016
  125OSM    C3S13284   3.911   4.058   6.713 -0.0879 -0.6031  0.1204
  125OSM    H3S13285   3.850   3.965   6.711 -0.8353 -0.1558  1.0795
  125OSM     O313286   3.838   4.163   6.636  0.1771 -0.3693  0.2637
  125OSM    HO313287   3.898   4.191   6.566  0.5280  0.4308  0.8629
  125OSM    C4S13288   3.910   4.108   6.854 -0.5078  0.3273 -0.1334
  125OSM    H4S13289   4.001   4.166   6.879 -1.4981  2.5410 -1.3676
  125OSM    C5S13290   3.815   4.104   6.949  0.3041 -0.3362  1.1307
  125OSM    H5S13291   3.730   4.035   6.938 -0.4843  0.7696 -0.0800
  125OSM    C6S13292   3.834   4.169   7.087 -0.2733 -0.1466 -0.9589
  125OSM    H6S13293   3.740   4.225   7.106 -1.1373 -1.7271 -0.3252
  125OSM    H6T13294   3.922   4.236   7.087 -1.2688  1.2130  0.0222
  125OSM    C7S13295   3.863   4.067   7.196  0.1407 -0.5626 -0.2621
  125OSM    H7S13296   3.930   3.985   7.164  0.7056 -0.0216 -0.4878
  125OSM    H7T13297   3.769   4.015   7.224  1.6345 -3.0630  0.4581
  125OSM    C8S13298   3.924   4.125   7.323  0.6291 -0.5436  0.0154
  125OSM    H8S13299   3.873   4.221   7.347  0.4314 -0.5569 -0.3413
  125OSM    H8T13300   4.032   4.144   7.306  1.0522 -0.5322  2.3171
  125OSM    C9S13301   3.904   4.036   7.445 -0.3560 -0.0310 -0.4168
  125OSM    H9S13302   3.997   3.981   7.470 -0.1392  0.9954  1.2113
  125OSM    H9T13303   3.822   3.966   7.420 -1.1421  0.9948 -0.7916
  125OSM   C10S13304   3.847   4.109   7.562  0.2575 -0.5582  0.1061
  125OSM   H10S13305   3.756   4.164   7.529  2.1436  2.2250 -0.8119
  125OSM   H10T13306   3.911   4.189   7.607 -1.7073 -0.6750  3.4691
  125OSM   C11S13307   3.833   4.020   7.695  0.7823 -0.7805  0.8163
  125OSM   H11S13308   3.762   3.935   7.686  0.5035 -0.5270  0.5772
  125OSM   H11T13309   3.774   4.082   7.766  0.8684 -2.3370  2.3241
  125OSM   C12S13310   3.960   3.973   7.756 -0.7569 -0.0016 -0.4586
  125OSM   H12S13311   4.043   4.047   7.752 -1.0065  0.2331 -1.4166
  125OSM   H12T13312   3.994   3.892   7.688 -1.5677  0.7020 -1.7383
  125OSM   C13S13313   3.957   3.919   7.901  0.7422  0.8534 -0.5057
  125OSM   H13S13314   4.053   3.871   7.930  0.8283  1.5021  0.2939
  125OSM   H13T13315   3.881   3.839   7.896  0.5695  0.9315  0.7663
  125OSM   C14S13316   3.918   4.024   8.011  0.6259 -0.2955  0.0737
  125OSM   H14S13317   3.824   4.070   7.973  0.6721  0.7077  1.1087
  125OSM   H14T13318   3.994   4.103   8.031 -0.5105  0.4114  1.9302
  125OSM   C15S13319   3.881   3.964   8.149 -0.2174  0.8770  0.2411
  125OSM   H15S13320   3.978   3.921   8.181 -1.0585  0.7979  2.9683
  125OSM   H15T13321   3.819   3.873   8.133  4.5252 -3.7439  4.4065
  125OSM   C16S13322   3.840   4.044   8.269 -0.0872  0.1343  0.1489
  125OSM   H16S13323   3.731   4.062   8.259 -0.3565 -0.4573  1.6881
  125OSM   H16T13324   3.893   4.141   8.278 -0.7818  0.4869  0.5526
  125OSM   C17S13325   3.873   3.959   8.391 -0.1257  0.0848 -0.1628
  125OSM   H17S13326   3.851   4.028   8.476 -0.7795 -1.3112  0.8423
  125OSM   H17T13327   3.980   3.932   8.404  1.1901  4.3141 -0.6226
  125OSM   C18S13328   3.790   3.828   8.413  0.2958  0.8300  0.6219
  125OSM   H18S13329   3.831   3.743   8.355 -1.8806  1.2219 -1.6502
  125OSM   H18T13330   3.684   3.832   8.381 -0.2450  1.3888  2.3713
  125OSM   H18U13331   3.809   3.803   8.519  0.2883 -1.5476  0.1105
  125OSM    C1F13332   4.269   3.925   6.756 -0.1759 -0.8119 -0.0596
  125OSM     OF13333   4.332   3.991   6.673  0.1475 -0.2033 -0.0719
  125OSM    C2F13334   4.346   3.848   6.857  0.1220  0.4984  0.3332
  125OSM    H2F13335   4.417   3.913   6.913 -0.5408  1.0291  0.5716
  125OSM    H2G13336   4.404   3.771   6.803 -1.3165  0.3605 -1.0807
  125OSM    C3F13337   4.270   3.774   6.973 -0.3142 -0.5179  0.9074
  125OSM    H3F13338   4.348   3.713   7.022  0.4968  0.3021  0.6781
  125OSM    H3G13339   4.192   3.707   6.932 -0.0011  1.0078 -2.5694
  125OSM    C4F13340   4.208   3.875   7.075 -0.6214  0.1700 -0.2513
  125OSM    H4F13341   4.117   3.924   7.033 -0.6561  0.6003  0.3120
  125OSM    H4G13342   4.285   3.952   7.095  0.7996 -1.7512  2.3797
  125OSM    C5F13343   4.176   3.812   7.217 -0.4334  0.1384 -1.1216
  125OSM    H5F13344   4.119   3.717   7.210  0.8303 -0.5775 -1.9561
  125OSM    H5G13345   4.109   3.881   7.274  3.2971  2.1455  1.2437
  125OSM    C6F13346   4.307   3.793   7.303 -0.0565 -0.6194  0.2151
  125OSM    H6F13347   4.350   3.895   7.311 -0.2672 -0.5368  0.2927
  125OSM    H6G13348   4.375   3.734   7.238  1.3460  1.3771 -0.2279
  125OSM    C7F13349   4.290   3.724   7.435 -0.4417 -0.3034 -0.3282
  125OSM    H7F13350   4.279   3.615   7.419 -0.7346 -0.0304 -2.2503
  125OSM    H7G13351   4.192   3.759   7.474 -0.1184  2.7877 -1.9677
  125OSM    C8F13352   4.407   3.755   7.530 -0.1345  0.3497 -0.3471
  125OSM    H8F13353   4.472   3.837   7.490 -2.2905  2.7163  0.6975
  125OSM    H8G13354   4.461   3.660   7.551 -0.8595 -0.5628 -2.3125
  125OSM    C9F13355   4.347   3.816   7.656  0.0749 -0.1914 -0.6013
  125OSM    H9F13356   4.280   3.902   7.642  0.0033  0.1132  1.3901
  125OSM   C10F13357   4.377   3.783   7.781 -0.5442  0.4527 -0.0302
  125OSM   H10F13358   4.326   3.844   7.857  1.9292  2.7955 -0.1169
  125OSM   C11F13359   4.479   3.681   7.829 -0.3017  0.1527  0.6592
  125OSM   H11F13360   4.581   3.725   7.827  0.0271 -0.5359  1.4249
  125OSM   H11G13361   4.472   3.585   7.773  0.2589 -0.8423  2.2087
  125OSM   C12F13362   4.468   3.656   7.985  0.2938 -0.0941  0.1266
  125OSM   H12F13363   4.487   3.746   8.048 -0.3738  0.1392  0.0067
  125OSM   H12G13364   4.546   3.582   8.012 -1.1529 -1.2706  1.1800
  125OSM   C13F13365   4.334   3.592   8.035  0.7416 -0.0884 -0.9988
  125OSM   H13F13366   4.324   3.494   7.983  2.0201 -0.2190 -1.0422
  125OSM   H13G13367   4.251   3.659   8.004  0.4285  0.8355  1.5806
  125OSM   C14F13368   4.330   3.568   8.190 -0.3668  0.8316 -0.2323
  125OSM   H14F13369   4.349   3.670   8.229 -0.5889  0.5157  0.7156
  125OSM   H14G13370   4.411   3.497   8.219 -0.9882 -0.4022 -1.3760
  125OSM   C15F13371   4.201   3.513   8.243 -0.2633 -0.5239  0.6441
  125OSM   H15F13372   4.206   3.403   8.228 -1.2415 -0.9677  3.2000
  125OSM   H15G13373   4.116   3.563   8.192 -0.0091 -0.7030  0.0314
  125OSM   C16F13374   4.186   3.544   8.388 -0.6577  0.7548 -0.3907
  125OSM   H16F13375   4.176   3.653   8.409 -0.9192  1.0377 -1.8831
  125OSM   H16G13376   4.274   3.514   8.450 -1.9755  0.1360  1.2684
  125OSM   C17F13377   4.072   3.470   8.452  0.4081 -0.0358  0.5271
  125OSM   H17F13378   4.065   3.362   8.428  0.0612  0.4179 -1.6769
  125OSM   H17G13379   3.979   3.501   8.399 -0.1882 -2.6074 -0.0575
  125OSM   C18F13380   4.066   3.487   8.604  0.5088 -0.0022  0.3841
  125OSM   H18F13381   4.083   3.592   8.634  2.0888  0.4759 -1.8962
  125OSM   H18G13382   4.150   3.434   8.655  0.4731  1.6703  2.2696
  125OSM   H18H13383   3.973   3.440   8.641  1.6441 -1.2910  1.7376
  126OSM      N13384   0.704   2.707   6.397 -0.0352  0.1720  0.0088
  126OSM    C1513385   0.565   2.715   6.337  0.3685 -0.2085 -0.2484
  126OSM   H15A13386   0.509   2.649   6.400  1.8268  0.4567  1.8646
  126OSM   H15B13387   0.549   2.709   6.230 -1.9730 -1.2407  0.1002
  126OSM   H15C13388   0.522   2.810   6.364  0.6879  0.4248 -1.8381
  126OSM    C1413389   0.756   2.579   6.360 -0.0819  0.1444  0.3398
  126OSM   H14A13390   0.727   2.539   6.264  0.6726  0.1842  0.0855
  126OSM   H14B13391   0.729   2.500   6.429  0.7882 -2.2524 -1.8803
  126OSM   H14C13392   0.864   2.579   6.348 -0.1732  1.6987 -0.7333
  126OSM    C1313393   0.789   2.804   6.328 -0.3008  0.1317 -0.2467
  126OSM   H13A13394   0.766   2.908   6.348  0.6386  0.8461 -2.4940
  126OSM   H13B13395   0.788   2.797   6.220  0.0318 -0.3185 -0.2253
  126OSM   H13C13396   0.893   2.786   6.350 -0.5607  0.5585  1.4321
  126OSM    C1213397   0.704   2.733   6.546  0.0144  0.2249  0.1956
  126OSM   H12A13398   0.687   2.840   6.552  0.0327  0.2282  0.1883
  126OSM   H12B13399   0.806   2.725   6.579  0.5619  1.3548 -1.1135
  126OSM    C1113400   0.615   2.649   6.645 -0.2632  0.1085  0.0885
  126OSM   H11A13401   0.515   2.697   6.639 -0.0249  0.4087 -3.5269
  126OSM   H11B13402   0.646   2.663   6.751 -0.8683 -2.3627  0.6401
  126OSM      P13403   0.475   2.443   6.581  0.1640  0.0428  0.5653
  126OSM    O1313404   0.393   2.535   6.501  0.1404  0.3532 -0.0979
  126OSM    O1413405   0.498   2.309   6.517 -0.8268 -0.4614  0.2123
  126OSM    O1113406   0.399   2.406   6.719  0.3137 -0.3049 -0.1277
  126OSM    O1213407   0.613   2.505   6.619  0.1815 -0.3705  0.0334
  126OSM    C1S13408   0.464   2.332   6.821 -0.0312 -0.2028 -0.7403
  126OSM    H1S13409   0.542   2.264   6.780  1.4929  0.3666  1.1010
  126OSM    H1T13410   0.388   2.263   6.865  0.9629 -0.6329  0.3349
  126OSM     NF13411   0.586   2.346   7.044  0.0529  0.3821 -0.4628
  126OSM    HNF13412   0.532   2.342   7.128  0.6577  1.8960  0.0395
  126OSM    C2S13413   0.524   2.421   6.942 -0.8217  0.2756 -0.1587
  126OSM    H2S13414   0.600   2.487   6.896 -1.3672 -0.3714 -2.0520
  126OSM    C3S13415   0.415   2.515   6.993  0.4325 -0.4953 -0.7159
  126OSM    H3S13416   0.336   2.450   7.035  1.6746 -1.1736  0.6293
  126OSM     O313417   0.337   2.588   6.892  0.2689 -0.6067  0.0902
  126OSM    HO313418   0.357   2.542   6.810 -3.6964  0.8399 -1.9494
  126OSM    C4S13419   0.476   2.604   7.098  0.1792 -0.0567 -0.2664
  126OSM    H4S13420   0.484   2.561   7.199 -2.3694  0.5369  0.2523
  126OSM    C5S13421   0.510   2.733   7.096  1.0877  0.1480 -0.3089
  126OSM    H5S13422   0.485   2.797   7.010  1.0347  2.4930  1.3520
  126OSM    C6S13423   0.564   2.807   7.218 -0.2583  0.6074 -0.5990
  126OSM    H6S13424   0.533   2.912   7.198 -1.4396  0.1241 -1.3791
  126OSM    H6T13425   0.675   2.811   7.222 -0.1475 -1.5886 -0.0838
  126OSM    C7S13426   0.509   2.769   7.356 -0.3938 -0.0887  1.1123
  126OSM    H7S13427   0.556   2.671   7.380  2.3146  0.6122 -0.7578
  126OSM    H7T13428   0.401   2.750   7.338 -0.2707 -0.9692  1.2454
  126OSM    C8S13429   0.529   2.864   7.465  0.3363 -0.2092 -0.2712
  126OSM    H8S13430   0.457   2.947   7.448 -2.1980 -1.7864  2.0019
  126OSM    H8T13431   0.633   2.902   7.475  0.0423  0.0462  3.1832
  126OSM    C9S13432   0.484   2.803   7.596 -0.2094 -0.2930 -0.3712
  126OSM    H9S13433   0.537   2.706   7.600 -1.9395 -1.3715 -1.9857
  126OSM    H9T13434   0.374   2.789   7.593 -0.0632 -1.8734  0.6714
  126OSM   C10S13435   0.516   2.901   7.712 -0.0650 -0.4447 -0.1511
  126OSM   H10S13436   0.447   2.986   7.697 -0.5833 -1.1338 -2.0524
  126OSM   H10T13437   0.611   2.957   7.695 -0.2307  0.7791  2.4441
  126OSM   C11S13438   0.507   2.836   7.853  1.1094 -0.1294  0.1424
  126OSM   H11S13439   0.597   2.774   7.867 -0.1765 -1.8126  1.3657
  126OSM   H11T13440   0.417   2.771   7.861  1.8745 -1.1191  0.8398
  126OSM   C12S13441   0.502   2.939   7.973 -0.7503 -0.7412  0.1989
  126OSM   H12S13442   0.418   3.008   7.950  0.6532  0.9432 -0.0776
  126OSM   H12T13443   0.586   3.010   7.959 -0.4012 -1.5211 -2.1732
  126OSM   C13S13444   0.487   2.873   8.107 -0.8182  0.4699  0.4637
  126OSM   H13S13445   0.547   2.780   8.109 -1.0031  0.3593  1.1875
  126OSM   H13T13446   0.383   2.843   8.131  0.2485 -1.7928  2.6848
  126OSM   C14S13447   0.533   2.965   8.216  0.1992 -0.4686  0.0400
  126OSM   H14S13448   0.474   3.059   8.213 -0.4537 -0.8297 -3.9109
  126OSM   H14T13449   0.640   2.992   8.204 -0.4692  1.7368 -1.7412
  126OSM   C15S13450   0.516   2.905   8.353  0.4914 -0.2465 -0.0283
  126OSM   H15S13451   0.601   2.833   8.362 -0.9119 -1.7587  2.2272
  126OSM   H15T13452   0.420   2.854   8.375 -0.2353  1.3688  0.7445
  126OSM   C16S13453   0.548   3.003   8.468  0.2671  0.4516  0.4509
  126OSM   H16S13454   0.465   3.077   8.475  2.3545  2.7865  2.8003
  126OSM   H16T13455   0.639   3.061   8.441  1.9436 -2.3748 -0.3553
  126OSM   C17S13456   0.562   2.940   8.609  0.9517 -0.0384  0.5496
  126OSM   H17S13457   0.472   2.883   8.638  1.2943 -1.0090 -0.2058
  126OSM   H17T13458   0.563   3.030   8.674 -1.8255  0.5937 -0.1648
  126OSM   C18S13459   0.683   2.860   8.644  0.3335 -0.3168 -0.8226
  126OSM   H18S13460   0.710   2.873   8.751  2.1651  3.0831 -1.5236
  126OSM   H18T13461   0.775   2.914   8.612  0.6518  0.8325  1.7128
  126OSM   H18U13462   0.677   2.752   8.619 -1.2924 -0.6786  0.8979
  126OSM    C1F13463   0.691   2.261   7.025  0.3719 -0.3482 -0.0003
  126OSM     OF13464   0.736   2.246   6.912 -0.4125 -0.3065  0.1912
  126OSM    C2F13465   0.747   2.191   7.147 -0.6246 -0.3091 -0.7526
  126OSM    H2F13466   0.685   2.098   7.140 -0.6523 -0.3622  0.1397
  126OSM    H2G13467   0.721   2.246   7.240  0.2097 -2.0677  0.5976
  126OSM    C3F13468   0.899   2.163   7.136  0.4371 -0.1392  0.0470
  126OSM    H3F13469   0.954   2.258   7.125 -1.5912  1.2889  1.4959
  126OSM    H3G13470   0.926   2.108   7.043 -0.2590 -0.1132 -0.1732
  126OSM    C4F13471   0.961   2.083   7.262  0.3910  0.6494 -0.1234
  126OSM    H4F13472   1.070   2.104   7.259  0.9704 -1.7709  1.3189
  126OSM    H4G13473   0.939   1.975   7.251 -0.3055  0.8394 -0.6598
  126OSM    C5F13474   0.922   2.140   7.402 -0.2484 -0.3229 -0.1608
  126OSM    H5F13475   0.813   2.140   7.423 -0.6181  1.1547 -1.8132
  126OSM    H5G13476   0.960   2.244   7.402 -3.2107  0.9002 -2.0151
  126OSM    C6F13477   0.987   2.059   7.516  0.1474  0.2482 -0.1674
  126OSM    H6F13478   1.094   2.083   7.499  0.3782 -0.7132 -0.1173
  126OSM    H6G13479   0.976   1.949   7.509  0.0555  0.3343 -2.0446
  126OSM    C7F13480   0.937   2.105   7.653  0.2117 -0.0807  0.0237
  126OSM    H7F13481   1.007   2.061   7.727  0.2781 -1.1483 -0.6580
  126OSM    H7G13482   0.838   2.068   7.684  0.4611  0.2485  1.2895
  126OSM    C8F13483   0.945   2.258   7.668  0.2365 -0.7721  0.6792
  126OSM    H8F13484   0.860   2.306   7.614 -0.5915 -2.3256  0.5509
  126OSM    H8G13485   1.035   2.285   7.609 -1.9264  1.7949 -1.7449
  126OSM    C9F13486   0.945   2.320   7.805 -0.1291 -0.2281 -0.9600
  126OSM    H9F13487   0.850   2.371   7.828 -0.3751 -1.6201  1.3312
  126OSM   C10F13488   1.053   2.340   7.878 -0.4157 -0.2393 -0.6178
  126OSM   H10F13489   1.047   2.409   7.964  2.8114  0.5660 -0.9135
  126OSM   C11F13490   1.194   2.301   7.846  0.8491  0.5090 -0.2896
  126OSM   H11F13491   1.255   2.390   7.820  0.6896 -0.0010 -2.6444
  126OSM   H11G13492   1.193   2.231   7.760 -3.5911  2.0128 -1.6910
  126OSM   C12F13493   1.253   2.223   7.962  0.1361  0.4907  0.0460
  126OSM   H12F13494   1.251   2.305   8.036  2.5334  2.8990 -2.3363
  126OSM   H12G13495   1.355   2.189   7.933 -0.5247 -1.0440 -0.6206
  126OSM   C13F13496   1.183   2.090   8.012  0.2727  0.3634  0.5217
  126OSM   H13F13497   1.148   2.039   7.920 -0.0971 -0.1476  0.9405
  126OSM   H13G13498   1.096   2.127   8.070  0.4807  2.3497 -0.3377
  126OSM   C14F13499   1.271   1.992   8.087 -0.1203  0.1147 -0.3807
  126OSM   H14F13500   1.330   2.052   8.159  2.7993  0.0463 -2.5443
  126OSM   H14G13501   1.341   1.949   8.012  0.7834 -0.3430  0.6932
  126OSM   C15F13502   1.189   1.883   8.155  0.1782  0.6522  0.0695
  126OSM   H15F13503   1.081   1.911   8.156  0.7940  3.2554  1.3309
  126OSM   H15G13504   1.227   1.863   8.257 -1.0661 -1.8956  0.0981
  126OSM   C16F13505   1.202   1.740   8.101 -0.3825  0.0463  0.1333
  126OSM   H16F13506   1.310   1.712   8.106 -0.0515  1.3098  0.3938
  126OSM   H16G13507   1.163   1.717   7.999  0.6820  1.1159 -0.5469
  126OSM   C17F13508   1.121   1.636   8.189  1.3641 -0.5246 -0.0805
  126OSM   H17F13509   1.050   1.580   8.123  0.6264  0.2183  0.0627
  126OSM   H17G13510   1.065   1.697   8.262  0.8129 -0.3725 -0.6223
  126OSM   C18F13511   1.207   1.540   8.267  0.2766 -0.3857 -0.4883
  126OSM   H18F13512   1.278   1.507   8.188 -1.6883 -1.3803 -1.9124
  126OSM   H18G13513   1.157   1.444   8.289 -1.9677  0.1669 -2.6746
  126OSM   H18H13514   1.246   1.585   8.361 -3.4116  0.9123  0.5973
  127OSM      N13515   6.745   2.947   6.198 -0.2950 -0.0029  0.0475
  127OSM    C1513516   6.630   2.872   6.252 -0.0965 -0.3709 -0.2083
  127OSM   H15A13517   6.646   2.768   6.277  1.4097 -0.0403  0.2998
  127OSM   H15B13518   6.545   2.877   6.185  0.0094 -3.1413 -0.6702
  127OSM   H15C13519   6.595   2.917   6.343 -0.0577 -1.6418  0.4625
  127OSM    C1413520   6.866   2.926   6.291  0.3120 -0.3147  0.1632
  127OSM   H14A13521   6.857   2.969   6.390 -0.3759  0.3191 -0.1677
  127OSM   H14B13522   6.946   2.979   6.242 -0.8062  0.8651 -0.4545
  127OSM   H14C13523   6.888   2.821   6.300  0.0571 -0.3457  0.4314
  127OSM    C1313524   6.781   2.879   6.062 -0.0204  0.4526 -0.5374
  127OSM   H13A13525   6.689   2.856   6.009 -0.5804  1.0607  0.1426
  127OSM   H13B13526   6.843   2.794   6.085 -0.3812  0.4358  0.4107
  127OSM   H13C13527   6.849   2.944   6.010  1.8343 -0.7918  0.2600
  127OSM    C1213528   6.707   3.096   6.182  0.0351  0.0987 -0.6730
  127OSM   H12A13529   6.634   3.108   6.103 -0.3104  2.1970 -0.1133
  127OSM   H12B13530   6.798   3.142   6.146  1.2607 -1.7617 -0.0659
  127OSM    C1113531   6.654   3.182   6.301  0.0810  0.6060  0.4027
  127OSM   H11A13532   6.556   3.138   6.329  0.6529 -1.2683 -0.4018
  127OSM   H11B13533   6.627   3.282   6.261 -4.5406 -1.1134 -1.5332
  127OSM      P13534   6.853   3.302   6.418 -0.1860  0.1123  0.0636
  127OSM    O1313535   6.960   3.271   6.512 -0.0082 -0.5430 -0.2086
  127OSM    O1413536   6.889   3.339   6.281  0.1474 -0.1605  0.1866
  127OSM    O1113537   6.767   3.420   6.469 -0.0595 -0.0568 -0.3335
  127OSM    O1213538   6.739   3.183   6.417 -0.1774  0.5451  0.1119
  127OSM    C1S13539   6.668   3.422   6.575 -0.3043 -0.3369  0.0124
  127OSM    H1S13540   6.597   3.336   6.578 -0.8284 -0.1023 -2.7507
  127OSM    H1T13541   6.600   3.509   6.561  0.7483  0.7297  1.2574
  127OSM     NF13542   6.612   3.433   6.805  0.5504  0.1692 -0.0774
  127OSM    HNF13543   6.556   3.516   6.810  1.7285  1.1053 -1.4374
  127OSM    C2S13544   6.729   3.441   6.715  0.7087 -0.1714 -0.2128
  127OSM    H2S13545   6.806   3.366   6.741  2.2075  1.4717  0.3152
  127OSM    C3S13546   6.803   3.581   6.723 -0.2177 -0.2641 -0.5899
  127OSM    H3S13547   6.741   3.659   6.673  0.2000  0.2001 -0.3938
  127OSM     O313548   6.921   3.594   6.649 -0.8910  0.1915  0.1417
  127OSM    HO313549   6.931   3.517   6.593 -2.4351 -0.0401  0.1570
  127OSM    C4S13550   6.830   3.625   6.863 -0.2219  0.1279 -0.5348
  127OSM    H4S13551   6.930   3.593   6.898  0.0213  2.4742  1.2112
  127OSM    C5S13552   6.760   3.716   6.935  0.3327 -0.2419 -0.0885
  127OSM    H5S13553   6.669   3.764   6.895  1.1316  1.1690 -0.3201
  127OSM    C6S13554   6.792   3.755   7.072  0.1655  0.4322 -0.2128
  127OSM    H6S13555   6.799   3.865   7.085 -0.9513  0.4841  0.0514
  127OSM    H6T13556   6.885   3.708   7.109  1.8180  0.7849 -3.6047
  127OSM    C7S13557   6.675   3.692   7.161  0.0956 -1.2604  0.2748
  127OSM    H7S13558   6.573   3.704   7.119  1.4489  0.0131 -2.9816
  127OSM    H7T13559   6.678   3.745   7.258  0.2498 -1.3288  0.3082
  127OSM    C8S13560   6.710   3.542   7.183  0.4561  0.6157  1.2081
  127OSM    H8S13561   6.818   3.528   7.205  0.6704  1.1646  0.5575
  127OSM    H8T13562   6.681   3.486   7.092 -2.0340  2.8146  0.5136
  127OSM    C9S13563   6.639   3.471   7.300 -0.1692  0.9895 -1.2915
  127OSM    H9S13564   6.658   3.362   7.292  0.8015  1.1037 -0.7317
  127OSM    H9T13565   6.532   3.500   7.296 -0.0245  1.4353 -3.1959
  127OSM   C10S13566   6.702   3.519   7.433  0.1300  0.3303  0.7142
  127OSM   H10S13567   6.648   3.612   7.458 -1.1645  0.3961 -1.9585
  127OSM   H10T13568   6.809   3.543   7.415 -0.0255  0.3003 -0.3693
  127OSM   C11S13569   6.671   3.434   7.555 -0.4820  1.0422 -1.5226
  127OSM   H11S13570   6.715   3.334   7.536  0.4849  1.4049 -1.2595
  127OSM   H11T13571   6.560   3.426   7.567 -0.2169 -1.5541 -0.2073
  127OSM   C12S13572   6.721   3.513   7.675 -0.2275 -0.0663 -0.3781
  127OSM   H12S13573   6.700   3.622   7.674 -0.0722  0.0151  1.5023
  127OSM   H12T13574   6.831   3.499   7.663 -0.2855 -0.2174 -0.7493
  127OSM   C13S13575   6.667   3.460   7.807  0.1139 -0.3643 -0.4499
  127OSM   H13S13576   6.684   3.351   7.819  0.7910 -0.0581  2.0478
  127OSM   H13T13577   6.559   3.480   7.821  0.7540  3.8190 -0.2872
  127OSM   C14S13578   6.730   3.531   7.933  0.2035 -0.0962 -0.1256
  127OSM   H14S13579   6.722   3.642   7.931  0.4287 -0.0487  0.9569
  127OSM   H14T13580   6.837   3.506   7.917 -0.2329 -1.1623 -1.5628
  127OSM   C15S13581   6.676   3.484   8.066 -0.1519  0.7042  0.2259
  127OSM   H15S13582   6.685   3.374   8.075  2.3518  0.9494  1.6274
  127OSM   H15T13583   6.566   3.501   8.067  0.0965  2.6253  0.7540
  127OSM   C16S13584   6.739   3.556   8.192  1.6481  0.4479  0.3712
  127OSM   H16S13585   6.768   3.656   8.153 -3.9178  0.9586 -3.8642
  127OSM   H16T13586   6.828   3.496   8.218  0.9416 -0.6791  0.2688
  127OSM   C17S13587   6.646   3.559   8.313 -0.0054  0.0819 -0.8350
  127OSM   H17S13588   6.598   3.459   8.321 -0.9075  0.6288  1.6101
  127OSM   H17T13589   6.568   3.636   8.296  0.7985  1.5716  1.6877
  127OSM   C18S13590   6.710   3.597   8.450  0.1827 -0.0204  0.0429
  127OSM   H18S13591   6.648   3.555   8.532  0.5807  0.9699  0.8735
  127OSM   H18T13592   6.726   3.705   8.472 -0.4560  0.0731  0.0577
  127OSM   H18U13593   6.811   3.550   8.456  0.2714  0.2057  0.3710
  127OSM    C1F13594   6.557   3.327   6.860 -0.2123  0.4586  0.7025
  127OSM     OF13595   6.608   3.213   6.848 -1.0024  0.4048 -0.1347
  127OSM    C2F13596   6.435   3.352   6.945 -0.7341 -0.2953  0.1005
  127OSM    H2F13597   6.343   3.352   6.883  0.7238  1.3160 -2.2047
  127OSM    H2G13598   6.453   3.453   6.989 -0.0609  0.0046 -0.8293
  127OSM    C3F13599   6.437   3.254   7.062  0.3082  0.6975  0.3381
  127OSM    H3F13600   6.537   3.249   7.110  0.6202  0.7043 -0.3033
  127OSM    H3G13601   6.416   3.152   7.022 -0.4511  1.3980 -1.1211
  127OSM    C4F13602   6.338   3.296   7.176  0.4250  0.2293 -0.4440
  127OSM    H4F13603   6.242   3.306   7.121 -1.0282 -1.0980  1.6895
  127OSM    H4G13604   6.370   3.396   7.210  1.8182  0.3702 -2.0359
  127OSM    C5F13605   6.344   3.190   7.292  0.1699  0.9480  0.7508
  127OSM    H5F13606   6.452   3.173   7.309 -0.0327 -2.5750 -0.6167
  127OSM    H5G13607   6.309   3.095   7.247 -1.7445  2.0923 -0.2973
  127OSM    C6F13608   6.254   3.224   7.413  0.4296  0.3261  0.2416
  127OSM    H6F13609   6.289   3.318   7.461 -0.2741  0.6400  0.1548
  127OSM    H6G13610   6.264   3.137   7.481  0.7467  0.3881  0.2774
  127OSM    C7F13611   6.100   3.249   7.385 -0.1044 -0.0950  0.5939
  127OSM    H7F13612   6.062   3.149   7.357  0.3801 -0.2680  0.5544
  127OSM    H7G13613   6.088   3.316   7.297  0.0223 -0.5083  0.2600
  127OSM    C8F13614   6.039   3.310   7.506 -0.3049  0.1436 -0.4898
  127OSM    H8F13615   6.105   3.396   7.531  0.9147 -0.8874 -0.0509
  127OSM    H8G13616   6.051   3.228   7.580  2.5157 -0.3622 -1.3406
  127OSM    C9F13617   5.892   3.346   7.495  0.0476  0.5970 -0.3079
  127OSM    H9F13618   5.843   3.341   7.396 -1.4585 -1.2167  0.4719
  127OSM   C10F13619   5.811   3.371   7.603 -0.0515 -0.7494 -0.4965
  127OSM   H10F13620   5.708   3.395   7.574  0.7261  1.2951 -1.8138
  127OSM   C11F13621   5.852   3.387   7.747  0.5054 -0.5778  0.2525
  127OSM   H11F13622   5.808   3.482   7.786  0.6703 -0.1631 -0.5437
  127OSM   H11G13623   5.961   3.400   7.759  0.5329  0.0745 -0.5841
  127OSM   C12F13624   5.817   3.281   7.858 -0.1402  0.4517 -0.5386
  127OSM   H12F13625   5.859   3.180   7.837 -0.6611  0.4049 -1.4112
  127OSM   H12G13626   5.707   3.271   7.847 -0.2926  1.6249 -0.1983
  127OSM   C13F13627   5.840   3.326   8.008 -0.1510 -0.0499  0.2897
  127OSM   H13F13628   5.812   3.433   8.020  2.6293  0.7457  0.2330
  127OSM   H13G13629   5.948   3.321   8.033 -0.1707 -2.1958  0.1543
  127OSM   C14F13630   5.743   3.242   8.101 -0.5048  0.2997 -0.2595
  127OSM   H14F13631   5.640   3.246   8.059 -1.0548 -3.9124  0.2494
  127OSM   H14G13632   5.744   3.295   8.199 -2.9595 -2.7376  1.6366
  127OSM   C15F13633   5.777   3.099   8.092  0.9361  0.5531  0.1894
  127OSM   H15F13634   5.860   3.081   8.164 -0.6523 -0.2154  1.9120
  127OSM   H15G13635   5.824   3.068   7.996  0.7507  0.4998  0.1167
  127OSM   C16F13636   5.664   3.002   8.133 -0.6829  0.2147 -0.4574
  127OSM   H16F13637   5.709   2.901   8.146 -0.1492  0.5666  0.4461
  127OSM   H16G13638   5.593   2.999   8.047  0.1378 -0.5433 -1.1295
  127OSM   C17F13639   5.600   3.038   8.271  0.0581 -0.2390 -0.3483
  127OSM   H17F13640   5.542   2.950   8.306 -0.3328 -0.7464 -2.1714
  127OSM   H17G13641   5.535   3.128   8.264  0.3033  0.4195  3.6165
  127OSM   C18F13642   5.696   3.074   8.390 -0.2328 -0.3303  0.1083
  127OSM   H18F13643   5.799   3.090   8.354 -0.3413  2.0136  0.6778
  127OSM   H18G13644   5.686   2.996   8.469  0.5522  1.0250  1.5862
  127OSM   H18H13645   5.665   3.168   8.441  2.9523  0.2807  1.1469
  128OSM      N13646   4.228   6.651   6.233 -0.3422  0.5002 -0.4393
  128OSM    C1513647   4.206   6.544   6.129 -0.1584  0.0027 -0.6465
  128OSM   H15A13648   4.133   6.566   6.053 -0.0917 -1.8831 -1.2947
  128OSM   H15B13649   4.179   6.453   6.181 -0.9220  0.7774  0.3610
  128OSM   H15C13650   4.301   6.516   6.086  0.4756 -0.8092  1.1773
  128OSM    C1413651   4.106   6.672   6.309 -0.4111  0.5969 -0.0823
  128OSM   H14A13652   4.120   6.749   6.384  0.4558 -0.9285  1.3834
  128OSM   H14B13653   4.070   6.579   6.348  1.2770 -0.7666 -1.5659
  128OSM   H14C13654   4.029   6.706   6.242  0.0709 -1.2976 -1.6997
  128OSM    C1313655   4.335   6.594   6.321 -0.3071 -0.0657  0.0612
  128OSM   H13A13656   4.412   6.555   6.256 -1.9315 -0.6685 -1.5723
  128OSM   H13B13657   4.297   6.510   6.377 -0.0134  0.5890  1.2738
  128OSM   H13C13658   4.383   6.667   6.384 -0.8905 -1.6990  2.5362
  128OSM    C1213659   4.281   6.771   6.165 -0.2606 -0.2276 -1.0554
  128OSM   H12A13660   4.203   6.800   6.096 -0.3915  2.0541 -0.0119
  128OSM   H12B13661   4.368   6.741   6.109 -0.1936 -1.6984 -0.2190
  128OSM    C1113662   4.322   6.890   6.264  0.7170  0.8525 -0.3804
  128OSM   H11A13663   4.233   6.899   6.330  0.4936 -3.9038  0.3444
  128OSM   H11B13664   4.332   6.983   6.204  0.8467  1.2779  0.2986
  128OSM      P13665   4.578   6.905   6.312 -0.1136  0.1028  0.1795
  128OSM    O1313666   4.614   6.851   6.180  0.2189  0.0707 -0.5817
  128OSM    O1413667   4.584   7.049   6.335 -0.1834  0.3075 -0.5088
  128OSM    O1113668   4.668   6.830   6.414 -0.6226 -0.4109  0.2978
  128OSM    O1213669   4.431   6.858   6.356  0.1955 -0.8070  0.2457
  128OSM    C1S13670   4.686   6.893   6.541  0.0407 -0.8206  0.1067
  128OSM    H1S13671   4.690   7.004   6.544 -2.0879 -0.6365 -1.4865
  128OSM    H1T13672   4.786   6.866   6.581  0.9130  1.3103 -0.4826
  128OSM     NF13673   4.596   6.904   6.771  0.1354 -0.1990 -0.7371
  128OSM    HNF13674   4.657   6.844   6.823  1.8010  0.9480 -1.2715
  128OSM    C2S13675   4.576   6.841   6.639  0.0938 -0.1205 -0.0847
  128OSM    H2S13676   4.473   6.873   6.613 -0.0846  1.9061  2.6473
  128OSM    C3S13677   4.577   6.689   6.655 -0.4577  0.1537  0.5824
  128OSM    H3S13678   4.676   6.665   6.701  0.8186  1.1131 -1.5187
  128OSM     O313679   4.585   6.626   6.528 -0.5281 -0.6124  0.2920
  128OSM    HO313680   4.626   6.695   6.475  0.8731 -0.9471  0.8982
  128OSM    C4S13681   4.474   6.625   6.739 -0.2083 -0.0502  0.7824
  128OSM    H4S13682   4.505   6.611   6.844  3.3310 -0.7536 -0.2322
  128OSM    C5S13683   4.346   6.608   6.711 -0.1348 -0.2844  0.6276
  128OSM    H5S13684   4.316   6.649   6.613 -0.0035 -0.2791  0.5894
  128OSM    C6S13685   4.241   6.551   6.796 -0.7133 -0.4412 -0.1020
  128OSM    H6S13686   4.194   6.467   6.739 -1.0211 -1.2560  1.3080
  128OSM    H6T13687   4.156   6.618   6.820  0.4504  1.0822 -0.1149
  128OSM    C7S13688   4.296   6.489   6.918 -0.2926  0.0789  0.5458
  128OSM    H7S13689   4.345   6.564   6.984  3.2826  0.1342 -1.9287
  128OSM    H7T13690   4.369   6.410   6.891  0.1103  0.2894  1.0189
  128OSM    C8S13691   4.190   6.409   6.991 -0.4624  0.1801 -0.5145
  128OSM    H8S13692   4.169   6.314   6.937  0.3255  0.5010 -1.4046
  128OSM    H8T13693   4.099   6.470   6.975  0.0663  0.3115 -3.5755
  128OSM    C9S13694   4.220   6.385   7.141 -0.2086  0.2583  0.0026
  128OSM    H9S13695   4.125   6.357   7.191  0.7187 -0.4170  1.4765
  128OSM    H9T13696   4.254   6.484   7.179 -0.0168 -0.3607  1.5348
  128OSM   C10S13697   4.317   6.278   7.185 -0.6800 -0.7019  0.2495
  128OSM   H10S13698   4.420   6.312   7.162  0.0676 -0.0758  3.8042
  128OSM   H10T13699   4.278   6.185   7.139 -0.0867 -0.4445 -0.7963
  128OSM   C11S13700   4.325   6.265   7.336 -0.5487 -0.1823 -0.0136
  128OSM   H11S13701   4.235   6.209   7.370 -0.8145 -0.5416 -1.2320
  128OSM   H11T13702   4.322   6.365   7.384 -1.6964  0.0499 -0.5320
  128OSM   C12S13703   4.452   6.191   7.389  0.3655  0.2587 -0.1880
  128OSM   H12S13704   4.549   6.240   7.364  1.2913 -0.6620  1.4312
  128OSM   H12T13705   4.444   6.089   7.347  1.9293 -0.5623  1.3519
  128OSM   C13S13706   4.466   6.182   7.547 -0.9817  0.0824  0.4996
  128OSM   H13S13707   4.386   6.127   7.603  0.3270 -2.2304  0.2284
  128OSM   H13T13708   4.469   6.287   7.581 -0.1202  0.4216 -0.5872
  128OSM   C14S13709   4.592   6.097   7.579 -0.9687 -0.1581  0.1549
  128OSM   H14S13710   4.685   6.138   7.534  0.3699 -3.1901 -0.0824
  128OSM   H14T13711   4.583   5.998   7.529 -0.3086  0.2595 -0.8228
  128OSM   C15S13712   4.618   6.083   7.726 -0.3959  0.5226  0.0911
  128OSM   H15S13713   4.639   6.187   7.759 -0.0682  1.0526 -1.6470
  128OSM   H15T13714   4.710   6.021   7.732 -1.3560 -1.2080 -1.7484
  128OSM   C16S13715   4.519   6.016   7.817  0.4631 -0.3191  0.6637
  128OSM   H16S13716   4.522   5.907   7.801 -0.9636 -0.1474 -1.0794
  128OSM   H16T13717   4.418   6.057   7.798  1.3665  2.3967  1.1700
  128OSM   C17S13718   4.541   6.042   7.971  0.2586 -0.7220  0.0893
  128OSM   H17S13719   4.467   5.992   8.037  0.9107 -2.3194 -0.3577
  128OSM   H17T13720   4.523   6.150   7.992  0.3120 -0.9189  1.2373
  128OSM   C18S13721   4.682   6.007   8.016  0.6136  0.2356 -0.6722
  128OSM   H18S13722   4.678   6.003   8.127 -1.1776 -1.7667 -0.7467
  128OSM   H18T13723   4.759   6.078   7.978 -0.0969  1.3180 -0.1291
  128OSM   H18U13724   4.712   5.909   7.973  0.9297  0.7998 -1.8066
  128OSM    C1F13725   4.570   7.033   6.797  0.4943  0.4842 -0.3539
  128OSM     OF13726   4.528   7.110   6.710 -0.7876 -0.6075  0.9390
  128OSM    C2F13727   4.607   7.088   6.936  0.1470  0.5470  0.1356
  128OSM    H2F13728   4.716   7.066   6.941  0.1096 -0.0789 -1.3877
  128OSM    H2G13729   4.550   7.028   7.010  0.6096  0.0638  0.1036
  128OSM    C3F13730   4.585   7.247   6.951 -0.0087 -0.3409  0.4104
  128OSM    H3F13731   4.482   7.286   6.933  0.3448  0.5745  0.2920
  128OSM    H3G13732   4.649   7.300   6.877  0.6639 -2.2735 -0.4619
  128OSM    C4F13733   4.612   7.302   7.086  0.3043  0.2092 -0.0940
  128OSM    H4F13734   4.723   7.298   7.089  0.3141  0.7788  0.4713
  128OSM    H4G13735   4.564   7.246   7.168  0.4125 -1.3053 -1.0128
  128OSM    C5F13736   4.566   7.448   7.105  0.4139 -0.5373  0.1387
  128OSM    H5F13737   4.457   7.449   7.083  0.7192 -0.6606 -1.5498
  128OSM    H5G13738   4.618   7.501   7.022  2.8756 -1.3090  1.1029
  128OSM    C6F13739   4.602   7.506   7.239  0.1066  0.5053 -0.0424
  128OSM    H6F13740   4.569   7.612   7.245  0.3822  0.5421  1.3027
  128OSM    H6G13741   4.712   7.493   7.247 -0.0605 -0.3086  1.1897
  128OSM    C7F13742   4.541   7.426   7.357 -0.2069 -0.3695 -0.5819
  128OSM    H7F13743   4.582   7.323   7.357  0.6100 -0.0549 -0.5488
  128OSM    H7G13744   4.432   7.423   7.341 -0.5201  0.0431  1.2203
  128OSM    C8F13745   4.574   7.497   7.499  0.0521 -0.0479 -0.5061
  128OSM    H8F13746   4.525   7.596   7.495  1.9972  0.9564 -4.0430
  128OSM    H8G13747   4.681   7.521   7.514  0.0035 -0.2060  0.1070
  128OSM    C9F13748   4.524   7.405   7.603  0.0309 -0.2376  0.7234
  128OSM    H9F13749   4.417   7.378   7.596  0.1448 -0.7342  0.9332
  128OSM   C10F13750   4.587   7.342   7.699  0.4156 -0.2287 -0.5037
  128OSM   H10F13751   4.528   7.282   7.770  0.1724  1.6238  0.9260
  128OSM   C11F13752   4.730   7.352   7.728 -0.1399 -0.4211 -0.0012
  128OSM   H11F13753   4.744   7.453   7.772 -0.6707 -1.3730  2.4761
  128OSM   H11G13754   4.783   7.332   7.632  0.1548 -2.5745  0.5594
  128OSM   C12F13755   4.789   7.259   7.839 -0.9034 -0.1455 -0.1329
  128OSM   H12F13756   4.899   7.272   7.832 -1.1103  1.7000 -0.5181
  128OSM   H12G13757   4.748   7.157   7.822 -1.0298  0.3806 -3.7067
  128OSM   C13F13758   4.758   7.300   7.984  0.1012  0.2358  0.8266
  128OSM   H13F13759   4.651   7.272   7.979  0.3588 -0.5207 -1.4021
  128OSM   H13G13760   4.784   7.408   7.980  1.0805 -0.0445 -1.4587
  128OSM   C14F13761   4.850   7.229   8.079  0.0692  0.6762 -0.6385
  128OSM   H14F13762   4.951   7.274   8.091  0.9714 -1.7883  2.1770
  128OSM   H14G13763   4.856   7.122   8.048  2.4037 -0.0702  1.9669
  128OSM   C15F13764   4.792   7.219   8.222  0.5718  0.0561 -0.2887
  128OSM   H15F13765   4.686   7.188   8.205  0.2334  0.3683  1.1281
  128OSM   H15G13766   4.793   7.321   8.268 -0.0429 -0.2862  0.5111
  128OSM   C16F13767   4.855   7.109   8.306 -0.7288  0.5168  1.0771
  128OSM   H16F13768   4.966   7.104   8.292 -0.5526  1.6379  1.8528
  128OSM   H16G13769   4.811   7.009   8.290 -0.1160  0.3962  0.0568
  128OSM   C17F13770   4.856   7.145   8.452  0.3154 -0.1536 -0.6683
  128OSM   H17F13771   4.755   7.171   8.490  0.8335  1.7902 -0.5139
  128OSM   H17G13772   4.923   7.234   8.461  2.1950 -1.4905 -0.8003
  128OSM   C18F13773   4.913   7.036   8.545  0.4793  0.1063 -0.0188
  128OSM   H18F13774   4.839   6.954   8.554  1.2731 -0.4111  2.3878
  128OSM   H18G13775   4.933   7.063   8.651  0.0386  1.1212 -0.1801
  128OSM   H18H13776   5.003   7.005   8.487  0.7694  1.2308 -0.2025
  129OSM      N13777   3.824   1.173   6.180 -0.4983  0.1355 -0.2545
  129OSM    C1513778   3.853   1.106   6.047  0.0909  0.9865 -0.1006
  129OSM   H15A13779   3.764   1.115   5.986  0.7023  0.4733 -1.0892
  129OSM   H15B13780   3.895   1.006   6.056 -2.4986 -0.1771  0.0674
  129OSM   H15C13781   3.932   1.155   5.994  0.7224  0.3803  0.2548
  129OSM    C1413782   3.948   1.160   6.258 -0.4471  0.3936 -0.1935
  129OSM   H14A13783   3.978   1.060   6.286  1.3312  1.5775  2.5864
  129OSM   H14B13784   3.939   1.226   6.343 -1.0383  2.2573 -1.6444
  129OSM   H14C13785   4.037   1.195   6.207  0.1673 -0.1633  0.4638
  129OSM    C1313786   3.782   1.311   6.144 -0.7145 -0.0217 -0.3967
  129OSM   H13A13787   3.762   1.366   6.235 -0.0140  1.9061 -1.3441
  129OSM   H13B13788   3.692   1.329   6.087 -0.0021  2.1785 -0.9491
  129OSM   H13C13789   3.863   1.360   6.093 -0.1215  1.0677  1.4809
  129OSM    C1213790   3.710   1.102   6.253 -0.0091  0.8714  0.5609
  129OSM   H12A13791   3.620   1.104   6.193  0.5892  0.8126 -0.3450
  129OSM   H12B13792   3.687   1.156   6.344  0.7649  0.5296  0.9659
  129OSM    C1113793   3.732   0.957   6.298 -0.1257  0.4671  0.0806
  129OSM   H11A13794   3.665   0.932   6.384  1.6238  0.3900  1.4848
  129OSM   H11B13795   3.834   0.938   6.339 -0.2303 -0.0605  0.1023
  129OSM      P13796   3.566   0.810   6.152 -0.0761 -0.0426  0.3694
  129OSM    O1313797   3.466   0.918   6.134 -0.3252 -0.1672  0.1987
  129OSM    O1413798   3.588   0.722   6.038 -0.4334  0.1640  0.2916
  129OSM    O1113799   3.510   0.725   6.274  0.1733 -0.2613 -0.3775
  129OSM    O1213800   3.711   0.861   6.185  0.5005  1.0293 -0.2032
  129OSM    C1S13801   3.577   0.643   6.355  0.1669  1.3225 -0.0605
  129OSM    H1S13802   3.684   0.649   6.328 -0.3282  0.1307 -2.6012
  129OSM    H1T13803   3.545   0.542   6.322 -1.1408  1.3423  1.0414
  129OSM     NF13804   3.631   0.543   6.569 -0.4454  0.1318  0.1392
  129OSM    HNF13805   3.595   0.449   6.570 -1.1240  0.3373 -1.4592
  129OSM    C2S13806   3.547   0.654   6.510  0.6522  0.1014 -0.1902
  129OSM    H2S13807   3.591   0.752   6.537  0.1606  0.6919 -1.4810
  129OSM    C3S13808   3.395   0.662   6.545 -0.0180 -0.0864  0.4946
  129OSM    H3S13809   3.349   0.565   6.514  0.8380 -0.0697 -0.9134
  129OSM     O313810   3.323   0.762   6.468  0.1123 -0.1759 -0.1691
  129OSM    HO313811   3.391   0.786   6.405 -0.4816 -0.7781 -1.0594
  129OSM    C4S13812   3.360   0.688   6.687 -0.0579  0.0599 -0.3315
  129OSM    H4S13813   3.327   0.790   6.712  1.2179  0.9046 -1.9594
  129OSM    C5S13814   3.344   0.587   6.778 -0.3666  0.2949 -0.4076
  129OSM    H5S13815   3.367   0.484   6.747  0.0788 -0.2583  1.6591
  129OSM    C6S13816   3.316   0.603   6.923 -1.1215 -0.8894  0.6704
  129OSM    H6S13817   3.216   0.564   6.951 -1.2314 -0.5976  0.6944
  129OSM    H6T13818   3.307   0.711   6.947 -0.5731 -0.5469 -0.6264
  129OSM    C7S13819   3.414   0.537   7.024  0.3408 -0.1087 -1.0366
  129OSM    H7S13820   3.515   0.565   6.986  0.1064 -0.0511 -1.6324
  129OSM    H7T13821   3.402   0.428   7.006  0.2918 -0.0057 -1.6633
  129OSM    C8S13822   3.409   0.588   7.168  0.3860  0.1476  0.5278
  129OSM    H8S13823   3.311   0.552   7.206  0.0687 -0.2826 -0.6361
  129OSM    H8T13824   3.409   0.698   7.181 -4.7869  0.0439  4.8066
  129OSM    C9S13825   3.521   0.525   7.258  0.0283 -0.5449 -0.0575
  129OSM    H9S13826   3.626   0.546   7.229 -0.1097  0.5746  0.2338
  129OSM    H9T13827   3.522   0.414   7.248 -2.5519 -0.6781  0.3829
  129OSM   C10S13828   3.493   0.556   7.406 -0.2089  0.2911  0.2237
  129OSM   H10S13829   3.400   0.505   7.439  0.4979  0.5359  2.8607
  129OSM   H10T13830   3.487   0.666   7.418 -0.3106  0.4518 -1.1947
  129OSM   C11S13831   3.605   0.510   7.497  0.1862  0.5768  0.5066
  129OSM   H11S13832   3.707   0.542   7.467  0.4944 -1.2507 -0.5575
  129OSM   H11T13833   3.606   0.400   7.478 -1.6501  0.6769 -0.4148
  129OSM   C12S13834   3.562   0.553   7.637 -0.3701  0.0119 -0.2373
  129OSM   H12S13835   3.482   0.488   7.677 -1.7275  1.0432 -1.1995
  129OSM   H12T13836   3.517   0.654   7.647 -0.7951 -0.0888 -1.0230
  129OSM   C13S13837   3.685   0.542   7.732  0.3139 -0.0635  0.3370
  129OSM   H13S13838   3.765   0.611   7.698  2.3970 -2.0316  0.9648
  129OSM   H13T13839   3.714   0.435   7.721  3.9163  0.7898  0.0890
  129OSM   C14S13840   3.648   0.570   7.876 -0.8150 -0.6408  0.6772
  129OSM   H14S13841   3.591   0.479   7.905 -2.1583 -0.7254 -1.9178
  129OSM   H14T13842   3.582   0.659   7.885 -0.4126 -0.0627 -1.4176
  129OSM   C15S13843   3.765   0.591   7.968 -0.2087 -0.5763 -0.3050
  129OSM   H15S13844   3.845   0.650   7.919  0.9350 -1.1382  0.8052
  129OSM   H15T13845   3.805   0.489   7.984 -1.4289 -1.3212 -1.8312
  129OSM   C16S13846   3.718   0.666   8.089 -0.0158 -0.4095 -0.4583
  129OSM   H16S13847   3.641   0.617   8.152  2.0577  0.0484  2.7311
  129OSM   H16T13848   3.678   0.766   8.062  1.9117  0.5415 -0.0064
  129OSM   C17S13849   3.822   0.682   8.200 -0.5232  0.0480 -0.3954
  129OSM   H17S13850   3.777   0.741   8.283  0.8254  3.2626 -1.7745
  129OSM   H17T13851   3.902   0.741   8.151 -1.0707  0.4145 -0.8659
  129OSM   C18S13852   3.883   0.550   8.250 -0.0129  0.1786  0.9978
  129OSM   H18S13853   3.955   0.580   8.330  1.9354  0.4580 -0.8005
  129OSM   H18T13854   3.943   0.503   8.170 -2.2543 -2.7077  0.8351
  129OSM   H18U13855   3.809   0.473   8.280  1.3659 -0.7164  2.2401
  129OSM    C1F13856   3.764   0.554   6.587  0.0216 -0.5296  0.0528
  129OSM     OF13857   3.822   0.652   6.549  1.0452  0.0209  0.2331
  129OSM    C2F13858   3.831   0.432   6.630  0.6303  0.2755  0.7390
  129OSM    H2F13859   3.908   0.402   6.556  0.3179  0.4875  0.3239
  129OSM    H2G13860   3.760   0.346   6.629  0.7594  0.1730  0.1946
  129OSM    C3F13861   3.898   0.462   6.757 -0.6445  0.4645 -0.2341
  129OSM    H3F13862   3.984   0.532   6.752 -0.0493 -0.0871  1.4176
  129OSM    H3G13863   3.953   0.366   6.771 -0.5465  0.2291 -1.9796
  129OSM    C4F13864   3.811   0.491   6.882  0.0142  0.5967  0.4866
  129OSM    H4F13865   3.743   0.408   6.908  0.8743  0.1252  1.2678
  129OSM    H4G13866   3.748   0.581   6.862 -0.4219  0.8296  2.6284
  129OSM    C5F13867   3.885   0.523   7.002  0.3342 -0.4231  0.2696
  129OSM    H5F13868   3.815   0.545   7.085 -1.0094 -1.0964 -0.6445
  129OSM    H5G13869   3.935   0.621   6.986 -0.8623  0.1038 -0.4107
  129OSM    C6F13870   3.987   0.428   7.064 -0.0438 -0.1643 -0.0598
  129OSM    H6F13871   4.067   0.422   6.986  0.0999  1.7356 -0.1084
  129OSM    H6G13872   3.944   0.328   7.083 -2.2635  0.3838 -1.7498
  129OSM    C7F13873   4.059   0.474   7.196 -0.9599  0.1412 -0.0375
  129OSM    H7F13874   4.113   0.570   7.183  0.1294 -0.5714 -0.9521
  129OSM    H7G13875   4.134   0.393   7.208 -2.6380 -1.7949 -1.6115
  129OSM    C8F13876   3.977   0.486   7.317  0.6640  0.8631 -0.2451
  129OSM    H8F13877   3.889   0.552   7.298  0.8623  0.7211 -1.8372
  129OSM    H8G13878   4.042   0.535   7.392  1.3042 -0.9140  0.4213
  129OSM    C9F13879   3.922   0.353   7.366 -0.5459  0.0891 -0.2869
  129OSM    H9F13880   3.866   0.289   7.296 -2.5246  0.3120  1.0096
  129OSM   C10F13881   3.943   0.300   7.491  0.4100  0.1812  0.7680
  129OSM   H10F13882   3.889   0.208   7.520 -2.0582  2.3398  3.6674
  129OSM   C11F13883   4.015   0.366   7.606 -0.7670  1.1929 -0.8258
  129OSM   H11F13884   3.944   0.440   7.649 -0.6635  0.7677  0.0950
  129OSM   H11G13885   4.112   0.410   7.575  0.7878  0.1376  2.1400
  129OSM   C12F13886   4.052   0.266   7.724  1.3636 -0.2898 -0.1328
  129OSM   H12F13887   4.141   0.297   7.784  0.4883 -0.2472  1.1993
  129OSM   H12G13888   4.092   0.170   7.686  1.0645  0.1011 -1.4658
  129OSM   C13F13889   3.934   0.231   7.818 -0.0987 -0.5095 -0.1513
  129OSM   H13F13890   3.849   0.195   7.756  1.0170 -0.3913 -1.8143
  129OSM   H13G13891   3.893   0.318   7.874  1.3939 -1.6351  2.8827
  129OSM   C14F13892   3.960   0.135   7.931 -0.7796 -0.5907 -0.3636
  129OSM   H14F13893   4.002   0.045   7.881 -0.1613 -0.0625 -0.8014
  129OSM   H14G13894   3.865   0.108   7.982 -1.5521  1.6416 -0.5376
  129OSM   C15F13895   4.071   0.187   8.032  0.0416 -0.2746  0.0919
  129OSM   H15F13896   4.028   0.282   8.071 -2.1381 -0.0627 -2.4703
  129OSM   H15G13897   4.162   0.219   7.976 -0.1215  0.1579  0.0687
  129OSM   C16F13898   4.111   0.078   8.139 -0.2849 -0.1347  0.8000
  129OSM   H16F13899   4.134  -0.020   8.092 -0.5824  0.6111 -0.9628
  129OSM   H16G13900   4.017   0.069   8.198  0.0896  0.1300  1.4589
  129OSM   C17F13901   4.224   0.117   8.246  0.4912 -0.5374  0.3063
  129OSM   H17F13902   4.172   0.199   8.301 -0.0154 -0.8484  0.2947
  129OSM   H17G13903   4.314   0.153   8.192 -0.3853  0.0589 -0.8001
  129OSM   C18F13904   4.265   0.014   8.354 -0.3036  0.5777  0.6157
  129OSM   H18F13905   4.329   0.061   8.431  2.3723 -0.6445 -0.7051
  129OSM   H18G13906   4.320  -0.068   8.303  1.2422  1.4021  0.8902
  129OSM   H18H13907   4.177  -0.018   8.412  1.2770  0.0439  2.8502
  130OSM      N13908   5.782   5.493   6.177 -0.1233 -0.3504  0.4420
  130OSM    C1513909   5.832   5.359   6.224 -0.4445  0.7318 -0.3669
  130OSM   H15A13910   5.775   5.319   6.306  2.7173 -2.7733  0.3795
  130OSM   H15B13911   5.935   5.353   6.257 -0.2107  2.5345 -0.6624
  130OSM   H15C13912   5.816   5.293   6.140 -0.3984  1.0278 -0.6101
  130OSM    C1413913   5.865   5.529   6.058  0.3437 -0.2937  0.4066
  130OSM   H14A13914   5.855   5.447   5.988  1.1529  0.0598 -0.1337
  130OSM   H14B13915   5.970   5.545   6.078 -0.1940 -0.6323  4.3246
  130OSM   H14C13916   5.819   5.619   6.019  4.0262  2.0966  1.0913
  130OSM    C1313917   5.638   5.485   6.152 -0.4723 -0.0343 -0.5732
  130OSM   H13A13918   5.598   5.585   6.152 -0.6519 -0.1037 -0.5366
  130OSM   H13B13919   5.589   5.455   6.244 -2.2490  2.7846 -0.4838
  130OSM   H13C13920   5.604   5.437   6.061 -0.8443 -0.5493 -0.1755
  130OSM    C1213921   5.813   5.593   6.290  0.1977 -0.1067  0.3392
  130OSM   H12A13922   5.915   5.568   6.314  0.4930  0.0123 -0.7286
  130OSM   H12B13923   5.753   5.577   6.378  2.0693  2.0811  2.1759
  130OSM    C1113924   5.807   5.745   6.256  0.2589 -0.1571 -0.7708
  130OSM   H11A13925   5.874   5.755   6.167  0.7579 -1.2812 -0.5357
  130OSM   H11B13926   5.854   5.805   6.337  0.2003 -0.6790 -0.3460
  130OSM      P13927   5.572   5.835   6.329 -0.0514  0.0478  0.1107
  130OSM    O1313928   5.462   5.910   6.262  0.2129  1.0513  0.1311
  130OSM    O1413929   5.526   5.714   6.404  0.5102 -0.0612  0.0278
  130OSM    O1113930   5.650   5.930   6.421  0.0304 -0.3849  0.2173
  130OSM    O1213931   5.674   5.792   6.214 -0.4297 -0.5071  0.2589
  130OSM    C1S13932   5.574   6.006   6.522 -0.3031  0.4804 -0.7068
  130OSM    H1S13933   5.471   5.969   6.541  0.0659  0.5689  1.6966
  130OSM    H1T13934   5.560   6.110   6.485  0.8448  1.2504  0.9203
  130OSM     NF13935   5.570   6.056   6.764  0.5251  0.0403 -0.2334
  130OSM    HNF13936   5.551   6.153   6.760  2.7155  0.4588 -2.2449
  130OSM    C2S13937   5.656   6.015   6.656  0.0527  0.2557 -0.9139
  130OSM    H2S13938   5.695   5.914   6.682 -3.8284 -0.9356  1.0358
  130OSM    C3S13939   5.776   6.097   6.620 -0.1950 -0.1524  0.3263
  130OSM    H3S13940   5.752   6.205   6.608  0.4543 -0.0553 -0.1649
  130OSM     O313941   5.856   6.052   6.510  0.3406 -0.0502  0.1613
  130OSM    HO313942   5.804   5.982   6.469  1.6616 -0.9438 -0.0410
  130OSM    C4S13943   5.866   6.097   6.738  0.1389 -0.0513 -0.5947
  130OSM    H4S13944   5.867   5.998   6.784 -2.2642  0.7587  1.3788
  130OSM    C5S13945   5.927   6.200   6.791 -0.3090 -0.0413  0.0157
  130OSM    H5S13946   5.913   6.298   6.742  1.5192  0.0120 -0.4860
  130OSM    C6S13947   6.018   6.195   6.913  0.4833  0.5529 -0.4437
  130OSM    H6S13948   6.015   6.291   6.968  0.5614  1.7324 -2.4373
  130OSM    H6T13949   6.120   6.185   6.871  0.4040 -1.8421 -0.2320
  130OSM    C7S13950   6.028   6.076   7.016  0.2761  0.6894  0.0175
  130OSM    H7S13951   6.120   6.089   7.077  0.7228 -0.5119 -0.3749
  130OSM    H7T13952   6.042   5.980   6.962  0.0361 -1.6009  3.6945
  130OSM    C8S13953   5.903   6.064   7.109 -0.2109  0.4092 -0.1084
  130OSM    H8S13954   5.805   6.054   7.057  0.8436 -2.6973 -1.7717
  130OSM    H8T13955   5.903   6.163   7.160 -0.6943  0.0372  0.6331
  130OSM    C9S13956   5.928   5.940   7.198 -0.0399  0.2089  0.5059
  130OSM    H9S13957   6.027   5.950   7.246  0.6168 -0.6570 -0.6055
  130OSM    H9T13958   5.931   5.848   7.135 -0.4840  0.4661  0.0990
  130OSM   C10S13959   5.816   5.909   7.297  0.0930  0.4052 -0.3349
  130OSM   H10S13960   5.712   5.920   7.260 -0.8666 -0.9748  1.7713
  130OSM   H10T13961   5.814   5.989   7.374  0.8257 -1.1081  1.3199
  130OSM   C11S13962   5.823   5.772   7.355  0.9966  0.1135 -0.0672
  130OSM   H11S13963   5.902   5.764   7.433 -1.4660  1.1468  2.7147
  130OSM   H11T13964   5.850   5.698   7.277  0.3745  0.2832 -0.4413
  130OSM   C12S13965   5.686   5.721   7.414 -0.0151 -0.0763  0.3843
  130OSM   H12S13966   5.607   5.716   7.336 -2.5109 -0.2976  2.7784
  130OSM   H12T13967   5.663   5.807   7.480 -3.9366 -1.0164  0.4722
  130OSM   C13S13968   5.694   5.590   7.499  0.3726  0.7119 -0.1069
  130OSM   H13S13969   5.798   5.597   7.537 -0.0282  1.3695  0.9185
  130OSM   H13T13970   5.680   5.502   7.433 -0.5591  1.0867 -0.4222
  130OSM   C14S13971   5.589   5.585   7.617 -0.4552  0.3356  0.2746
  130OSM   H14S13972   5.606   5.483   7.658  0.4521  0.0203 -0.8264
  130OSM   H14T13973   5.487   5.583   7.573  0.0557 -1.1086 -0.9478
  130OSM   C15S13974   5.620   5.692   7.726  0.1278  0.0644  0.3171
  130OSM   H15S13975   5.612   5.795   7.685  0.6020 -0.3963 -0.9671
  130OSM   H15T13976   5.724   5.680   7.763  0.3731  1.4861  0.1364
  130OSM   C16S13977   5.536   5.692   7.856  0.3778 -0.0077  0.1151
  130OSM   H16S13978   5.436   5.679   7.808  0.4903  1.0303 -0.4183
  130OSM   H16T13979   5.534   5.784   7.918  0.6907  0.7971 -1.0398
  130OSM   C17S13980   5.561   5.569   7.953  0.6241  0.7253  0.7446
  130OSM   H17S13981   5.536   5.468   7.914 -0.4366  0.1524  2.7558
  130OSM   H17T13982   5.488   5.582   8.036 -0.0648 -0.8255  0.4197
  130OSM   C18S13983   5.693   5.577   8.025 -0.2037  0.7241  0.0324
  130OSM   H18S13984   5.770   5.561   7.948 -0.8462  1.1693 -0.7222
  130OSM   H18T13985   5.717   5.503   8.104  0.7152  2.0717  1.0660
  130OSM   H18U13986   5.710   5.676   8.073  0.3088 -0.2712  2.0443
  130OSM    C1F13987   5.489   5.968   6.825  0.0345 -0.5262 -0.4366
  130OSM     OF13988   5.471   5.857   6.779 -0.7592 -0.1971 -0.2324
  130OSM    C2F13989   5.422   6.021   6.947  0.1192  0.6440 -0.2215
  130OSM    H2F13990   5.314   6.034   6.923  0.2691  1.0250 -0.7085
  130OSM    H2G13991   5.467   6.118   6.977  1.8847 -0.2374  0.0832
  130OSM    C3F13992   5.421   5.922   7.063  0.1559 -0.3540  0.0393
  130OSM    H3F13993   5.526   5.908   7.095  0.3800 -3.0632 -1.4992
  130OSM    H3G13994   5.388   5.817   7.043  1.3366 -0.4810 -1.3558
  130OSM    C4F13995   5.317   5.968   7.175 -0.5539  0.0557  0.4529
  130OSM    H4F13996   5.211   5.946   7.150  0.9078 -4.2387 -3.4439
  130OSM    H4G13997   5.321   6.076   7.198  2.6501  0.1614 -0.1367
  130OSM    C5F13998   5.353   5.893   7.307  0.1777  0.6908 -0.4101
  130OSM    H5F13999   5.456   5.918   7.340  0.6388 -0.2633 -1.0707
  130OSM    H5G14000   5.361   5.783   7.294  1.8120  0.8061 -0.6035
  130OSM    C6F14001   5.251   5.912   7.416 -0.3211 -0.2537  0.5717
  130OSM    H6F14002   5.153   5.868   7.387 -1.7436  3.1667 -0.3448
  130OSM    H6G14003   5.230   6.019   7.437 -1.2668 -0.4220  0.5208
  130OSM    C7F14004   5.303   5.860   7.550  0.2749  0.8321 -0.5042
  130OSM    H7F14005   5.410   5.887   7.562 -0.6698  4.1249  1.8242
  130OSM    H7G14006   5.297   5.749   7.550  0.0960  0.8277  0.7047
  130OSM    C8F14007   5.233   5.928   7.667 -0.1460  0.3011  0.2976
  130OSM    H8F14008   5.242   6.038   7.650  1.0918  0.2580  0.5797
  130OSM    H8G14009   5.295   5.902   7.755 -1.1229 -1.0500  0.6277
  130OSM    C9F14010   5.090   5.883   7.677  0.2063  0.7773  0.7396
  130OSM    H9F14011   5.020   5.898   7.594  1.5831 -1.3439 -0.9089
  130OSM   C10F14012   5.037   5.824   7.784 -0.0459 -0.3519  0.1567
  130OSM   H10F14013   4.932   5.792   7.790 -0.0793 -0.0928  1.1190
  130OSM   C11F14014   5.104   5.796   7.913  0.2151 -0.5171 -0.1441
  130OSM   H11F14015   5.110   5.894   7.965  0.4547  0.0978 -1.3070
  130OSM   H11G14016   5.213   5.775   7.916  0.9799  2.9671  0.9784
  130OSM   C12F14017   5.018   5.701   8.006  0.4689 -0.1445  0.5794
  130OSM   H12F14018   5.028   5.594   7.975  1.5390 -0.1030  0.7243
  130OSM   H12G14019   4.913   5.736   8.010  0.9827  1.3810  1.6500
  130OSM   C13F14020   5.066   5.694   8.152 -0.5124  0.6774 -0.2746
  130OSM   H13F14021   4.985   5.653   8.217 -0.8718  3.7296  1.3895
  130OSM   H13G14022   5.062   5.801   8.182 -0.5854  0.5595  0.1423
  130OSM   C14F14023   5.207   5.632   8.158 -0.5852 -0.1147  0.6754
  130OSM   H14F14024   5.279   5.709   8.123 -0.2279 -0.8167 -0.1581
  130OSM   H14G14025   5.214   5.553   8.081  1.4302  2.0938 -1.6047
  130OSM   C15F14026   5.247   5.581   8.293 -0.4272  0.1667  0.1017
  130OSM   H15F14027   5.333   5.510   8.293 -2.3208 -2.2954  1.8052
  130OSM   H15G14028   5.166   5.521   8.339  0.0837 -0.6318 -0.0315
  130OSM   C16F14029   5.277   5.699   8.394  0.0389  0.5854 -0.3813
  130OSM   H16F14030   5.196   5.775   8.391  0.8767  1.5025 -0.6001
  130OSM   H16G14031   5.369   5.751   8.358  2.0378 -2.5647 -0.2083
  130OSM   C17F14032   5.322   5.642   8.526  0.7743  0.2835 -0.0662
  130OSM   H17F14033   5.394   5.558   8.515 -1.1058 -1.6672  1.6231
  130OSM   H17G14034   5.232   5.591   8.567  0.2194 -0.9546 -2.6326
  130OSM   C18F14035   5.383   5.739   8.618 -0.0812 -0.3516 -0.3741
  130OSM   H18F14036   5.324   5.831   8.632  1.5176  0.7775 -0.7339
  130OSM   H18G14037   5.486   5.770   8.590  0.2437  1.2652  2.2481
  130OSM   H18H14038   5.405   5.694   8.718  1.1495  1.5861  0.2786
  131OSM      N14039   3.370   2.243   5.957  0.6378 -0.7247 -0.7774
  131OSM    C1514040   3.268   2.350   5.920  0.3609  0.0475 -0.3019
  131OSM   H15A14041   3.224   2.399   6.006  0.5009  1.1630 -0.8542
  131OSM   H15B14042   3.193   2.296   5.864 -2.5236  2.6944  0.7124
  131OSM   H15C14043   3.320   2.421   5.859  1.4836 -0.3934  0.1133
  131OSM    C1414044   3.303   2.154   6.056 -0.4267 -0.2549  1.0080
  131OSM   H14A14045   3.363   2.075   6.098  0.7908  0.8381  1.3993
  131OSM   H14B14046   3.220   2.109   6.005  1.8726 -0.2183 -3.2645
  131OSM   H14C14047   3.264   2.203   6.144 -2.7602 -4.4678  2.5609
  131OSM    C1314048   3.409   2.164   5.841 -0.4962 -0.3122  0.2680
  131OSM   H13A14049   3.325   2.116   5.794  0.9607 -1.3629 -1.3588
  131OSM   H13B14050   3.477   2.087   5.875  0.4710  1.0638  1.5733
  131OSM   H13C14051   3.465   2.208   5.760 -2.5201  0.0861 -0.9824
  131OSM    C1214052   3.486   2.315   6.025  0.3816 -0.4468 -0.4461
  131OSM   H12A14053   3.557   2.237   6.046 -1.6435 -2.9488 -2.2679
  131OSM   H12B14054   3.451   2.342   6.123 -0.1447  1.5617 -1.1399
  131OSM    C1114055   3.552   2.434   5.954 -0.3730  0.0347  0.2346
  131OSM   H11A14056   3.556   2.405   5.847 -1.7050  0.5180  0.0305
  131OSM   H11B14057   3.656   2.449   5.988  0.6564 -2.2062 -1.6236
  131OSM      P14058   3.455   2.643   6.083 -0.0173  0.0502 -0.3101
  131OSM    O1314059   3.402   2.776   6.039 -0.0433 -0.1859 -0.3119
  131OSM    O1414060   3.380   2.566   6.188 -0.1792 -0.3815  0.0592
  131OSM    O1114061   3.605   2.660   6.138  0.0330  0.7511 -0.0901
  131OSM    O1214062   3.474   2.552   5.963 -0.0195  0.0868 -0.3452
  131OSM    C1S14063   3.627   2.716   6.266 -0.9783 -0.1288  0.3812
  131OSM    H1S14064   3.541   2.781   6.294 -1.2076  0.3705 -1.3595
  131OSM    H1T14065   3.714   2.785   6.260 -1.2724  0.2081 -0.0799
  131OSM     NF14066   3.666   2.685   6.507  0.5266  0.5433  0.6880
  131OSM    HNF14067   3.764   2.701   6.518  0.8555  0.1493 -1.3126
  131OSM    C2S14068   3.647   2.608   6.376 -0.0655 -0.4986 -0.3333
  131OSM    H2S14069   3.551   2.555   6.395  0.1149 -1.2414 -1.3946
  131OSM    C3S14070   3.752   2.505   6.336 -0.1727  0.4032 -0.1678
  131OSM    H3S14071   3.843   2.564   6.310  1.7740 -1.5404  1.7558
  131OSM     O314072   3.709   2.420   6.230  0.2722  0.3903 -0.0017
  131OSM    HO314073   3.665   2.486   6.175 -3.7905 -2.5411 -0.7471
  131OSM    C4S14074   3.783   2.423   6.457  0.2317 -0.4275  0.7179
  131OSM    H4S14075   3.856   2.464   6.528  0.5264 -0.0853  0.2201
  131OSM    C5S14076   3.742   2.303   6.497  0.2481  0.2981  0.3531
  131OSM    H5S14077   3.691   2.241   6.421  0.1212  1.5358 -0.6146
  131OSM    C6S14078   3.798   2.237   6.621 -0.3084  0.1459  0.5740
  131OSM    H6S14079   3.872   2.155   6.609 -1.2256 -0.5386 -0.6172
  131OSM    H6T14080   3.710   2.190   6.671  0.0320 -0.9570  0.1743
  131OSM    C7S14081   3.864   2.337   6.718  0.9801 -0.0807 -0.7308
  131OSM    H7S14082   3.949   2.394   6.674  0.1236  1.0248 -0.9863
  131OSM    H7T14083   3.914   2.278   6.798  1.7739 -0.4391 -1.4750
  131OSM    C8S14084   3.766   2.436   6.784  0.2662 -0.0423 -0.7330
  131OSM    H8S14085   3.674   2.382   6.814 -0.3652  1.2193 -0.3290
  131OSM    H8T14086   3.731   2.505   6.704  0.2168 -0.2813 -0.9178
  131OSM    C9S14087   3.837   2.528   6.885  0.3946  0.1227 -0.1981
  131OSM    H9S14088   3.769   2.600   6.936  0.1233  0.7411 -1.4005
  131OSM    H9T14089   3.919   2.576   6.828  0.4468  1.0237  0.6052
  131OSM   C10S14090   3.900   2.458   7.003  0.0265  0.4682  0.5600
  131OSM   H10S14091   4.003   2.432   6.973  0.9491  3.8023  0.4416
  131OSM   H10T14092   3.852   2.365   7.040 -1.0708  0.6876 -0.2559
  131OSM   C11S14093   3.923   2.559   7.113  0.7788  0.1443 -0.2701
  131OSM   H11S14094   3.818   2.559   7.149  0.5795 -0.7596 -0.7957
  131OSM   H11T14095   3.949   2.657   7.068 -1.6048  0.8277 -0.2843
  131OSM   C12S14096   4.024   2.505   7.218  0.0192  0.2176 -0.2764
  131OSM   H12S14097   4.129   2.500   7.182  0.1373  1.0121 -0.0608
  131OSM   H12T14098   3.973   2.414   7.255 -1.9119  1.2130 -0.3713
  131OSM   C13S14099   4.024   2.587   7.344  0.3078 -0.1520 -0.1907
  131OSM   H13S14100   3.919   2.616   7.369  1.1483  2.9544  0.1227
  131OSM   H13T14101   4.082   2.680   7.331 -0.4506  0.0747 -2.2896
  131OSM   C14S14102   4.087   2.509   7.452 -0.5489  0.3205  0.0083
  131OSM   H14S14103   4.050   2.405   7.454  0.5812 -0.1271 -0.9459
  131OSM   H14T14104   4.064   2.560   7.547 -2.2535  1.3299 -0.9049
  131OSM   C15S14105   4.238   2.491   7.436  0.5171 -0.8002  0.0100
  131OSM   H15S14106   4.299   2.583   7.419  0.5059 -1.2120 -2.7080
  131OSM   H15T14107   4.249   2.436   7.341 -2.7175  1.3649 -1.7911
  131OSM   C16S14108   4.298   2.424   7.560  0.1996 -0.2516 -0.5399
  131OSM   H16S14109   4.233   2.335   7.574 -1.1520  0.7270 -0.3299
  131OSM   H16T14110   4.313   2.501   7.638 -0.5057 -0.2755 -0.3754
  131OSM   C17S14111   4.441   2.369   7.534 -0.4247 -0.2482  0.1953
  131OSM   H17S14112   4.495   2.441   7.469  1.4643 -0.7084  1.1889
  131OSM   H17T14113   4.431   2.280   7.468 -1.2375 -1.0306  1.3283
  131OSM   C18S14114   4.542   2.353   7.656  0.1726  0.7358 -0.2411
  131OSM   H18S14115   4.636   2.309   7.617 -0.4562  0.4061 -1.4656
  131OSM   H18T14116   4.498   2.277   7.724 -1.4971  0.5486 -1.4575
  131OSM   H18U14117   4.558   2.451   7.706  0.3872 -0.4415  2.0769
  131OSM    C1F14118   3.572   2.741   6.583 -0.0613 -0.6452 -1.2662
  131OSM     OF14119   3.458   2.756   6.543 -0.2392  0.2187  0.7969
  131OSM    C2F14120   3.611   2.786   6.719 -0.6431  0.1431  0.7785
  131OSM    H2F14121   3.639   2.893   6.709  0.2018 -0.0586  0.9021
  131OSM    H2G14122   3.696   2.727   6.759  0.3430  1.1776  0.2625
  131OSM    C3F14123   3.499   2.781   6.820  0.0110  0.7334 -0.6156
  131OSM    H3F14124   3.448   2.682   6.820 -2.4121  1.9075 -1.4615
  131OSM    H3G14125   3.415   2.846   6.786 -0.0170  1.5049  0.8851
  131OSM    C4F14126   3.551   2.809   6.958 -0.2574  0.1289  0.0941
  131OSM    H4F14127   3.582   2.916   6.965 -0.4958  0.1395  1.1805
  131OSM    H4G14128   3.644   2.755   6.982  0.5512 -0.0777 -3.0369
  131OSM    C5F14129   3.444   2.776   7.060 -0.0934  0.2730  0.2307
  131OSM    H5F14130   3.414   2.669   7.063  0.9461 -0.0143  2.3227
  131OSM    H5G14131   3.361   2.843   7.030  2.4734  3.9100  0.7005
  131OSM    C6F14132   3.485   2.825   7.197 -0.1200  0.3337  0.4140
  131OSM    H6F14133   3.490   2.936   7.195 -2.2704  0.5125  1.8786
  131OSM    H6G14134   3.582   2.793   7.242 -0.4206 -0.8488  0.2484
  131OSM    C7F14135   3.381   2.798   7.311  0.0860  0.1929  0.5688
  131OSM    H7F14136   3.349   2.692   7.316 -0.2267  0.2488 -0.1247
  131OSM    H7G14137   3.288   2.847   7.274 -0.1196  0.3632  1.2859
  131OSM    C8F14138   3.435   2.863   7.443  0.8198  0.6152  0.3646
  131OSM    H8F14139   3.470   2.964   7.412  2.6127 -0.2559 -0.6632
  131OSM    H8G14140   3.529   2.808   7.465 -0.0364 -1.3988 -0.7316
  131OSM    C9F14141   3.358   2.865   7.578 -0.5269 -0.2603  0.5290
  131OSM    H9F14142   3.329   2.759   7.594  0.6771 -0.8551 -1.0177
  131OSM   C10F14143   3.331   2.972   7.658 -0.2887  0.3647  0.7003
  131OSM   H10F14144   3.274   2.950   7.749 -0.6959  3.5418  1.3365
  131OSM   C11F14145   3.380   3.115   7.634  0.4147  0.4205  0.0889
  131OSM   H11F14146   3.303   3.195   7.641  0.5336  0.4942  0.5686
  131OSM   H11G14147   3.429   3.124   7.535  0.0208  2.2837  0.0288
  131OSM   C12F14148   3.486   3.152   7.735  0.4563  0.2218 -0.4215
  131OSM   H12F14149   3.518   3.252   7.699  1.5412  0.4597  1.0941
  131OSM   H12G14150   3.565   3.074   7.730  0.5885  0.3766 -0.7711
  131OSM   C13F14151   3.434   3.175   7.871  0.6201 -0.3946 -0.2029
  131OSM   H13F14152   3.509   3.235   7.927  0.3319  0.4811 -0.7271
  131OSM   H13G14153   3.422   3.075   7.918  0.4608 -0.4320 -0.3209
  131OSM   C14F14154   3.306   3.258   7.871  0.2560 -0.3480 -0.1459
  131OSM   H14F14155   3.226   3.190   7.835  0.4304 -0.4319 -0.3710
  131OSM   H14G14156   3.310   3.337   7.794  0.7308 -0.9822 -0.7850
  131OSM   C15F14157   3.261   3.309   8.006  0.3798 -0.7780  0.2332
  131OSM   H15F14158   3.179   3.381   7.985  1.4330  0.6048  0.6825
  131OSM   H15G14159   3.341   3.379   8.039 -0.6556 -0.8000  3.1171
  131OSM   C16F14160   3.233   3.210   8.114  0.6081  0.0019 -0.2840
  131OSM   H16F14161   3.326   3.150   8.129  0.6094 -0.0678 -0.5668
  131OSM   H16G14162   3.156   3.134   8.087  1.0409 -0.5939  0.1090
  131OSM   C17F14163   3.197   3.274   8.251  0.1022 -0.3699 -0.1225
  131OSM   H17F14164   3.285   3.330   8.287  0.5724 -1.2393  0.1147
  131OSM   H17G14165   3.173   3.195   8.326 -2.3800  2.3940  2.2503
  131OSM   C18F14166   3.071   3.373   8.235  0.6616  0.6309 -0.1211
  131OSM   H18F14167   2.990   3.335   8.169  1.4953  1.2421 -1.5406
  131OSM   H18G14168   3.109   3.465   8.187  1.3994 -1.0078 -2.9243
  131OSM   H18H14169   3.034   3.411   8.333 -0.6645  2.0620 -1.1436
  132OSM      N14170   0.782   1.024   6.125 -0.3462 -0.2891 -0.1524
  132OSM    C1514171   0.678   1.081   6.036  0.5230 -0.0793  0.4476
  132OSM   H15A14172   0.728   1.155   5.975 -0.3831  0.3394  0.1920
  132OSM   H15B14173   0.603   1.135   6.093 -0.5935  0.1717 -1.1847
  132OSM   H15C14174   0.625   1.009   5.975  1.4464 -0.6573  0.3215
  132OSM    C1414175   0.741   0.904   6.208 -0.5425 -0.0340  0.0425
  132OSM   H14A14176   0.647   0.926   6.255  0.2915  1.2212  1.2236
  132OSM   H14B14177   0.812   0.898   6.290  0.1558  1.9832 -0.3433
  132OSM   H14C14178   0.747   0.808   6.160  2.3545  0.2342 -0.3308
  132OSM    C1314179   0.891   0.973   6.032  0.0768 -0.2234 -0.6309
  132OSM   H13A14180   0.974   0.941   6.092  1.8854  0.9219 -2.4122
  132OSM   H13B14181   0.917   1.055   5.966 -0.8320  0.8120  0.2615
  132OSM   H13C14182   0.852   0.888   5.978  0.1341 -0.4255 -0.3557
  132OSM    C1214183   0.834   1.131   6.216 -0.0321  0.0976  0.0812
  132OSM   H12A14184   0.859   1.217   6.155  1.8851 -0.8797 -0.6105
  132OSM   H12B14185   0.926   1.107   6.268 -1.2575 -1.2649  1.6988
  132OSM    C1114186   0.753   1.180   6.333 -0.3421 -0.4025  0.1732
  132OSM   H11A14187   0.817   1.240   6.402 -1.3879  2.1413 -0.9498
  132OSM   H11B14188   0.711   1.094   6.389 -2.1111  0.6473  0.5557
  132OSM      P14189   0.646   1.404   6.237 -0.1033 -0.0748 -0.0317
  132OSM    O1314190   0.720   1.407   6.110  0.3415 -0.1070 -0.1736
  132OSM    O1414191   0.503   1.450   6.234 -0.2792  0.0549  0.0789
  132OSM    O1114192   0.731   1.471   6.351 -0.5800  0.3238 -0.0717
  132OSM    O1214193   0.639   1.260   6.288 -0.7578  0.2323  0.3365
  132OSM    C1S14194   0.681   1.487   6.480  0.1133  0.5164 -0.2208
  132OSM    H1S14195   0.611   1.406   6.508 -1.0885  2.0121  1.4318
  132OSM    H1T14196   0.603   1.567   6.478 -0.6660 -0.1586  1.0709
  132OSM     NF14197   0.722   1.489   6.722 -0.0125 -0.2442  0.1686
  132OSM    HNF14198   0.723   1.571   6.779 -1.1690  1.0031 -1.5231
  132OSM    C2S14199   0.790   1.500   6.594  0.2827 -0.0754 -0.3255
  132OSM    H2S14200   0.856   1.411   6.583  2.9854  1.8710 -0.8359
  132OSM    C3S14201   0.876   1.627   6.565 -0.2553 -0.3022 -0.3675
  132OSM    H3S14202   0.806   1.710   6.539 -0.9134 -0.5564  0.5426
  132OSM     O314203   0.966   1.618   6.451  0.3320 -0.4586 -0.4795
  132OSM    HO314204   0.929   1.543   6.404  0.1793 -1.1414  0.6749
  132OSM    C4S14205   0.953   1.665   6.690  0.2100 -0.6999 -0.2678
  132OSM    H4S14206   0.887   1.712   6.765 -0.6675 -1.7924 -0.3396
  132OSM    C5S14207   1.080   1.639   6.711 -0.3998 -0.1983 -0.8970
  132OSM    H5S14208   1.143   1.585   6.638  1.1316  0.8003 -0.3646
  132OSM    C6S14209   1.158   1.675   6.835 -0.7230 -0.2242  0.4316
  132OSM    H6S14210   1.226   1.761   6.815 -0.5173 -1.0366 -2.8759
  132OSM    H6T14211   1.212   1.584   6.869 -1.3330 -0.2564  1.3316
  132OSM    C7S14212   1.085   1.728   6.953  0.6152  0.6604 -0.3218
  132OSM    H7S14213   1.013   1.651   6.988  0.7757  0.7670  0.2543
  132OSM    H7T14214   1.023   1.820   6.940 -0.5566 -0.3865 -2.7932
  132OSM    C8S14215   1.179   1.757   7.068 -0.4335  0.2631 -0.3624
  132OSM    H8S14216   1.209   1.864   7.062  2.0450 -0.2211  1.7637
  132OSM    H8T14217   1.274   1.699   7.066 -1.2951 -1.1924 -0.1994
  132OSM    C9S14218   1.109   1.723   7.205 -0.1309  0.0859  0.7619
  132OSM    H9S14219   1.091   1.614   7.210 -2.0167  0.4253  2.3142
  132OSM    H9T14220   1.010   1.772   7.218  0.0482  0.8507 -0.5043
  132OSM   C10S14221   1.190   1.751   7.333 -0.3267 -0.4976  0.0907
  132OSM   H10S14222   1.200   1.860   7.351  0.1275 -0.5729  0.3027
  132OSM   H10T14223   1.290   1.709   7.313 -0.5222 -0.4851 -0.9818
  132OSM   C11S14224   1.139   1.674   7.455 -0.3557 -0.2968 -0.6573
  132OSM   H11S14225   1.151   1.563   7.456  3.8171 -0.0305  1.9919
  132OSM   H11T14226   1.031   1.693   7.470 -0.5367 -0.0456 -2.1069
  132OSM   C12S14227   1.218   1.711   7.588  0.6761 -0.0386  0.2680
  132OSM   H12S14228   1.196   1.817   7.613 -2.6839 -0.9854  1.9295
  132OSM   H12T14229   1.327   1.707   7.566  0.8549  0.9289  0.8792
  132OSM   C13S14230   1.182   1.646   7.720  0.3155 -0.2975 -0.6719
  132OSM   H13S14231   1.079   1.677   7.748  1.0361 -1.1414  3.5893
  132OSM   H13T14232   1.242   1.692   7.801 -1.5943  1.5422 -0.2148
  132OSM   C14S14233   1.197   1.493   7.729  0.5847 -0.9515  0.6209
  132OSM   H14S14234   1.306   1.473   7.744  0.7940 -0.0678  0.3609
  132OSM   H14T14235   1.173   1.438   7.636 -0.1337  0.3403  0.0145
  132OSM   C15S14236   1.109   1.436   7.842  0.3303 -0.0267 -0.1532
  132OSM   H15S14237   1.006   1.422   7.804 -0.5738  0.1206  2.0813
  132OSM   H15T14238   1.107   1.503   7.930 -3.0464 -0.6980  0.3915
  132OSM   C16S14239   1.158   1.299   7.887  0.1306 -0.2439  0.8297
  132OSM   H16S14240   1.265   1.305   7.918  0.4740  1.6386 -0.6052
  132OSM   H16T14241   1.144   1.226   7.804 -0.3983 -1.6117  2.0719
  132OSM   C17S14242   1.076   1.235   7.998  0.6408  0.8104 -0.8851
  132OSM   H17S14243   0.986   1.182   7.960  1.2037 -0.6585 -0.2395
  132OSM   H17T14244   1.033   1.316   8.061  0.4789 -0.0988  0.2022
  132OSM   C18S14245   1.157   1.142   8.088  0.4901  0.0909 -0.1223
  132OSM   H18S14246   1.093   1.063   8.132  1.8126 -1.3614 -0.6886
  132OSM   H18T14247   1.191   1.207   8.171 -0.3593 -0.1343  0.4026
  132OSM   H18U14248   1.235   1.108   8.016  0.2879  2.4702 -1.5864
  132OSM    C1F14249   0.643   1.386   6.763 -0.4986  0.7409  0.1953
  132OSM     OF14250   0.656   1.274   6.711 -0.0700  0.6672  0.5887
  132OSM    C2F14251   0.533   1.415   6.859  0.6372  0.6425 -0.1934
  132OSM    H2F14252   0.437   1.374   6.822  1.6183  2.0558 -4.9763
  132OSM    H2G14253   0.522   1.525   6.867  0.2568  0.4824  2.1413
  132OSM    C3F14254   0.561   1.356   7.001 -0.1159  0.5748 -0.5579
  132OSM    H3F14255   0.490   1.415   7.063 -1.1789  1.1679 -2.2608
  132OSM    H3G14256   0.664   1.388   7.027  0.5125 -0.7891 -1.2337
  132OSM    C4F14257   0.525   1.211   7.019 -0.0940 -0.4114  0.4224
  132OSM    H4F14258   0.550   1.159   6.924 -1.1198 -1.9773  0.9645
  132OSM    H4G14259   0.416   1.198   7.036  0.0226 -1.3030  0.5390
  132OSM    C5F14260   0.592   1.137   7.136  0.3279  0.2713  0.9090
  132OSM    H5F14261   0.696   1.120   7.100  0.0144 -0.4982  0.3427
  132OSM    H5G14262   0.550   1.034   7.136  1.0826 -0.0652 -0.4113
  132OSM    C6F14263   0.558   1.191   7.275  0.1060 -0.4504 -0.0656
  132OSM    H6F14264   0.549   1.302   7.275 -0.5748 -0.4815 -1.8623
  132OSM    H6G14265   0.638   1.144   7.336 -0.0311 -0.5402  0.0455
  132OSM    C7F14266   0.417   1.140   7.320  1.0378 -0.0445  0.1819
  132OSM    H7F14267   0.438   1.030   7.320  2.2934  0.1736  0.8740
  132OSM    H7G14268   0.339   1.174   7.250  1.4986 -0.6692 -0.6562
  132OSM    C8F14269   0.385   1.180   7.460  0.2071  0.1382  1.2308
  132OSM    H8F14270   0.362   1.288   7.473  4.6992  1.1569  2.3095
  132OSM    H8G14271   0.479   1.166   7.517 -0.3566 -0.6276  2.0022
  132OSM    C9F14272   0.273   1.089   7.513 -0.1519 -0.6286  0.2117
  132OSM    H9F14273   0.232   1.020   7.438  1.3301 -2.2324  0.8240
  132OSM   C10F14274   0.246   1.061   7.642 -0.4302 -0.6420 -0.1622
  132OSM   H10F14275   0.161   0.997   7.667 -0.2099 -1.1796 -0.7723
  132OSM   C11F14276   0.327   1.130   7.758  0.4212  0.2801  0.4881
  132OSM   H11F14277   0.397   1.199   7.708 -1.1864  0.7192 -1.2624
  132OSM   H11G14278   0.396   1.050   7.792 -0.0540 -0.6542 -0.6795
  132OSM   C12F14279   0.234   1.197   7.862  0.2843  0.5349 -0.0459
  132OSM   H12F14280   0.147   1.130   7.884  0.3815  0.9689  1.8809
  132OSM   H12G14281   0.190   1.287   7.815  2.0181  1.6852  0.4505
  132OSM   C13F14282   0.316   1.228   7.986  0.1010 -0.3319  0.2408
  132OSM   H13F14283   0.400   1.297   7.961 -2.1523  2.1199 -1.1698
  132OSM   H13G14284   0.363   1.138   8.030 -1.0090 -0.4964  1.1053
  132OSM   C14F14285   0.225   1.285   8.097  0.4946 -0.1969  0.3230
  132OSM   H14F14286   0.138   1.219   8.115 -0.1771  0.1744 -1.3389
  132OSM   H14G14287   0.178   1.381   8.067 -0.4787 -0.6678  0.3191
  132OSM   C15F14288   0.299   1.308   8.228  0.5412  0.6820 -0.2768
  132OSM   H15F14289   0.378   1.384   8.210 -1.0917  2.2963 -0.8639
  132OSM   H15G14290   0.341   1.207   8.250 -0.2968  0.3369 -0.2580
  132OSM   C16F14291   0.227   1.337   8.357 -0.0152  0.3331 -0.3052
  132OSM   H16F14292   0.301   1.366   8.434 -1.0236 -3.2457  2.2885
  132OSM   H16G14293   0.163   1.256   8.397 -0.5607  0.2961 -1.2000
  132OSM   C17F14294   0.137   1.457   8.350 -0.0251 -0.4731 -0.0471
  132OSM   H17F14295   0.092   1.465   8.452 -0.0380 -0.8856 -0.0187
  132OSM   H17G14296   0.047   1.438   8.289 -0.0510 -0.0710 -0.1373
  132OSM   C18F14297   0.201   1.590   8.304 -0.2740 -0.8824 -0.6211
  132OSM   H18F14298   0.115   1.660   8.291 -0.7279 -1.4126 -0.5314
  132OSM   H18G14299   0.245   1.581   8.202  1.5330 -0.3654  0.0893
  132OSM   H18H14300   0.277   1.627   8.375  0.8913 -2.6520 -0.8891
  133SAPE     N14301   4.791   5.842  10.758 -0.0377  0.9607  0.1699
  133SAPE   HN114302   4.700   5.795  10.745  1.0534 -0.5303 -3.3535
  133SAPE   HN214303   4.796   5.892  10.849 -0.3463 -1.4992  1.6253
  133SAPE   HN314304   4.811   5.903  10.675 -0.3798  0.0382 -0.6146
  133SAPE   C1214305   4.903   5.744  10.751 -0.0821  0.0920  0.1293
  133SAPE  H12A14306   4.921   5.711  10.647  0.9281  0.2090  0.2562
  133SAPE  H12B14307   4.879   5.651  10.808 -1.4100  0.1056 -0.3637
  133SAPE   C1114308   5.035   5.805  10.780 -0.6451  1.0821 -1.0805
  133SAPE  H11A14309   5.114   5.740  10.739 -0.9746  1.4380 -2.3407
  133SAPE  H11B14310   5.039   5.817  10.891  0.5733  1.8582 -1.1993
  133SAPE     P14311   5.184   6.009  10.734  0.3326 -0.3239  0.0077
  133SAPE   O1314312   5.166   6.151  10.703 -0.1742 -0.5800  0.3927
  133SAPE   O1414313   5.243   5.987  10.869  0.0984 -0.3738  0.7853
  133SAPE   O1214314   5.052   5.925  10.720 -0.0894 -0.5878 -0.1017
  133SAPE   O1114315   5.279   5.947  10.622  0.0044 -0.2984  0.1499
  133SAPE    C114316   5.243   5.862  10.509  0.6119 -0.2897  0.6553
  133SAPE    HA14317   5.330   5.804  10.472 -0.1798  0.4911 -2.7882
  133SAPE    HB14318   5.154   5.796  10.513 -0.0106  0.5618  1.1678
  133SAPE    C214319   5.214   5.954  10.384  0.1928 -0.0164 -0.0094
  133SAPE    HS14320   5.202   5.876  10.306 -2.1525 -1.7826  1.9315
  133SAPE   O2114321   5.324   6.048  10.359 -0.5820 -0.0861 -0.6286
  133SAPE   C2114322   5.434   5.981  10.323 -0.3009 -0.4528  0.1418
  133SAPE   O2214323   5.434   5.871  10.274 -0.1229  0.2397 -0.2275
  133SAPE   C2214324   5.554   6.076  10.330  0.2748 -0.7209  0.2764
  133SAPE   H2R14325   5.545   6.145  10.417  0.1304 -0.0653 -0.2458
  133SAPE   H2S14326   5.650   6.023  10.350  1.0533 -0.5629 -2.5764
  133SAPE    C314327   5.093   6.043  10.393  0.2756  0.2693  0.4238
  133SAPE    HX14328   5.118   6.134  10.453 -0.2463  2.4550 -2.4403
  133SAPE    HY14329   5.016   5.981  10.444  0.8060 -0.9887 -0.2693
  133SAPE   O3114330   5.046   6.076  10.266 -0.2785 -0.4852  0.1415
  133SAPE   C3114331   4.924   6.125  10.254 -0.8848 -0.5083 -0.1064
  133SAPE   O3214332   4.855   6.150  10.345  0.1735  0.0043  0.0190
  133SAPE   C3214333   4.874   6.120  10.105  0.0782  0.6296 -0.0449
  133SAPE   H2X14334   4.954   6.067  10.048  0.6246  0.9807  0.3940
  133SAPE   H2Y14335   4.867   6.224  10.068 -1.1068  0.4554 -0.3798
  133SAPE   C2314336   5.571   6.162  10.202  0.4552  0.7756 -0.7196
  133SAPE   H3R14337   5.565   6.098  10.112  0.2554  1.1273 -0.9569
  133SAPE   H3S14338   5.669   6.215  10.198  1.6159 -0.7412  2.9594
  133SAPE   C2414339   5.466   6.279  10.193  0.9926 -0.1228  0.1087
  133SAPE   H4R14340   5.494   6.362  10.261  0.5436 -0.5300  0.8021
  133SAPE   H4S14341   5.364   6.242  10.213  1.1118 -0.6147 -0.1796
  133SAPE   C2514342   5.460   6.331  10.052 -1.3451  0.3950 -0.4773
  133SAPE   H5R14343   5.528   6.417  10.043 -0.0965 -0.2443  2.0413
  133SAPE   C2614344   5.399   6.282   9.938  0.5181 -0.3279 -0.0008
  133SAPE   H6R14345   5.409   6.353   9.854 -2.2109  0.2699  0.1086
  133SAPE   C2714346   5.311   6.163   9.915 -0.1047  0.6313 -0.2243
  133SAPE   H7R14347   5.288   6.117  10.013  1.6845 -0.5707 -0.3244
  133SAPE   H7S14348   5.377   6.091   9.862 -1.3328 -1.0571  0.4677
  133SAPE   C2814349   5.194   6.198   9.829  0.4579  0.4913  0.0529
  133SAPE   H8R14350   5.106   6.246   9.874  1.4925  2.8251 -0.2586
  133SAPE   C2914351   5.183   6.177   9.693 -0.2081  0.3768 -0.6235
  133SAPE   H9R14352   5.089   6.202   9.641 -1.0421  0.3278  0.8030
  133SAPE  C21014353   5.300   6.123   9.613 -0.3896  0.0099  0.0126
  133SAPE  H10R14354   5.396   6.162   9.654 -0.3732 -0.5608  0.5356
  133SAPE  H10S14355   5.294   6.169   9.512 -0.2599  1.2287  0.5478
  133SAPE  C21114356   5.312   5.973   9.616  0.3981  0.6470 -0.0550
  133SAPE  H11R14357   5.341   5.927   9.711  1.3392  0.3100 -0.4975
  133SAPE  C21214358   5.305   5.893   9.506  0.2935  0.2621 -0.2063
  133SAPE  H12R14359   5.327   5.786   9.520  0.5457 -0.0456 -2.4823
  133SAPE  C21314360   5.286   5.944   9.364 -0.0704 -0.2189 -0.1510
  133SAPE  H13R14361   5.359   6.026   9.343 -2.0121  1.6507  0.0672
  133SAPE  H13S14362   5.187   5.994   9.367  0.7403  1.3987  1.9597
  133SAPE  C21414363   5.291   5.849   9.251  0.8086  0.4201  0.5426
  133SAPE  H14R14364   5.322   5.747   9.278 -0.1407 -0.2870 -0.9218
  133SAPE  C21514365   5.272   5.893   9.126  0.2765  1.1658 -0.3871
  133SAPE  H15R14366   5.281   5.824   9.041 -0.2982  2.2014 -1.3176
  133SAPE  C21614367   5.235   6.032   9.096 -0.0387 -0.6001  0.0065
  133SAPE  H16R14368   5.216   6.095   9.186 -0.2249  2.4588 -2.0080
  133SAPE  H16S14369   5.139   6.049   9.043 -1.6619 -0.3944  2.7615
  133SAPE  C21714370   5.348   6.115   9.026 -0.3641 -0.1023 -0.2990
  133SAPE  H17R14371   5.439   6.087   9.085 -1.6938 -2.3488  0.8271
  133SAPE  H17S14372   5.335   6.224   9.041  1.8431 -0.0286  1.7100
  133SAPE  C21814373   5.379   6.080   8.882  0.0132 -0.0267 -0.3255
  133SAPE  H18R14374   5.306   6.116   8.807  2.6008  0.7970 -2.6376
  133SAPE  H18S14375   5.370   5.971   8.863 -2.5541  0.1496 -0.3788
  133SAPE  C21914376   5.519   6.132   8.840 -0.3341  0.5324  0.5287
  133SAPE  H19R14377   5.589   6.054   8.876 -0.2791  0.7577  0.9183
  133SAPE  H19S14378   5.536   6.226   8.897 -1.3973  1.5476 -0.7744
  133SAPE  C22014379   5.537   6.143   8.686  0.0584 -0.3205  0.4366
  133SAPE  H20R14380   5.473   6.229   8.658  1.4441  0.9886  1.1321
  133SAPE  H20S14381   5.514   6.047   8.635  0.2052  0.1301 -0.5080
  133SAPE  H20T14382   5.635   6.191   8.666  0.7762 -1.2924  1.5203
  133SAPE   C3314383   4.738   6.044  10.097 -0.1209 -0.4797  0.2116
  133SAPE   H3X14384   4.660   6.090  10.161 -0.4757 -1.3537  0.4284
  133SAPE   H3Y14385   4.749   5.942  10.140 -2.3970 -0.8339  0.0598
  133SAPE   C3414386   4.685   6.032   9.951  0.0911  0.0614 -0.3450
  133SAPE   H4X14387   4.760   5.972   9.896  0.4288  0.1602  0.0025
  133SAPE   H4Y14388   4.660   6.130   9.906 -2.5767 -0.5958 -0.4839
  133SAPE   C3514389   4.549   5.953   9.952 -1.3251  0.2214 -0.3185
  133SAPE   H5X14390   4.497   5.968  10.049 -1.2515  0.6736 -0.3448
  133SAPE   H5Y14391   4.571   5.845   9.943  0.3431  0.6587 -2.1488
  133SAPE   C3614392   4.450   5.991   9.848 -0.2587  0.0456 -0.9782
  133SAPE   H6X14393   4.441   6.102   9.854  0.2786  0.0045  1.7709
  133SAPE   H6Y14394   4.360   5.928   9.869  0.7363 -1.5335 -1.3041
  133SAPE   C3714395   4.499   5.943   9.712  0.3946  0.4687 -0.1324
  133SAPE   H7X14396   4.512   5.834   9.724 -3.4284 -0.0066  1.1468
  133SAPE   H7Y14397   4.599   5.985   9.689 -0.3908  0.4540 -4.5017
  133SAPE   C3814398   4.414   5.976   9.584 -0.4033 -0.0383  0.0674
  133SAPE   H8X14399   4.403   6.084   9.559 -1.7380 -0.7158 -2.6000
  133SAPE   H8Y14400   4.309   5.944   9.603 -0.0191 -1.7487 -0.6091
  133SAPE   C3914401   4.472   5.900   9.460 -0.1779  0.2204 -0.4171
  133SAPE   H9X14402   4.465   5.793   9.489 -1.1139  0.9606  2.4278
  133SAPE   H9Y14403   4.574   5.939   9.445  0.1541  0.1292  1.3533
  133SAPE  C31014404   4.395   5.915   9.325  0.0593 -0.4425 -0.7490
  133SAPE  H10X14405   4.388   6.024   9.304 -2.3132 -0.5034 -0.4884
  133SAPE  H10Y14406   4.289   5.886   9.340 -0.9696  3.4429  0.5224
  133SAPE  C31114407   4.471   5.857   9.209 -1.0982 -0.5538  0.7753
  133SAPE  H11X14408   4.482   5.750   9.235 -1.2957 -0.2799  2.0645
  133SAPE  H11Y14409   4.569   5.908   9.207 -1.1407 -0.4830 -1.5306
  133SAPE  C31214410   4.406   5.881   9.074  0.3936 -0.1916 -0.0354
  133SAPE  H12X14411   4.412   5.992   9.068  0.9871 -0.2241 -0.1103
  133SAPE  H12Y14412   4.301   5.844   9.073 -0.4063  1.8080  1.9525
  133SAPE  C31314413   4.478   5.819   8.955  0.0716  0.4176 -0.7130
  133SAPE  H13X14414   4.477   5.708   8.961  0.2465  0.4955  2.0526
  133SAPE  H13Y14415   4.584   5.852   8.963 -0.0176  0.3421  1.3141
  133SAPE  C31414416   4.418   5.868   8.820  0.2006 -0.9897 -0.2406
  133SAPE  H14X14417   4.434   5.976   8.803 -0.4527 -0.9390 -0.5508
  133SAPE  H14Y14418   4.315   5.829   8.810  0.4921 -1.5508 -1.1682
  133SAPE  C31514419   4.488   5.794   8.701 -0.1207 -0.4039  0.0910
  133SAPE  H15X14420   4.464   5.685   8.707 -0.4038 -0.2999  0.9535
  133SAPE  H15Y14421   4.594   5.819   8.720 -0.9281  1.3741  2.8018
  133SAPE  C31614422   4.447   5.854   8.565 -0.4676 -0.4638  0.3334
  133SAPE  H16X14423   4.441   5.964   8.578  2.3477 -0.2452  0.3998
  133SAPE  H16Y14424   4.339   5.829   8.558 -0.6921  0.6583 -0.5210
  133SAPE  C31714425   4.542   5.816   8.454  0.2836  0.2021  0.2565
  133SAPE  H17X14426   4.564   5.710   8.475 -0.8400 -0.7054 -2.6575
  133SAPE  H17Y14427   4.640   5.867   8.467  1.3910 -1.3919 -1.4498
  133SAPE  C31814428   4.502   5.851   8.310  0.1417  0.1734  0.3782
  133SAPE  H18X14429   4.413   5.793   8.279  1.2308 -2.0196  1.1540
  133SAPE  H18Y14430   4.581   5.828   8.235 -1.4008 -1.4329 -0.8316
  133SAPE  H18Z14431   4.478   5.960   8.309  3.1943  0.9647  0.2033
  134SAPE     N14432   2.783   4.122  10.911 -0.2475  0.2935  0.6887
  134SAPE   HN114433   2.813   4.194  10.980  1.2469  1.9772 -1.5861
  134SAPE   HN214434   2.875   4.100  10.869 -0.5803  0.0951  0.0481
  134SAPE   HN314435   2.742   4.173  10.831 -1.4750 -0.5473  0.7467
  134SAPE   C1214436   2.704   4.004  10.959  0.4374  0.0381 -0.5430
  134SAPE  H12A14437   2.608   4.050  10.992  2.2161  2.8336  1.1699
  134SAPE  H12B14438   2.755   3.967  11.050  0.6834 -1.6875 -1.3459
  134SAPE   C1114439   2.684   3.897  10.853 -0.1856 -0.8107  0.4447
  134SAPE  H11A14440   2.664   3.799  10.900  0.2145 -0.5994  1.0628
  134SAPE  H11B14441   2.772   3.893  10.785  0.6820  1.0618  1.3729
  134SAPE     P14442   2.440   3.852  10.765 -0.0886  0.2799 -0.1590
  134SAPE   O1314443   2.421   3.767  10.885  0.0903  0.4579 -0.1716
  134SAPE   O1414444   2.329   3.947  10.740 -0.1845 -0.4800 -0.1751
  134SAPE   O1214445   2.574   3.935  10.769  0.1947  0.1272  0.2545
  134SAPE   O1114446   2.448   3.770  10.635  0.2969 -0.0283 -0.1097
  134SAPE    C114447   2.573   3.748  10.564 -0.3301  0.0158 -0.1429
  134SAPE    HA14448   2.650   3.728  10.641 -0.2366  0.0528 -0.2268
  134SAPE    HB14449   2.572   3.651  10.510  4.7839 -0.8299  0.7458
  134SAPE    C214450   2.613   3.852  10.460 -0.5073 -0.5833 -0.3353
  134SAPE    HS14451   2.637   3.947  10.511  3.7435  0.9629 -4.5388
  134SAPE   O2114452   2.512   3.882  10.361  0.0947  0.0586  0.7364
  134SAPE   C2114453   2.529   3.993  10.290 -0.1143  0.0561  0.2493
  134SAPE   O2214454   2.603   4.089  10.318 -0.2975  0.0197  0.1386
  134SAPE   C2214455   2.416   4.002  10.193 -0.2504 -0.2215  0.2954
  134SAPE   H2R14456   2.367   3.905  10.173  1.7533 -1.5916  1.6023
  134SAPE   H2S14457   2.340   4.074  10.230 -3.0698 -2.4414 -0.7943
  134SAPE    C314458   2.752   3.814  10.392 -0.8556 -0.0062 -0.0561
  134SAPE    HX14459   2.824   3.792  10.474 -0.4822 -0.5617 -0.5295
  134SAPE    HY14460   2.783   3.907  10.339  0.6677 -1.2799 -1.5307
  134SAPE   O3114461   2.745   3.712  10.288  0.4389 -0.4859 -0.6207
  134SAPE   C3114462   2.775   3.591  10.314 -0.7301 -0.5371 -0.8782
  134SAPE   O3214463   2.807   3.537  10.417 -0.4858  0.1285 -0.8497
  134SAPE   C3214464   2.773   3.513  10.182 -0.3061 -0.6551  0.4747
  134SAPE   H2X14465   2.868   3.527  10.127 -0.3402 -0.6885  0.4071
  134SAPE   H2Y14466   2.696   3.561  10.117  1.3740 -0.5595 -1.5326
  134SAPE   C2314467   2.460   4.050  10.050 -0.0020 -0.2993  0.8670
  134SAPE   H3R14468   2.498   4.154  10.049 -2.9799  0.9872 -3.0212
  134SAPE   H3S14469   2.387   4.034   9.968  0.5629 -1.7546  0.6090
  134SAPE   C2414470   2.588   3.975  10.003  0.4742  0.5778  0.6186
  134SAPE   H4R14471   2.674   4.001  10.067  1.5668  0.4045 -0.7210
  134SAPE   H4S14472   2.619   4.011   9.902 -1.5609  0.3672 -0.1311
  134SAPE   C2514473   2.570   3.824   9.997  0.5463 -0.0368  0.3058
  134SAPE   H5R14474   2.514   3.777  10.079 -2.6411  0.5931 -1.3491
  134SAPE   C2614475   2.623   3.741   9.906  0.1585  1.3293 -0.3308
  134SAPE   H6R14476   2.603   3.632   9.909  1.8658  0.9989  0.8964
  134SAPE   C2714477   2.707   3.781   9.795  0.0439 -0.2699  0.8628
  134SAPE   H7R14478   2.748   3.689   9.748 -1.3723 -0.0229 -0.9668
  134SAPE   H7S14479   2.789   3.849   9.826 -0.5151  1.2004 -0.7000
  134SAPE   C2814480   2.624   3.850   9.682 -0.0180 -0.4733  0.2304
  134SAPE   H8R14481   2.555   3.931   9.710 -0.2596 -0.3978 -0.5433
  134SAPE   C2914482   2.639   3.837   9.546  0.6218 -0.2904 -0.7764
  134SAPE   H9R14483   2.597   3.914   9.480 -0.5716 -1.2225 -1.1317
  134SAPE  C21014484   2.737   3.753   9.465  1.0743 -0.7947 -0.6498
  134SAPE  H10R14485   2.676   3.682   9.405 -0.4593 -1.3376  1.4594
  134SAPE  H10S14486   2.804   3.692   9.529  1.9232  2.5608  1.9570
  134SAPE  C21114487   2.823   3.834   9.378  0.1482 -0.9265  0.7397
  134SAPE  H11R14488   2.893   3.907   9.422 -0.1102 -0.0500 -0.2659
  134SAPE  C21214489   2.821   3.836   9.240 -0.4756  0.0644  0.3115
  134SAPE  H12R14490   2.901   3.890   9.187  0.7613 -1.7923  0.1891
  134SAPE  C21314491   2.733   3.757   9.138  0.1060 -0.6591  0.1920
  134SAPE  H13R14492   2.697   3.662   9.181 -0.3310  0.0065  1.3169
  134SAPE  H13S14493   2.789   3.734   9.045 -0.2549  0.5405 -0.3421
  134SAPE  C21414494   2.611   3.843   9.105 -0.4558 -0.2437 -0.1738
  134SAPE  H14R14495   2.574   3.905   9.188 -0.7410 -0.3656 -0.2125
  134SAPE  C21514496   2.553   3.860   8.984 -0.2526  0.1263  0.0773
  134SAPE  H15R14497   2.462   3.922   8.978 -1.2994 -1.2507  0.8720
  134SAPE  C21614498   2.602   3.794   8.852  0.4784 -0.2470  0.0081
  134SAPE  H16R14499   2.516   3.789   8.782  1.3717  0.3452 -1.1749
  134SAPE  H16S14500   2.639   3.693   8.880  0.4268 -0.0118  0.9517
  134SAPE  C21714501   2.710   3.874   8.788 -0.2148 -0.2142  0.4958
  134SAPE  H17R14502   2.772   3.903   8.876 -2.4329  0.9592  1.7674
  134SAPE  H17S14503   2.669   3.969   8.748  0.2455 -0.8642 -1.6381
  134SAPE  C21814504   2.782   3.802   8.674  0.8506 -0.3215  0.4812
  134SAPE  H18R14505   2.706   3.764   8.602  0.3315 -0.6868  1.2069
  134SAPE  H18S14506   2.842   3.718   8.715  2.5636  1.8901  2.8700
  134SAPE  C21914507   2.885   3.887   8.598 -0.5660  0.8587 -0.0907
  134SAPE  H19R14508   2.959   3.922   8.673 -1.1223  0.4466  0.6699
  134SAPE  H19S14509   2.838   3.982   8.565  1.7169  1.5303 -1.5721
  134SAPE  C22014510   2.946   3.837   8.465  0.7287  0.5492 -0.7331
  134SAPE  H20R14511   2.874   3.825   8.382  0.1804  0.3671 -0.2392
  134SAPE  H20S14512   2.998   3.739   8.476  1.2848  0.9708  0.7489
  134SAPE  H20T14513   3.026   3.910   8.437  0.7490 -0.5129 -3.7663
  134SAPE   C3314514   2.765   3.360  10.207  0.5206 -0.0370  0.0606
  134SAPE   H3X14515   2.663   3.327  10.235  0.7596 -0.0860  0.8921
  134SAPE   H3Y14516   2.835   3.346  10.292  0.8477  1.5692  0.0874
  134SAPE   C3414517   2.814   3.275  10.086 -0.6726 -0.0832 -0.3028
  134SAPE   H4X14518   2.797   3.167  10.104  2.2313 -0.4302  0.7490
  134SAPE   H4Y14519   2.923   3.291  10.072 -0.3413  0.1735  2.1796
  134SAPE   C3514520   2.750   3.318   9.956 -0.1796  0.2202  0.1839
  134SAPE   H5X14521   2.741   3.429   9.949  3.6074  0.8568  2.6446
  134SAPE   H5Y14522   2.646   3.280   9.944 -1.2872  2.7601  0.9442
  134SAPE   C3614523   2.834   3.272   9.829 -0.7994 -0.2220 -0.3214
  134SAPE   H6X14524   2.820   3.163   9.816  1.2064 -0.6139  0.4014
  134SAPE   H6Y14525   2.943   3.288   9.848 -1.1006  0.1024  1.2241
  134SAPE   C3714526   2.798   3.351   9.704 -0.7283 -0.5654 -0.3723
  134SAPE   H7X14527   2.834   3.455   9.716  1.8999 -1.4504  0.1854
  134SAPE   H7Y14528   2.688   3.364   9.705 -0.8754 -0.9656  3.2077
  134SAPE   C3814529   2.856   3.295   9.571  0.3397 -0.6976 -0.4753
  134SAPE   H8X14530   2.833   3.186   9.576 -0.4361 -0.4941  2.0480
  134SAPE   H8Y14531   2.967   3.305   9.564  0.4272 -0.7832  0.5882
  134SAPE   C3914532   2.785   3.352   9.451 -0.6221  0.2389 -0.0687
  134SAPE   H9X14533   2.786   3.463   9.438  0.8126  0.3146  0.5080
  134SAPE   H9Y14534   2.681   3.324   9.478 -0.7877  0.7162 -0.1973
  134SAPE  C31014535   2.838   3.275   9.325 -1.1217  0.2047 -0.0757
  134SAPE  H10X14536   2.824   3.167   9.347  1.1116  0.2378  1.8686
  134SAPE  H10Y14537   2.945   3.303   9.317 -1.2829  1.0435  0.5695
  134SAPE  C31114538   2.759   3.320   9.199 -0.0987 -0.1124 -0.2216
  134SAPE  H11X14539   2.762   3.431   9.210  2.3538  0.0283 -1.4642
  134SAPE  H11Y14540   2.655   3.289   9.222  0.2156  0.0060  1.4637
  134SAPE  C31214541   2.808   3.281   9.060 -0.3788  0.2853  0.0125
  134SAPE  H12X14542   2.814   3.170   9.048  0.5473  0.0440  2.1944
  134SAPE  H12Y14543   2.912   3.314   9.040 -0.3403 -0.1084 -0.4773
  134SAPE  C31314544   2.714   3.339   8.947 -0.5531 -0.9944 -0.0321
  134SAPE  H13X14545   2.685   3.443   8.975  0.4828 -0.9515  0.9510
  134SAPE  H13Y14546   2.622   3.277   8.936  0.6232 -2.4722 -2.1428
  134SAPE  C31414547   2.783   3.342   8.817  0.1791  0.4705  0.2024
  134SAPE  H14X14548   2.818   3.239   8.792 -1.7109 -0.4300  1.0442
  134SAPE  H14Y14549   2.878   3.400   8.821  1.1109 -0.9220 -0.5717
  134SAPE  C31514550   2.701   3.390   8.701  0.3062 -0.5801 -0.2212
  134SAPE  H15X14551   2.676   3.495   8.730 -0.9210 -0.5909 -1.1472
  134SAPE  H15Y14552   2.604   3.337   8.686  0.2285 -0.6066  0.3483
  134SAPE  C31614553   2.785   3.392   8.575 -0.8873 -0.3684  0.0480
  134SAPE  H16X14554   2.814   3.287   8.553  3.7612  0.3408  1.5076
  134SAPE  H16Y14555   2.882   3.444   8.588 -1.1267 -0.2018  1.2815
  134SAPE  C31714556   2.731   3.466   8.446 -0.7812 -0.7630 -0.5976
  134SAPE  H17X14557   2.805   3.435   8.369  1.6357 -0.7985  1.5894
  134SAPE  H17Y14558   2.744   3.574   8.464  0.8656 -1.0144 -0.0635
  134SAPE  C31814559   2.593   3.426   8.399 -0.0732 -0.5820  0.2818
  134SAPE  H18X14560   2.563   3.465   8.300 -0.2497 -2.2473 -0.3499
  134SAPE  H18Y14561   2.520   3.480   8.464 -1.0422 -1.0630 -0.3770
  134SAPE  H18Z14562   2.568   3.318   8.391 -1.8804 -0.1924  0.0932
  135SAPE     N14563   1.684   2.645  10.587 -0.6276  0.0400  0.0877
  135SAPE   HN114564   1.763   2.589  10.625 -0.2689  0.6548  0.2608
  135SAPE   HN214565   1.612   2.647  10.662 -0.4648  2.8531  0.2722
  135SAPE   HN314566   1.645   2.594  10.505 -1.5640  1.7502 -0.5942
  135SAPE   C1214567   1.703   2.775  10.517 -0.1840  0.3399 -0.4824
  135SAPE  H12A14568   1.794   2.769  10.453  1.3195 -1.1893  1.6538
  135SAPE  H12B14569   1.721   2.852  10.595  0.3199  0.0762 -0.3329
  135SAPE   C1114570   1.583   2.811  10.432 -0.4247 -0.0002 -0.9250
  135SAPE  H11A14571   1.580   2.746  10.342  1.7531 -1.8757  0.2469
  135SAPE  H11B14572   1.597   2.916  10.398 -0.3658  0.4508  0.4115
  135SAPE     P14573   1.320   2.815  10.443 -0.0999 -0.0436 -0.2853
  135SAPE   O1314574   1.241   2.699  10.483 -0.1391 -0.2307  0.3098
  135SAPE   O1414575   1.261   2.950  10.462 -0.2974 -0.3022 -0.2288
  135SAPE   O1214576   1.462   2.797  10.502  0.3342  0.6130  0.3550
  135SAPE   O1114577   1.357   2.805  10.293  0.0852  0.1789 -0.1518
  135SAPE    C114578   1.267   2.744  10.194  0.1078 -0.8481 -0.4377
  135SAPE    HA14579   1.172   2.715  10.243 -0.8327  3.7771  0.9726
  135SAPE    HB14580   1.241   2.821  10.118  0.2122  0.0868  0.4560
  135SAPE    C214581   1.330   2.618  10.131  0.0026  0.0907 -1.0018
  135SAPE    HS14582   1.374   2.566  10.219  0.5527 -1.7658 -2.3120
  135SAPE   O2114583   1.438   2.658  10.043 -0.4221  0.1079 -1.1473
  135SAPE   C2114584   1.526   2.567  10.017  0.4554 -0.5673  0.0259
  135SAPE   O2214585   1.516   2.447  10.042 -0.0862 -0.4003 -0.7889
  135SAPE   C2214586   1.647   2.629   9.948  0.7065 -0.3747  0.1148
  135SAPE   H2R14587   1.621   2.731   9.911  0.1477 -0.0938  1.2556
  135SAPE   H2S14588   1.728   2.633  10.023  1.2238 -0.7354 -0.4114
  135SAPE    C314589   1.226   2.532  10.054 -0.1939 -0.4783 -0.7787
  135SAPE    HX14590   1.161   2.472  10.121 -1.1980  1.2966 -0.1022
  135SAPE    HY14591   1.287   2.456  10.001 -0.6195  0.2125 -2.3010
  135SAPE   O3114592   1.144   2.615   9.973 -0.2771 -0.4457 -0.6938
  135SAPE   C3114593   1.190   2.640   9.851  0.9327  0.0092 -0.3482
  135SAPE   O3214594   1.285   2.585   9.793  0.1344 -0.0327  0.0788
  135SAPE   C3214595   1.099   2.736   9.779  0.0714  0.8838  0.5755
  135SAPE   H2X14596   1.126   2.839   9.812  0.6829  1.4472 -1.5344
  135SAPE   H2Y14597   0.994   2.721   9.812  0.0242  0.4170  0.2251
  135SAPE   C2314598   1.682   2.540   9.823 -0.6629 -0.0072 -0.0596
  135SAPE   H3R14599   1.583   2.526   9.775 -1.6218 -0.4360  1.9646
  135SAPE   H3S14600   1.710   2.439   9.860 -0.7302  0.9198  2.7708
  135SAPE   C2414601   1.786   2.586   9.716 -0.1729  0.1760  0.0395
  135SAPE   H4R14602   1.759   2.692   9.699 -0.1869  0.3058  0.8087
  135SAPE   H4S14603   1.771   2.527   9.623  0.0380 -0.8229  0.6235
  135SAPE   C2514604   1.929   2.596   9.766 -0.4428 -0.4081 -1.3199
  135SAPE   H5R14605   1.948   2.672   9.844  2.4219 -1.1830 -1.1719
  135SAPE   C2614606   2.030   2.525   9.724 -0.7266 -0.9652  0.0385
  135SAPE   H6R14607   2.133   2.538   9.761 -0.5804 -1.5218 -0.1734
  135SAPE   C2714608   2.013   2.424   9.614 -0.0156 -0.2035  0.1292
  135SAPE   H7R14609   1.966   2.472   9.526  0.9796 -0.2431 -0.4355
  135SAPE   H7S14610   1.947   2.341   9.647 -1.2070  0.4117 -0.6197
  135SAPE   C2814611   2.150   2.367   9.573  0.0325  0.0035  0.1818
  135SAPE   H8R14612   2.206   2.317   9.654  1.4673 -2.1482 -2.0015
  135SAPE   C2914613   2.202   2.365   9.448 -1.2723  0.4638 -0.5244
  135SAPE   H9R14614   2.304   2.325   9.436 -0.5473  1.8769  0.6372
  135SAPE  C21014615   2.140   2.421   9.323 -0.1405  0.4165 -0.6122
  135SAPE  H10R14616   2.215   2.468   9.255 -0.1063 -2.4521 -2.7435
  135SAPE  H10S14617   2.089   2.514   9.355 -1.7268  0.0762 -1.9957
  135SAPE  C21114618   2.056   2.323   9.245 -0.6148  0.1046  0.3097
  135SAPE  H11R14619   2.052   2.223   9.291  2.1066  0.1551  0.8384
  135SAPE  C21214620   1.995   2.347   9.125  0.2736  0.3732  0.1548
  135SAPE  H12R14621   1.936   2.259   9.094  0.0455 -1.4296  4.8703
  135SAPE  C21314622   1.984   2.474   9.049  0.3275 -0.1439  0.1092
  135SAPE  H13R14623   2.021   2.564   9.103 -0.4316 -0.1947  0.7258
  135SAPE  H13S14624   1.880   2.509   9.032  0.4081  1.5352  2.5953
  135SAPE  C21414625   2.044   2.466   8.909 -0.6661 -0.7761  0.2205
  135SAPE  H14R14626   2.049   2.362   8.876 -1.6253 -1.1085  1.0528
  135SAPE  C21514627   2.058   2.561   8.813  0.1979 -0.5744 -0.1453
  135SAPE  H15R14628   2.086   2.530   8.712 -1.3483  1.1681 -1.1836
  135SAPE  C21614629   2.014   2.709   8.830  0.0314  1.0073  0.5404
  135SAPE  H16R14630   2.079   2.777   8.771 -2.0366  1.2466 -1.6143
  135SAPE  H16S14631   2.018   2.741   8.936  0.1480  2.5074  0.1034
  135SAPE  C21714632   1.867   2.743   8.793 -0.7959  0.0101  0.5884
  135SAPE  H17R14633   1.806   2.670   8.850  0.2506  0.5127  2.4311
  135SAPE  H17S14634   1.852   2.715   8.687 -0.1935  1.1405  0.1914
  135SAPE  C21814635   1.827   2.896   8.809  0.1524  0.3343  0.5710
  135SAPE  H18R14636   1.908   2.940   8.747 -0.7172  0.4315 -0.5311
  135SAPE  H18S14637   1.833   2.930   8.914  0.9545  0.4433  0.4969
  135SAPE  C21914638   1.691   2.940   8.750 -0.0194 -0.0003 -0.0522
  135SAPE  H19R14639   1.680   2.893   8.650 -1.0453  1.5732 -0.7265
  135SAPE  H19S14640   1.697   3.051   8.742  0.5614 -0.0608 -0.5286
  135SAPE  C22014641   1.583   2.919   8.854 -0.1366 -0.1903  0.0402
  135SAPE  H20R14642   1.487   2.934   8.800 -0.7423 -0.4729  1.0111
  135SAPE  H20S14643   1.598   2.976   8.948 -1.3132 -3.0962  2.1143
  135SAPE  H20T14644   1.574   2.814   8.889  0.6908 -0.3534 -0.1966
  135SAPE   C3314645   1.097   2.725   9.623 -0.0355  0.9828 -0.2832
  135SAPE   H3X14646   1.167   2.646   9.587  0.0595  0.0607  1.7595
  135SAPE   H3Y14647   1.132   2.824   9.586  1.1448  1.7674  2.6265
  135SAPE   C3414648   0.953   2.709   9.574  0.5579 -0.2875  0.0319
  135SAPE   H4X14649   0.896   2.804   9.578  2.4238  0.9751 -1.8610
  135SAPE   H4Y14650   0.899   2.641   9.644 -0.2414 -1.0973 -1.3374
  135SAPE   C3514651   0.942   2.640   9.437 -0.1028  0.4368  0.4395
  135SAPE   H5X14652   0.842   2.659   9.395  0.0176  1.7042  0.7013
  135SAPE   H5Y14653   0.973   2.533   9.447 -0.4372  0.2105 -0.7504
  135SAPE   C3614654   1.032   2.700   9.320 -0.1245 -0.1400 -0.2257
  135SAPE   H6X14655   1.137   2.713   9.353  0.0451 -0.1475 -0.7488
  135SAPE   H6Y14656   0.995   2.802   9.293  0.2752 -0.4270 -2.0117
  135SAPE   C3714657   1.022   2.618   9.186  0.6828 -0.1549  0.1470
  135SAPE   H7X14658   0.918   2.621   9.147  1.3880  3.5291 -1.8530
  135SAPE   H7Y14659   1.064   2.516   9.204  2.1858 -0.5933 -4.5425
  135SAPE   C3814660   1.114   2.677   9.078 -0.6023  0.5425 -0.2174
  135SAPE   H8X14661   1.205   2.613   9.069 -0.1483  1.1822 -0.3028
  135SAPE   H8Y14662   1.149   2.781   9.097 -0.3811  0.3997  0.1619
  135SAPE   C3914663   1.070   2.673   8.931  0.7746 -0.9112 -0.0414
  135SAPE   H9X14664   0.993   2.750   8.909  1.6305 -0.6024 -2.1109
  135SAPE   H9Y14665   1.013   2.579   8.912  1.5663 -1.3935 -0.0778
  135SAPE  C31014666   1.186   2.679   8.835 -0.3319 -0.1901 -0.1390
  135SAPE  H10X14667   1.236   2.580   8.826  1.0137  0.3137  1.3005
  135SAPE  H10Y14668   1.267   2.733   8.888  0.2220 -2.8494  1.9474
  135SAPE  C31114669   1.155   2.741   8.702 -0.4670 -0.3532 -0.3066
  135SAPE  H11X14670   1.078   2.821   8.696 -0.8369 -0.8027 -2.3172
  135SAPE  H11Y14671   1.103   2.666   8.639 -1.6232 -0.2835  0.5379
  135SAPE  C31214672   1.285   2.791   8.628 -0.1220 -0.5295  0.9113
  135SAPE  H12X14673   1.363   2.712   8.636  1.2092  0.7100  0.8234
  135SAPE  H12Y14674   1.322   2.888   8.670  0.5127  1.6276 -3.9272
  135SAPE  C31314675   1.264   2.804   8.469 -0.3224  0.0616 -0.3077
  135SAPE  H13X14676   1.189   2.884   8.451  0.9154  0.7656 -2.8309
  135SAPE  H13Y14677   1.235   2.709   8.418  0.6147  0.9694 -2.6805
  135SAPE  C31414678   1.404   2.838   8.402 -0.1004  0.4821  0.6841
  135SAPE  H14X14679   1.474   2.754   8.390 -0.3041  0.4616 -0.3945
  135SAPE  H14Y14680   1.436   2.922   8.468  0.5359  1.7849 -1.1956
  135SAPE  C31514681   1.388   2.895   8.260 -0.0315  0.4892 -0.1536
  135SAPE  H15X14682   1.344   2.811   8.203 -1.4881  0.4600  0.9553
  135SAPE  H15Y14683   1.487   2.916   8.215  0.0636  1.8176  0.6453
  135SAPE  C31614684   1.300   3.021   8.238  0.0905  0.9623  0.7200
  135SAPE  H16X14685   1.322   3.093   8.320  0.9800  1.1610  0.3222
  135SAPE  H16Y14686   1.195   2.989   8.254  0.3375 -0.2335  0.0315
  135SAPE  C31714687   1.324   3.091   8.107  0.2202  0.3748 -0.1623
  135SAPE  H17X14688   1.431   3.118   8.103 -0.0581  1.5140 -0.4866
  135SAPE  H17Y14689   1.270   3.188   8.121  0.4355  0.3663  0.7745
  135SAPE  C31814690   1.273   3.016   7.980 -0.4752 -0.1706 -0.4500
  135SAPE  H18X14691   1.167   3.000   8.011  0.0642 -0.4254  1.3520
  135SAPE  H18Y14692   1.318   2.917   7.959  0.4075  0.6644 -2.8983
  135SAPE  H18Z14693   1.291   3.070   7.885  0.3373  0.2991 -0.0352
  136SAPE     N14694   5.585   3.537  11.154 -0.6126 -0.4308  0.0010
  136SAPE   HN114695   5.623   3.472  11.083 -1.5398 -0.2006 -0.7218
  136SAPE   HN214696   5.605   3.633  11.120  2.3400 -0.3650  1.5806
  136SAPE   HN314697   5.633   3.538  11.247 -0.3484  1.5299 -0.1138
  136SAPE   C1214698   5.432   3.525  11.159 -0.3481 -0.9273  0.4214
  136SAPE  H12A14699   5.397   3.616  11.213 -0.1401  0.3067 -1.4588
  136SAPE  H12B14700   5.394   3.434  11.210 -1.7765  0.8116  2.7056
  136SAPE   C1114701   5.377   3.519  11.021  0.5070 -0.1003  0.3935
  136SAPE  H11A14702   5.423   3.598  10.957  0.1441  1.2353  1.7382
  136SAPE  H11B14703   5.268   3.539  11.028  0.2093 -0.6078 -1.9533
  136SAPE     P14704   5.301   3.289  10.931 -0.2201  0.0393 -0.3847
  136SAPE   O1314705   5.369   3.168  10.877  0.0582  0.3067 -0.2937
  136SAPE   O1414706   5.213   3.275  11.055  0.2176 -0.2972  0.5817
  136SAPE   O1214707   5.413   3.393  10.965 -0.2237 -0.4424 -0.2045
  136SAPE   O1114708   5.229   3.363  10.813 -0.2312 -0.8040  0.1234
  136SAPE    C114709   5.301   3.413  10.696  0.3556  0.0668 -0.4010
  136SAPE    HA14710   5.320   3.521  10.713  1.4231 -0.1086 -0.3593
  136SAPE    HB14711   5.402   3.366  10.694  0.0064 -1.2422  3.6401
  136SAPE    C214712   5.231   3.397  10.558  0.3164  0.3123 -0.0671
  136SAPE    HS14713   5.134   3.450  10.570  0.4745  0.3287  1.3034
  136SAPE   O2114714   5.212   3.256  10.531  1.2373 -0.0205 -0.7808
  136SAPE   C2114715   5.099   3.204  10.588 -0.6485  0.6140 -0.0309
  136SAPE   O2214716   5.004   3.267  10.622  0.6035  0.4124  0.3523
  136SAPE   C2214717   5.107   3.052  10.596 -0.4779 -0.6727 -0.2666
  136SAPE   H2R14718   5.211   3.015  10.610 -0.8263 -1.2861  0.8764
  136SAPE   H2S14719   5.050   3.045  10.691  1.0076  5.1775  1.4341
  136SAPE    C314720   5.318   3.454  10.452 -0.0192  0.0827 -0.3138
  136SAPE    HX14721   5.416   3.403  10.462 -0.3695 -0.5231  0.1062
  136SAPE    HY14722   5.337   3.562  10.474  0.8525 -0.3497  1.2391
  136SAPE   O3114723   5.284   3.426  10.321  0.0152 -0.1262  0.3759
  136SAPE   C3114724   5.186   3.486  10.259  0.1285  0.0114 -0.7569
  136SAPE   O3214725   5.119   3.574  10.312  0.4519  0.4370 -0.4774
  136SAPE   C3214726   5.181   3.446  10.115  0.0559  0.0739  0.6712
  136SAPE   H2X14727   5.071   3.442  10.096  0.2756  1.7716 -1.3855
  136SAPE   H2Y14728   5.221   3.344  10.099 -2.6546 -0.8511 -1.0456
  136SAPE   C2314729   5.026   3.008  10.466 -0.3538  0.1605 -0.4276
  136SAPE   H3R14730   4.945   3.080  10.441  0.6059  1.0266 -1.1549
  136SAPE   H3S14731   4.978   2.914  10.501  0.0584 -0.1728 -0.7351
  136SAPE   C2414732   5.100   2.959  10.337  0.1668  0.0389 -0.1656
  136SAPE   H4R14733   5.150   2.864  10.363 -0.6471 -0.5996 -0.8590
  136SAPE   H4S14734   5.183   3.029  10.310 -0.0315  1.1804  2.0091
  136SAPE   C2514735   5.010   2.928  10.220  0.1762 -0.0258  0.0808
  136SAPE   H5R14736   4.951   2.836  10.233 -0.6474  0.6831  1.6834
  136SAPE   C2614737   4.989   3.001  10.107  0.3182  0.4053  0.4738
  136SAPE   H6R14738   4.920   2.965  10.030  0.9364 -0.9574  0.5322
  136SAPE   C2714739   5.071   3.127  10.082  0.2536 -0.0194 -0.2434
  136SAPE   H7R14740   5.064   3.188  10.174 -0.0988  0.6245 -0.6901
  136SAPE   H7S14741   5.023   3.185  10.000 -1.6624 -0.1357  0.7264
  136SAPE   C2814742   5.211   3.089  10.053 -0.9253 -0.1322  0.4650
  136SAPE   H8R14743   5.275   3.047  10.132 -0.1435  2.6475  1.4248
  136SAPE   C2914744   5.266   3.097   9.927  0.5843  0.7120  0.3322
  136SAPE   H9R14745   5.374   3.082   9.910  0.7224  0.0669  1.6341
  136SAPE  C21014746   5.195   3.138   9.802 -0.3878  0.2796  0.3381
  136SAPE  H10R14747   5.223   3.244   9.786  0.4819  0.2233  1.3964
  136SAPE  H10S14748   5.084   3.142   9.811 -0.3910 -0.5855  0.8699
  136SAPE  C21114749   5.238   3.050   9.691  0.5278  0.4883  0.8006
  136SAPE  H11R14750   5.279   2.951   9.715 -1.0049 -0.6875 -1.1103
  136SAPE  C21214751   5.240   3.091   9.564 -0.1289  0.0351 -0.3505
  136SAPE  H12R14752   5.261   3.010   9.492 -2.5326  0.1169 -1.2282
  136SAPE  C21314753   5.193   3.224   9.507  0.5029  0.2458 -0.3702
  136SAPE  H13R14754   5.154   3.300   9.578 -0.2646  0.2727 -0.8076
  136SAPE  H13S14755   5.105   3.209   9.440  0.5184 -2.3515  0.0730
  136SAPE  C21414756   5.301   3.286   9.426 -0.3222  0.0242 -0.6050
  136SAPE  H14R14757   5.360   3.214   9.367  0.9446 -0.2763  0.9542
  136SAPE  C21514758   5.350   3.410   9.445 -0.4969 -0.3701  0.2815
  136SAPE  H15R14759   5.435   3.424   9.376  0.9123 -1.9594  1.5797
  136SAPE  C21614760   5.305   3.523   9.537 -0.1585 -0.2749 -0.1610
  136SAPE  H16R14761   5.380   3.605   9.548 -0.9064  0.3002  0.8863
  136SAPE  H16S14762   5.290   3.482   9.639 -1.2035  1.9103  0.6333
  136SAPE  C21714763   5.169   3.594   9.499  0.2749  0.5825 -0.6275
  136SAPE  H17R14764   5.134   3.659   9.583  0.5060  1.3657 -1.1201
  136SAPE  H17S14765   5.096   3.510   9.495  2.3496 -1.5194  1.9947
  136SAPE  C21814766   5.178   3.682   9.376 -0.4020  0.2623  0.3429
  136SAPE  H18R14767   5.215   3.610   9.299 -1.1482  1.3460 -1.0967
  136SAPE  H18S14768   5.248   3.762   9.405  1.7895 -1.2778 -0.3783
  136SAPE  C21914769   5.045   3.742   9.327 -0.7509  0.5577  0.3751
  136SAPE  H19R14770   4.994   3.781   9.418  1.3621 -2.2560  2.9715
  136SAPE  H19S14771   4.978   3.663   9.289  1.3775 -0.3814 -1.6709
  136SAPE  C22014772   5.063   3.846   9.216  0.0779  0.3221  0.0341
  136SAPE  H20R14773   5.125   3.933   9.247 -1.4891  0.4380  3.2975
  136SAPE  H20S14774   4.965   3.892   9.188  0.1086  0.9904  0.9676
  136SAPE  H20T14775   5.104   3.793   9.127 -1.8426 -0.9177 -0.1822
  136SAPE   C3314776   5.242   3.554  10.017 -0.9645 -0.1443  0.3367
  136SAPE   H3X14777   5.259   3.505   9.918  0.5241  0.8842  0.0452
  136SAPE   H3Y14778   5.342   3.580  10.057 -1.1524 -0.0910  0.7759
  136SAPE   C3414779   5.172   3.690  10.002  0.2678  0.2383  0.6525
  136SAPE   H4X14780   5.151   3.731  10.104 -0.4797  0.5556  0.3781
  136SAPE   H4Y14781   5.077   3.654   9.959  0.4595  0.0947  0.3462
  136SAPE   C3514782   5.234   3.792   9.908  0.2040  0.1192  0.0128
  136SAPE   H5X14783   5.247   3.751   9.805 -0.9419  2.7225 -1.2741
  136SAPE   H5Y14784   5.335   3.819   9.945  0.2338  0.9475 -0.6403
  136SAPE   C3614785   5.143   3.920   9.885 -0.0497  0.1136  0.0723
  136SAPE   H6X14786   5.079   3.943   9.973 -0.9971 -2.6775  0.2085
  136SAPE   H6Y14787   5.089   3.894   9.791 -0.0440 -0.0450  0.1127
  136SAPE   C3714788   5.236   4.042   9.865  0.1138  0.2883 -0.1114
  136SAPE   H7X14789   5.301   4.058   9.954  2.5858 -0.1364 -1.7571
  136SAPE   H7Y14790   5.172   4.128   9.837 -0.7268 -0.8113 -1.7137
  136SAPE   C3814791   5.327   4.027   9.741  0.4592  0.2265  0.0045
  136SAPE   H8X14792   5.257   4.016   9.655 -1.3270 -0.6250  1.5023
  136SAPE   H8Y14793   5.375   3.927   9.735 -1.4241 -0.7078 -0.5288
  136SAPE   C3914794   5.429   4.136   9.718  0.1200 -0.6812 -0.2518
  136SAPE   H9X14795   5.506   4.141   9.797 -0.0006  0.2746 -0.1829
  136SAPE   H9Y14796   5.382   4.237   9.710  1.6973  0.0387 -0.9676
  136SAPE  C31014797   5.507   4.122   9.581  0.0723  0.4296  0.0363
  136SAPE  H10X14798   5.532   4.014   9.573  1.4409  0.7389 -0.1893
  136SAPE  H10Y14799   5.601   4.182   9.579 -1.3067  2.8299  2.0598
  136SAPE  C31114800   5.414   4.167   9.463 -0.2780  0.1999 -0.3734
  136SAPE  H11X14801   5.387   4.275   9.471  1.5038  0.7267 -0.9590
  136SAPE  H11Y14802   5.320   4.110   9.476 -0.7475  1.0958  0.2380
  136SAPE  C31214803   5.473   4.144   9.327 -0.0447  0.0911 -0.0160
  136SAPE  H12X14804   5.582   4.126   9.339 -0.5250 -1.6162  2.6729
  136SAPE  H12Y14805   5.459   4.236   9.266 -1.2736 -1.6127 -2.4728
  136SAPE  C31314806   5.394   4.045   9.247 -0.1877 -0.6140 -0.1793
  136SAPE  H13X14807   5.291   4.078   9.221  0.6170  1.9488 -0.4031
  136SAPE  H13Y14808   5.398   3.954   9.310  0.5310 -0.0664  0.5712
  136SAPE  C31414809   5.460   4.014   9.109 -0.2068 -0.0411 -0.8131
  136SAPE  H14X14810   5.568   3.991   9.122  0.3595  0.6112 -3.6608
  136SAPE  H14Y14811   5.453   4.110   9.053 -1.3954 -0.1301 -0.8417
  136SAPE  C31514812   5.388   3.910   9.029 -0.0119  0.0714  0.4629
  136SAPE  H15X14813   5.279   3.928   9.044 -0.0426 -1.1045  1.9902
  136SAPE  H15Y14814   5.411   3.806   9.061  2.8458  0.1472 -1.0466
  136SAPE  C31614815   5.423   3.920   8.876 -0.3511 -0.2099 -0.1071
  136SAPE  H16X14816   5.532   3.902   8.868 -0.6485 -3.0070  1.0014
  136SAPE  H16Y14817   5.410   4.026   8.844  0.3498  0.5564  1.9727
  136SAPE  C31714818   5.351   3.821   8.802 -0.4919  0.1813  0.1263
  136SAPE  H17X14819   5.245   3.852   8.812 -0.9259 -0.5670 -1.6530
  136SAPE  H17Y14820   5.366   3.722   8.850  0.7179  0.9926  1.4821
  136SAPE  C31814821   5.379   3.829   8.647 -0.2934 -0.0567  0.1775
  136SAPE  H18X14822   5.374   3.935   8.615  1.0013  0.0371  0.2417
  136SAPE  H18Y14823   5.299   3.768   8.599  0.7104 -0.7825 -0.6148
  136SAPE  H18Z14824   5.480   3.793   8.619 -0.7760 -1.5474  0.2204
  137SAPE     N14825   5.626   1.258  11.050  0.5935  0.1828 -0.0957
  137SAPE   HN114826   5.611   1.227  11.148  0.2950 -3.5646 -1.1893
  137SAPE   HN214827   5.718   1.222  11.018  1.3917  2.5642 -0.7308
  137SAPE   HN314828   5.623   1.362  11.038  0.1428  0.0447 -1.2569
  137SAPE   C1214829   5.524   1.196  10.951 -0.2644  0.6862 -0.1782
  137SAPE  H12A14830   5.554   1.216  10.846  0.1010  3.7121  0.4038
  137SAPE  H12B14831   5.429   1.254  10.962  1.1030  3.0454 -0.1018
  137SAPE   C1114832   5.520   1.046  10.975 -0.2650 -1.1400 -0.2750
  137SAPE  H11A14833   5.425   1.007  10.933 -1.1646  1.3481 -0.7083
  137SAPE  H11B14834   5.512   1.029  11.084 -0.3279 -0.1632 -0.1119
  137SAPE     P14835   5.645   0.884  10.804  0.1507  0.2201  0.0010
  137SAPE   O1314836   5.783   0.837  10.779 -0.0666  0.7653 -0.4900
  137SAPE   O1414837   5.546   0.771  10.835  0.2566 -0.0798 -0.6215
  137SAPE   O1214838   5.640   0.981  10.931 -0.5058  0.6219  0.5381
  137SAPE   O1114839   5.581   0.985  10.689 -0.3134 -0.1347 -0.1179
  137SAPE    C114840   5.475   0.938  10.605  0.2125  0.6981 -0.7110
  137SAPE    HA14841   5.382   0.911  10.659 -0.3653  0.7720 -1.6407
  137SAPE    HB14842   5.442   1.021  10.539 -2.9036 -1.6015 -2.3351
  137SAPE    C214843   5.515   0.817  10.511  0.2109  0.4275 -0.1330
  137SAPE    HS14844   5.508   0.719  10.563  2.7268  0.2638  0.0244
  137SAPE   O2114845   5.647   0.837  10.475  0.4419 -0.6238  0.3251
  137SAPE   C2114846   5.740   0.752  10.495 -0.2467 -0.2191 -0.2860
  137SAPE   O2214847   5.732   0.641  10.538  0.0222  0.1277 -0.6843
  137SAPE   C2214848   5.881   0.802  10.450  0.2518  0.1662  0.1214
  137SAPE   H2R14849   5.865   0.909  10.427 -2.7795 -0.2817 -0.2318
  137SAPE   H2S14850   5.931   0.787  10.548 -3.8330 -3.3347  1.9891
  137SAPE    C314851   5.430   0.800  10.381 -0.0695 -0.3409  0.3757
  137SAPE    HX14852   5.324   0.796  10.415 -0.8342 -0.0915 -1.7880
  137SAPE    HY14853   5.455   0.701  10.336  2.0891 -0.4390  1.6610
  137SAPE   O3114854   5.450   0.912  10.288 -0.7642  0.5604 -0.2675
  137SAPE   C3114855   5.542   0.902  10.199  0.0986 -0.2199 -0.0116
  137SAPE   O3214856   5.597   0.805  10.165 -0.5486  0.1985 -0.8242
  137SAPE   C3214857   5.545   1.027  10.112  0.5229  0.2673 -0.0091
  137SAPE   H2X14858   5.581   1.113  10.173  0.0370  0.3017  0.2408
  137SAPE   H2Y14859   5.441   1.051  10.081  0.7850  0.9381 -0.4037
  137SAPE   C2314860   5.943   0.723  10.334  1.2819  0.3088 -0.3191
  137SAPE   H3R14861   5.876   0.712  10.246  1.9588 -3.2392 -0.5733
  137SAPE   H3S14862   5.979   0.619  10.352  2.0939 -0.1468 -3.7337
  137SAPE   C2414863   6.070   0.796  10.286  0.0673 -0.6517  0.5110
  137SAPE   H4R14864   6.123   0.822  10.381  0.9432 -1.6854  0.3197
  137SAPE   H4S14865   6.036   0.892  10.240  0.1615  0.3080  2.3319
  137SAPE   C2514866   6.149   0.709  10.201  1.0917 -0.6559  0.6948
  137SAPE   H5R14867   6.212   0.634  10.251  1.8249 -1.0199 -0.7002
  137SAPE   C2614868   6.136   0.698  10.067 -0.0057 -0.2763  0.4315
  137SAPE   H6R14869   6.193   0.624  10.010  0.8149  1.4726 -1.1491
  137SAPE   C2714870   6.054   0.778   9.973  0.6920 -0.5896 -0.2651
  137SAPE   H7R14871   6.105   0.771   9.875  1.0656 -0.5625 -0.0756
  137SAPE   H7S14872   6.049   0.884  10.008  0.8195 -0.3924 -0.8372
  137SAPE   C2814873   5.920   0.720   9.965  0.2044  0.2827  0.4094
  137SAPE   H8R14874   5.856   0.767  10.041  0.3775 -1.0034  1.3869
  137SAPE   C2914875   5.865   0.635   9.875 -0.2538 -0.5951  0.5818
  137SAPE   H9R14876   5.755   0.625   9.871 -0.3019  0.3757 -1.2687
  137SAPE  C21014877   5.936   0.567   9.763  0.5581 -0.3240  0.0720
  137SAPE  H10R14878   6.043   0.554   9.792  1.4123  0.0858 -2.6094
  137SAPE  H10S14879   5.929   0.627   9.670 -1.6623  0.3046  0.5771
  137SAPE  C21114880   5.867   0.432   9.748  0.3330 -1.4707  0.0260
  137SAPE  H11R14881   5.761   0.435   9.775 -0.5692  3.2988 -2.9058
  137SAPE  C21214882   5.923   0.328   9.691  0.9275  0.4663  0.6688
  137SAPE  H12R14883   5.867   0.233   9.687 -0.5928  1.3577 -1.0455
  137SAPE  C21314884   6.066   0.347   9.645  0.4136  0.0948  0.0931
  137SAPE  H13R14885   6.114   0.249   9.622  1.0366  0.8367 -2.0004
  137SAPE  H13S14886   6.130   0.386   9.728  1.5131  2.1227 -1.6273
  137SAPE  C21414887   6.070   0.422   9.514  0.4179  0.2050 -0.0796
  137SAPE  H14R14888   6.028   0.524   9.513  0.4643  0.2647 -2.5237
  137SAPE  C21514889   6.123   0.376   9.403 -0.1324 -0.8215  0.7337
  137SAPE  H15R14890   6.144   0.449   9.324  0.4387 -1.9812 -0.2138
  137SAPE  C21614891   6.194   0.242   9.380  0.2653  0.0458 -0.8846
  137SAPE  H16R14892   6.154   0.163   9.448  0.6324  2.0612  1.8399
  137SAPE  H16S14893   6.301   0.252   9.406  0.7079 -2.6184 -1.3746
  137SAPE  C21714894   6.178   0.194   9.239  0.8076  0.9897  0.6011
  137SAPE  H17R14895   6.076   0.152   9.225  0.7319  0.9486  1.2595
  137SAPE  H17S14896   6.245   0.106   9.236  0.9653  1.1316 -0.4801
  137SAPE  C21814897   6.210   0.277   9.111  0.1733  0.5356 -0.8355
  137SAPE  H18R14898   6.128   0.351   9.100 -0.6632 -0.2230  0.1440
  137SAPE  H18S14899   6.185   0.209   9.027 -2.9191  1.5673 -0.8611
  137SAPE  C21914900   6.349   0.335   9.105  0.4611 -0.0111 -0.6291
  137SAPE  H19R14901   6.418   0.249   9.096  1.3336  0.8269 -2.5791
  137SAPE  H19S14902   6.356   0.401   9.194 -1.1852 -3.5152  2.3668
  137SAPE  C22014903   6.381   0.414   8.977 -0.2145 -0.0064 -0.3777
  137SAPE  H20R14904   6.392   0.360   8.881  1.2374  0.6052 -0.5916
  137SAPE  H20S14905   6.479   0.458   9.006 -0.1943 -1.5636  2.1953
  137SAPE  H20T14906   6.308   0.497   8.980 -2.2908 -1.7609 -0.2380
  137SAPE   C3314907   5.618   1.016   9.979  0.1783  0.0375  0.9559
  137SAPE   H3X14908   5.720   0.974   9.986  1.0033  1.2080 -2.5098
  137SAPE   H3Y14909   5.636   1.116   9.935  2.3683 -1.0525 -0.7799
  137SAPE   C3414910   5.545   0.934   9.876  0.4156 -0.1432 -0.3558
  137SAPE   H4X14911   5.448   0.988   9.874  0.8280  0.6066 -0.1770
  137SAPE   H4Y14912   5.522   0.834   9.919  1.0208  0.2979  1.0273
  137SAPE   C3514913   5.615   0.920   9.742 -0.0829  0.1749  0.0751
  137SAPE   H5X14914   5.720   0.884   9.753 -0.2408 -0.5588 -0.7329
  137SAPE   H5Y14915   5.627   1.022   9.699  1.4171  0.4703  1.1172
  137SAPE   C3614916   5.543   0.836   9.630  0.6927 -0.0997 -0.7513
  137SAPE   H6X14917   5.463   0.905   9.595  0.7164  0.0640 -0.4837
  137SAPE   H6Y14918   5.501   0.742   9.671 -0.5261 -0.1969 -2.1148
  137SAPE   C3714919   5.634   0.811   9.514 -0.3653 -0.3365  0.1090
  137SAPE   H7X14920   5.720   0.746   9.540  1.0211  0.7999 -1.3400
  137SAPE   H7Y14921   5.679   0.906   9.477  1.6605 -1.0551  0.5878
  137SAPE   C3814922   5.566   0.751   9.386  0.0013 -0.1571 -0.1538
  137SAPE   H8X14923   5.472   0.809   9.368 -0.3557 -0.4840  0.6319
  137SAPE   H8Y14924   5.541   0.649   9.423  0.1050 -0.4987 -0.9919
  137SAPE   C3914925   5.646   0.747   9.259  0.5227  0.1023  0.4570
  137SAPE   H9X14926   5.653   0.849   9.214  0.0884 -0.8044 -1.7854
  137SAPE   H9Y14927   5.597   0.680   9.186  2.1217 -0.7979  0.1852
  137SAPE  C31014928   5.789   0.699   9.282  0.3373 -0.0790  0.6606
  137SAPE  H10X14929   5.799   0.603   9.337  3.2748 -0.1309  0.1906
  137SAPE  H10Y14930   5.839   0.780   9.340 -0.7384  1.0281  0.0962
  137SAPE  C31114931   5.861   0.673   9.149 -0.2741 -0.5566 -0.3954
  137SAPE  H11X14932   5.968   0.651   9.172  0.0525  2.5992  1.7382
  137SAPE  H11Y14933   5.850   0.762   9.084 -2.1044  0.6833  1.4710
  137SAPE  C31214934   5.812   0.552   9.067  0.9572  0.4047 -0.3476
  137SAPE  H12X14935   5.701   0.554   9.074  0.9724  1.0906 -0.2460
  137SAPE  H12Y14936   5.850   0.458   9.114 -0.1109 -0.6191 -1.4607
  137SAPE  C31314937   5.851   0.560   8.922 -0.1763  0.0913  0.8375
  137SAPE  H13X14938   5.836   0.656   8.867  0.7687 -0.6723 -0.8070
  137SAPE  H13Y14939   5.782   0.486   8.876 -0.4539 -0.1405  1.6103
  137SAPE  C31414940   5.999   0.526   8.889 -0.1167 -0.0060  0.2238
  137SAPE  H14X14941   6.022   0.427   8.934 -0.9918 -1.0866 -1.5690
  137SAPE  H14Y14942   6.061   0.610   8.928  1.0581 -0.1688 -1.2144
  137SAPE  C31514943   6.004   0.511   8.735 -0.1520  0.1520  0.1294
  137SAPE  H15X14944   5.944   0.592   8.690 -0.7723  0.6792  1.8510
  137SAPE  H15Y14945   5.971   0.408   8.709  1.0512  0.0307 -0.9905
  137SAPE  C31614946   6.149   0.512   8.676  0.3884  0.5659 -0.6410
  137SAPE  H16X14947   6.219   0.440   8.724  0.4273  0.8683 -0.2323
  137SAPE  H16Y14948   6.177   0.618   8.697 -3.2273  1.4808  0.2832
  137SAPE  C31714949   6.158   0.478   8.528  0.4184  0.2402 -1.1587
  137SAPE  H17X14950   6.125   0.372   8.522  1.2624 -0.2829  1.6517
  137SAPE  H17Y14951   6.266   0.484   8.499  0.4905  4.0876 -0.6352
  137SAPE  C31814952   6.083   0.574   8.436 -0.0997  0.5780  0.2922
  137SAPE  H18X14953   5.976   0.587   8.463 -0.7552  0.4443 -1.9575
  137SAPE  H18Y14954   6.090   0.541   8.330 -1.6368  1.0215  0.0160
  137SAPE  H18Z14955   6.130   0.674   8.446 -0.8280  0.8442  1.1568
  138SAPE     N14956   3.047   4.647  10.526 -0.5094  0.5127  0.0802
  138SAPE   HN114957   3.093   4.709  10.456 -0.5375 -0.3056 -0.6716
  138SAPE   HN214958   2.994   4.707  10.593  3.0763  3.6735  0.4963
  138SAPE   HN314959   3.128   4.610  10.581 -0.6578 -2.1273 -1.3179
  138SAPE   C1214960   2.970   4.546  10.452  0.7082 -0.3619  0.3602
  138SAPE  H12A14961   3.028   4.510  10.363  0.3167  1.8898 -0.8693
  138SAPE  H12B14962   2.881   4.599  10.414  1.4980  1.1985  0.6243
  138SAPE   C1114963   2.920   4.427  10.538  0.1067  0.2861  0.6878
  138SAPE  H11A14964   3.020   4.384  10.561 -0.8298 -0.9967  2.6623
  138SAPE  H11B14965   2.860   4.349  10.486  1.1200 -0.5718  0.7661
  138SAPE     P14966   2.713   4.431  10.686  0.0421 -0.1633 -0.1460
  138SAPE   O1314967   2.711   4.288  10.717 -0.0476  0.3175  0.9209
  138SAPE   O1414968   2.660   4.523  10.788 -0.4613 -0.3526 -0.6351
  138SAPE   O1214969   2.857   4.475  10.658 -0.1638  0.4335 -0.0938
  138SAPE   O1114970   2.635   4.461  10.552 -0.4329  0.0934  0.0238
  138SAPE    C114971   2.594   4.587  10.492 -0.0327 -0.4589 -0.1853
  138SAPE    HA14972   2.486   4.609  10.507  0.0782  0.1526 -0.2720
  138SAPE    HB14973   2.667   4.664  10.525  0.4779 -0.7806 -0.5512
  138SAPE    C214974   2.592   4.571  10.334 -0.4704  0.1996  0.4456
  138SAPE    HS14975   2.495   4.526  10.303  0.6012 -0.3551 -2.4492
  138SAPE   O2114976   2.690   4.472  10.279  0.0911 -0.1668  0.1752
  138SAPE   C2114977   2.655   4.396  10.179 -0.1813 -0.2623  0.6605
  138SAPE   O2214978   2.547   4.393  10.120  0.1851  0.0230 -0.2124
  138SAPE   C2214979   2.771   4.314  10.138  0.0441 -0.0380 -0.5074
  138SAPE   H2R14980   2.829   4.306  10.233 -2.0839  1.4935  1.0187
  138SAPE   H2S14981   2.735   4.213  10.109 -1.8697  0.4908 -0.0955
  138SAPE    C314982   2.613   4.704  10.258 -0.4015 -0.4473 -0.4198
  138SAPE    HX14983   2.710   4.751  10.285  1.9509 -3.0536 -3.4526
  138SAPE    HY14984   2.535   4.771  10.298  0.2891 -1.3153  2.6744
  138SAPE   O3114985   2.620   4.693  10.116  0.4472  0.0833  0.0930
  138SAPE   C3114986   2.494   4.697  10.067 -0.4357  0.4746  0.4432
  138SAPE   O3214987   2.397   4.703  10.138 -0.0744  0.0779 -0.7758
  138SAPE   C3214988   2.480   4.651   9.924  0.2569  0.0183  0.1855
  138SAPE   H2X14989   2.436   4.549   9.920  0.0787 -0.1037 -6.4814
  138SAPE   H2Y14990   2.583   4.644   9.883 -0.6771  0.0760 -2.3502
  138SAPE   C2314991   2.867   4.382  10.030 -0.3771  0.6438 -0.8224
  138SAPE   H3R14992   2.953   4.312  10.034 -0.1497  0.7912  4.2541
  138SAPE   H3S14993   2.907   4.482  10.058  0.2339  0.4682 -1.0510
  138SAPE   C2414994   2.805   4.389   9.893 -0.0990  0.2078  1.1791
  138SAPE   H4R14995   2.714   4.452   9.886 -0.3993 -0.3652 -0.7235
  138SAPE   H4S14996   2.771   4.285   9.870 -2.2709  0.6235  2.2771
  138SAPE   C2514997   2.908   4.435   9.791  0.2725  0.2124 -0.2820
  138SAPE   H5R14998   3.006   4.462   9.832 -1.2617  1.3696  2.8788
  138SAPE   C2614999   2.870   4.436   9.662 -0.1805 -0.1390 -0.4334
  138SAPE   H6R15000   2.948   4.454   9.586  0.1410  1.3767  0.2212
  138SAPE   C2715001   2.734   4.412   9.603  0.4298  0.1543  0.8784
  138SAPE   H7R15002   2.694   4.502   9.553 -0.0287 -0.3567  0.3186
  138SAPE   H7S15003   2.656   4.399   9.681 -1.2031 -0.5848 -0.8009
  138SAPE   C2815004   2.733   4.283   9.520 -1.0080 -0.5493  0.0144
  138SAPE   H8R15005   2.793   4.201   9.562  2.8320  1.7817 -0.3878
  138SAPE   C2915006   2.688   4.255   9.396  0.6190  0.1142 -0.6606
  138SAPE   H9R15007   2.704   4.155   9.353  0.4616  1.2966 -3.7389
  138SAPE  C21015008   2.620   4.348   9.299  0.5193 -0.1082 -0.0345
  138SAPE  H10R15009   2.564   4.434   9.341  3.1175  0.7845  1.8438
  138SAPE  H10S15010   2.549   4.279   9.250 -1.7920  1.4264  0.9861
  138SAPE  C21115011   2.720   4.397   9.196 -0.6751  0.0109 -0.8829
  138SAPE  H11R15012   2.824   4.407   9.232 -1.7815  1.5661  2.2809
  138SAPE  C21215013   2.691   4.444   9.077  0.8428  0.0685  1.3589
  138SAPE  H12R15014   2.779   4.478   9.021  0.6570  0.4298  1.2833
  138SAPE  C21315015   2.555   4.434   9.002  0.6009  0.4294  0.5235
  138SAPE  H13R15016   2.555   4.519   8.930 -3.1100 -0.3289 -0.6217
  138SAPE  H13S15017   2.467   4.445   9.069 -0.8289  1.0707 -1.3437
  138SAPE  C21415018   2.542   4.302   8.928 -0.2581 -0.5113  0.0008
  138SAPE  H14R15019   2.633   4.254   8.888  0.0282 -0.4869  0.5968
  138SAPE  C21515020   2.426   4.233   8.911  0.6109 -0.8707  0.3579
  138SAPE  H15R15021   2.417   4.152   8.838 -0.9121  0.8392 -1.4433
  138SAPE  C21615022   2.285   4.272   8.960 -0.3775 -0.3182  0.1466
  138SAPE  H16R15023   2.300   4.304   9.066  2.1054 -0.7398 -0.0289
  138SAPE  H16S15024   2.216   4.185   8.955 -3.3171  1.8456  0.6414
  138SAPE  C21715025   2.220   4.387   8.886  0.3181  0.3434  0.2787
  138SAPE  H17R15026   2.195   4.349   8.785  0.2214 -0.8266  0.7224
  138SAPE  H17S15027   2.304   4.459   8.880  0.9428 -0.4494 -0.8728
  138SAPE  C21815028   2.112   4.458   8.959 -0.1540 -0.4671 -0.2247
  138SAPE  H18R15029   2.061   4.530   8.892 -0.4314  0.7451  1.2438
  138SAPE  H18S15030   2.158   4.512   9.045 -0.9580  0.8937 -0.6233
  138SAPE  C21915031   2.009   4.365   9.019 -0.5262 -1.2742 -0.1365
  138SAPE  H19R15032   2.056   4.310   9.103 -0.4191  0.0328  0.6942
  138SAPE  H19S15033   1.982   4.294   8.939 -0.4664  1.1100 -2.3936
  138SAPE  C22015034   1.892   4.443   9.090  0.3048 -0.4915 -0.1525
  138SAPE  H20R15035   1.935   4.503   9.173  0.7246 -1.4116  0.3021
  138SAPE  H20S15036   1.829   4.362   9.133  0.7106 -0.6097  0.2269
  138SAPE  H20T15037   1.832   4.501   9.016 -0.2241 -0.5414  0.2308
  138SAPE   C3315038   2.380   4.730   9.837  0.1613  0.5359  1.3244
  138SAPE   H3X15039   2.396   4.840   9.833 -1.5758  0.7741 -0.9946
  138SAPE   H3Y15040   2.282   4.710   9.885  1.0624 -3.1976  1.9381
  138SAPE   C3415041   2.385   4.689   9.688 -0.0695  0.6439  0.2168
  138SAPE   H4X15042   2.393   4.580   9.669  0.6110  0.8681 -0.8793
  138SAPE   H4Y15043   2.478   4.727   9.639  0.1316 -0.5367 -0.3662
  138SAPE   C3515044   2.253   4.735   9.622  0.3269  0.1182  0.7666
  138SAPE   H5X15045   2.224   4.837   9.656 -0.4571 -0.3385  1.5153
  138SAPE   H5Y15046   2.168   4.675   9.661 -0.0015  0.1273  0.0612
  138SAPE   C3615047   2.263   4.739   9.469 -0.3634 -0.2766 -0.3416
  138SAPE   H6X15048   2.315   4.650   9.427 -0.9521 -0.2343 -1.1885
  138SAPE   H6Y15049   2.328   4.822   9.434  0.1301 -0.2033  0.7309
  138SAPE   C3715050   2.121   4.767   9.411 -0.7531  0.4075  0.2400
  138SAPE   H7X15051   2.076   4.862   9.447 -2.1579 -0.5633  1.1240
  138SAPE   H7Y15052   2.048   4.693   9.449 -0.3609  0.4022  1.0103
  138SAPE   C3815053   2.121   4.764   9.260 -0.3806 -1.0347 -1.1354
  138SAPE   H8X15054   2.145   4.659   9.231 -0.6908 -1.5058  0.2132
  138SAPE   H8Y15055   2.187   4.834   9.204  0.5904 -0.5748  0.4857
  138SAPE   C3915056   1.984   4.804   9.210 -0.2087  0.5352 -0.7759
  138SAPE   H9X15057   1.952   4.899   9.259 -0.3918 -0.4559  1.1381
  138SAPE   H9Y15058   1.914   4.721   9.232 -1.2648  1.2713 -1.2517
  138SAPE  C31015059   1.970   4.822   9.055  0.0086  0.3633  0.2461
  138SAPE  H10X15060   1.995   4.721   9.015  2.1587  0.4757  1.1677
  138SAPE  H10Y15061   2.051   4.889   9.019 -1.7851  2.4778 -0.0644
  138SAPE  C31115062   1.838   4.881   9.014 -0.4240  0.0213  0.1790
  138SAPE  H11X15063   1.822   4.973   9.074  1.8521 -1.2774  3.0052
  138SAPE  H11Y15064   1.764   4.806   9.050  0.1916  1.0577  3.9539
  138SAPE  C31215065   1.810   4.910   8.869  0.5530 -0.2821  0.8701
  138SAPE  H12X15066   1.838   4.824   8.805  3.5673 -0.4376  2.2450
  138SAPE  H12Y15067   1.878   4.991   8.834 -0.7459 -0.4737 -2.4634
  138SAPE  C31315068   1.666   4.950   8.839 -0.0532  0.2572  0.7007
  138SAPE  H13X15069   1.651   5.046   8.894 -2.2008 -0.3086  1.1700
  138SAPE  H13Y15070   1.600   4.872   8.881  2.0095 -0.9450  1.9073
  138SAPE  C31415071   1.630   4.979   8.686 -0.1594 -0.2424  0.4206
  138SAPE  H14X15072   1.670   4.889   8.634  1.3665  0.4315  0.3989
  138SAPE  H14Y15073   1.682   5.066   8.642  0.9858  0.4752  2.9934
  138SAPE  C31515074   1.480   4.992   8.676  0.9317  0.7877 -0.1634
  138SAPE  H15X15075   1.446   5.087   8.723 -3.8544 -0.1041 -1.3055
  138SAPE  H15Y15076   1.432   4.914   8.738  0.2598  1.2617 -0.0680
  138SAPE  C31615077   1.438   4.988   8.533  0.6089 -0.3335  0.7632
  138SAPE  H16X15078   1.446   4.890   8.480  1.3210 -0.3708  0.9269
  138SAPE  H16Y15079   1.509   5.054   8.479  0.4332 -0.1583  0.7433
  138SAPE  C31715080   1.302   5.045   8.491 -0.1089 -0.3582 -0.2657
  138SAPE  H17X15081   1.291   5.083   8.388 -0.8181  2.1482  0.6640
  138SAPE  H17Y15082   1.277   5.124   8.566 -0.0059  0.5433 -1.1629
  138SAPE  C31815083   1.199   4.930   8.504  0.5070  0.0112  0.5532
  138SAPE  H18X15084   1.187   4.895   8.609  0.5203  2.1023  1.2910
  138SAPE  H18Y15085   1.221   4.845   8.436  0.9655  0.3294  0.3088
  138SAPE  H18Z15086   1.094   4.962   8.485  1.6262  3.2273 -0.8542
  139SAPE     N15087   4.422   5.090  10.733  0.0087  0.2854 -0.2378
  139SAPE   HN115088   4.354   5.151  10.784 -0.9690  1.9685 -3.2783
  139SAPE   HN215089   4.377   5.063  10.643  2.7120  0.2178 -1.6809
  139SAPE   HN315090   4.447   5.001  10.780 -0.6655  0.1087 -0.2044
  139SAPE   C1215091   4.547   5.168  10.706  0.1793  0.1985  0.4110
  139SAPE  H12A15092   4.581   5.222  10.796  0.1624 -0.0560  0.5727
  139SAPE  H12B15093   4.533   5.243  10.626  0.6345 -0.7630 -0.6051
  139SAPE   C1115094   4.670   5.073  10.656  0.6135 -0.3949 -0.0114
  139SAPE  H11A15095   4.747   5.142  10.615  0.7655 -0.1094  0.7320
  139SAPE  H11B15096   4.638   5.005  10.574 -0.0357  0.4991 -0.5271
  139SAPE     P15097   4.682   4.864  10.821  0.0439 -0.2055  0.3509
  139SAPE   O1315098   4.762   4.845  10.944  0.1221  0.1528  0.3505
  139SAPE   O1415099   4.533   4.873  10.838  0.0116  0.1963 -0.2198
  139SAPE   O1215100   4.731   5.002  10.760  0.2390 -0.9110  0.3385
  139SAPE   O1115101   4.714   4.749  10.720 -0.1621  0.0141 -0.5276
  139SAPE    C115102   4.828   4.669  10.742 -0.0857  0.3129  0.0430
  139SAPE    HA15103   4.855   4.656  10.848 -0.2761  1.3600  0.2384
  139SAPE    HB15104   4.805   4.567  10.706 -0.2167 -0.9166  3.3395
  139SAPE    C215105   4.954   4.708  10.660 -0.0616 -0.1136  0.3044
  139SAPE    HS15106   4.992   4.801  10.709  0.2124 -0.1142  0.0938
  139SAPE   O2115107   4.903   4.724  10.526  0.6757 -0.0928 -0.1594
  139SAPE   C2115108   4.950   4.833  10.466 -0.0270 -0.0567  0.2005
  139SAPE   O2215109   5.025   4.911  10.523  0.3474  0.5173 -0.3699
  139SAPE   C2215110   4.895   4.853  10.318  0.6434  0.6477  0.2677
  139SAPE   H2R15111   4.960   4.803  10.244  1.4681 -0.4062  1.6492
  139SAPE   H2S15112   4.795   4.805  10.311  0.5472  0.9421 -0.4870
  139SAPE    C315113   5.066   4.602  10.660 -0.2064  0.4267  0.2062
  139SAPE    HX15114   5.007   4.513  10.627  1.5316 -0.0034 -1.9956
  139SAPE    HY15115   5.105   4.589  10.763 -1.1746  1.9496  0.7867
  139SAPE   O3115116   5.166   4.629  10.560 -0.4608 -0.2375  0.2136
  139SAPE   C3115117   5.264   4.714  10.601 -0.0893  0.1847  0.5284
  139SAPE   O3215118   5.273   4.756  10.717 -0.1202  0.2046 -0.3549
  139SAPE   C3215119   5.358   4.728  10.484 -0.5371  0.0127 -0.0427
  139SAPE   H2X15120   5.315   4.684  10.391  0.4440 -3.0902  0.8239
  139SAPE   H2Y15121   5.432   4.648  10.506 -1.1972 -0.9537 -1.1813
  139SAPE   C2315122   4.874   4.999  10.273 -0.2338 -0.1955 -0.4609
  139SAPE   H3R15123   4.806   5.052  10.343 -0.1200  2.1770 -2.0319
  139SAPE   H3S15124   4.810   4.998  10.182 -2.7608  0.3712  1.2001
  139SAPE   C2415125   5.007   5.071  10.245  0.0613  0.2840 -0.6198
  139SAPE   H4R15126   5.041   5.111  10.343 -1.5358 -3.0221  1.5014
  139SAPE   H4S15127   4.981   5.152  10.174  3.0933  0.2170 -1.9741
  139SAPE   C2515128   5.110   4.993  10.177  0.5416  0.0012  0.0624
  139SAPE   H5R15129   5.144   4.908  10.238  1.1470  1.0525  1.2328
  139SAPE   C2615130   5.161   5.017  10.058  0.1274  0.0604  0.2121
  139SAPE   H6R15131   5.236   4.950  10.015  0.9710  1.6178 -0.8199
  139SAPE   C2715132   5.118   5.133   9.961 -0.8379 -0.0941  0.0547
  139SAPE   H7R15133   5.068   5.220  10.008  1.4313  1.3631 -0.0889
  139SAPE   H7S15134   5.034   5.099   9.895 -0.4126  1.1692 -1.1980
  139SAPE   C2815135   5.226   5.172   9.867 -0.1570 -0.5008 -0.1883
  139SAPE   H8R15136   5.310   5.221   9.919 -0.6176 -0.5058  0.5829
  139SAPE   C2915137   5.230   5.153   9.730 -0.0434  1.0505 -0.8235
  139SAPE   H9R15138   5.317   5.179   9.667 -1.4327  3.6485 -1.8015
  139SAPE  C21015139   5.124   5.082   9.648  0.4827  0.5239 -0.7153
  139SAPE  H10R15140   5.025   5.098   9.697  0.6324  1.5681 -0.7180
  139SAPE  H10S15141   5.151   4.974   9.648  1.9893  0.8673  0.4715
  139SAPE  C21115142   5.095   5.133   9.510  0.5462  0.3646  0.3206
  139SAPE  H11R15143   5.081   5.242   9.512  2.6127  0.7218 -1.0614
  139SAPE  C21215144   5.064   5.053   9.403  0.0004  0.1060 -0.7398
  139SAPE  H12R15145   5.039   5.101   9.308  1.1242 -2.7179 -2.5854
  139SAPE  C21315146   5.069   4.902   9.401  0.3227 -0.0600  0.3337
  139SAPE  H13R15147   5.145   4.855   9.467  0.3106  0.0763  0.4441
  139SAPE  H13S15148   5.109   4.873   9.301  0.8724 -3.4674  1.4205
  139SAPE  C21415149   4.938   4.838   9.435 -0.4558  0.4544  0.6258
  139SAPE  H14R15150   4.927   4.833   9.544  0.3778 -1.5616  0.6623
  139SAPE  C21515151   4.845   4.782   9.360 -0.3554  0.7815  0.2843
  139SAPE  H15R15152   4.753   4.750   9.410 -1.1396 -0.7931 -2.0062
  139SAPE  C21615153   4.845   4.763   9.209 -0.2041 -0.3727 -0.2117
  139SAPE  H16R15154   4.946   4.775   9.165  1.4644 -2.4017  2.8014
  139SAPE  H16S15155   4.757   4.817   9.166 -0.7828 -0.5484  0.7215
  139SAPE  C21715156   4.811   4.617   9.173 -0.2607  0.0518 -0.2745
  139SAPE  H17R15157   4.745   4.563   9.244 -1.8020  1.9098 -0.2023
  139SAPE  H17S15158   4.905   4.560   9.180  0.8410  1.5301 -2.0863
  139SAPE  C21815159   4.768   4.614   9.026  0.1836 -0.2372  0.1374
  139SAPE  H18R15160   4.829   4.680   8.960  1.0186 -1.2219 -0.1097
  139SAPE  H18S15161   4.661   4.624   8.997  0.7942  3.0975 -1.4881
  139SAPE  C21915162   4.794   4.466   8.968  0.4813  0.0797 -0.2605
  139SAPE  H19R15163   4.736   4.396   9.031  0.0632 -1.6628 -2.4667
  139SAPE  H19S15164   4.903   4.451   8.983  0.0607 -0.0283  3.4326
  139SAPE  C22015165   4.756   4.450   8.825  0.3084 -0.8367  0.4111
  139SAPE  H20R15166   4.743   4.345   8.793 -1.5311  0.2550 -2.8374
  139SAPE  H20S15167   4.820   4.507   8.754 -1.1719 -0.3796 -0.5872
  139SAPE  H20T15168   4.654   4.490   8.808  1.5020  3.1045  1.5297
  139SAPE   C3315169   5.415   4.874  10.467 -0.5311  0.0132  0.1704
  139SAPE   H3X15170   5.418   4.935  10.560  1.6110 -1.2056  0.9758
  139SAPE   H3Y15171   5.334   4.928  10.414  0.9368  0.2747 -1.9765
  139SAPE   C3415172   5.548   4.871  10.387 -0.7372  0.1196 -0.5961
  139SAPE   H4X15173   5.613   4.810  10.454 -0.3464 -0.8749 -1.8327
  139SAPE   H4Y15174   5.584   4.975  10.372  0.5734 -0.3535 -0.8976
  139SAPE   C3515175   5.535   4.799  10.253  0.0657 -0.1603  0.4766
  139SAPE   H5X15176   5.427   4.782  10.229  0.0611  0.5606 -0.0688
  139SAPE   H5Y15177   5.595   4.706  10.259  1.0220  0.4337  0.2308
  139SAPE   C3615178   5.593   4.875  10.133 -0.2126 -0.1872 -0.5133
  139SAPE   H6X15179   5.579   4.811  10.043  1.5478  0.3270 -1.1934
  139SAPE   H6Y15180   5.703   4.888  10.143 -0.4514  0.4398  1.8124
  139SAPE   C3715181   5.538   5.016  10.113 -0.6070  0.3545 -0.2914
  139SAPE   H7X15182   5.568   5.087  10.193  1.6608 -1.1042  0.2192
  139SAPE   H7Y15183   5.427   5.008  10.102 -1.1738  0.7964  3.5479
  139SAPE   C3815184   5.597   5.070   9.978 -0.2451 -0.9075 -0.1711
  139SAPE   H8X15185   5.704   5.097   9.989 -0.6304  0.3547  0.7548
  139SAPE   H8Y15186   5.549   5.170   9.974  0.7214 -0.3634  1.1902
  139SAPE   C3915187   5.563   5.000   9.841 -0.0698  0.0081  0.2735
  139SAPE   H9X15188   5.458   4.966   9.829 -0.3819  0.2152  2.1154
  139SAPE   H9Y15189   5.627   4.910   9.826 -0.3564  0.1693 -2.3579
  139SAPE  C31015190   5.583   5.091   9.712  0.1178  0.7147 -0.8887
  139SAPE  H10X15191   5.690   5.120   9.707  0.5233 -0.3759  0.6280
  139SAPE  H10Y15192   5.528   5.187   9.716  2.1965  2.0081 -1.5674
  139SAPE  C31115193   5.552   5.017   9.579 -0.0732 -0.0166  0.1195
  139SAPE  H11X15194   5.444   4.989   9.586  0.6866 -3.0067  3.4359
  139SAPE  H11Y15195   5.601   4.918   9.590 -0.6611 -0.3999 -0.6137
  139SAPE  C31215196   5.593   5.097   9.457  0.0532 -0.1290 -0.5231
  139SAPE  H12X15197   5.703   5.109   9.462  0.0492 -0.5629  1.8403
  139SAPE  H12Y15198   5.537   5.193   9.459  1.0142  0.4312  1.0875
  139SAPE  C31315199   5.554   5.042   9.313  0.2596 -0.0559 -0.1066
  139SAPE  H13X15200   5.596   4.940   9.307 -1.0707 -0.6458  0.1983
  139SAPE  H13Y15201   5.595   5.116   9.241 -1.8733  2.5768  1.1566
  139SAPE  C31415202   5.402   5.040   9.296 -1.1799  0.1938  0.0219
  139SAPE  H14X15203   5.360   5.136   9.332 -3.4312 -1.1768  1.3492
  139SAPE  H14Y15204   5.358   4.951   9.347  0.0330 -0.4130  0.0441
  139SAPE  C31515205   5.363   5.019   9.145 -0.0195  0.1970 -0.4963
  139SAPE  H15X15206   5.403   5.101   9.081 -0.5217  0.2328 -0.7684
  139SAPE  H15Y15207   5.253   5.022   9.133  0.0483  1.6385 -0.9223
  139SAPE  C31615208   5.417   4.888   9.082 -0.1536 -1.0618  0.2708
  139SAPE  H16X15209   5.526   4.884   9.103  0.1031  2.6516  0.3590
  139SAPE  H16Y15210   5.362   4.810   9.138 -1.1548 -1.2950 -0.9713
  139SAPE  C31715211   5.391   4.873   8.935  0.6880  0.2566  0.5969
  139SAPE  H17X15212   5.287   4.886   8.898  0.8049  1.4960  0.6837
  139SAPE  H17Y15213   5.426   4.768   8.922 -0.1501 -0.0162  0.4846
  139SAPE  C31815214   5.486   4.953   8.843  0.6414 -0.1308 -0.1349
  139SAPE  H18X15215   5.479   4.914   8.739  0.1696  0.7599 -0.4483
  139SAPE  H18Y15216   5.595   4.966   8.860  0.2621  1.4419  1.3459
  139SAPE  H18Z15217   5.457   5.060   8.850  2.5201  0.3152  1.9069
  140SAPE     N15218   2.982   6.757  10.912 -0.2636 -0.6115 -0.0753
  140SAPE   HN115219   2.972   6.808  11.001 -2.9708  0.8179 -1.0918
  140SAPE   HN215220   3.010   6.657  10.920  0.3099 -0.4151  0.4340
  140SAPE   HN315221   3.063   6.796  10.860  1.9329 -3.4256  0.9531
  140SAPE   C1215222   2.861   6.771  10.832  0.2163  0.0487  0.1661
  140SAPE  H12A15223   2.776   6.728  10.889  1.0936  1.0405  2.3333
  140SAPE  H12B15224   2.876   6.717  10.736  0.0485  0.3761 -0.0499
  140SAPE   C1115225   2.837   6.921  10.797  0.4747  0.4314  0.1897
  140SAPE  H11A15226   2.747   6.918  10.733  1.9689 -0.8638 -1.9780
  140SAPE  H11B15227   2.910   6.962  10.724 -2.0719  1.5212 -1.8991
  140SAPE     P15228   2.775   7.148  10.922  0.2315  0.3714 -0.1411
  140SAPE   O1315229   2.631   7.143  10.965 -0.2918  0.1968  0.0236
  140SAPE   O1415230   2.872   7.229  11.001 -0.0048 -0.3166 -0.0866
  140SAPE   O1215231   2.824   6.999  10.916 -0.0280  0.1902 -0.6464
  140SAPE   O1115232   2.778   7.186  10.767 -0.3907  0.1387  0.2608
  140SAPE    C115233   2.885   7.269  10.717  0.7251  0.3991 -0.5702
  140SAPE    HA15234   2.967   7.286  10.790  0.8179 -4.6040  0.8142
  140SAPE    HB15235   2.940   7.225  10.632  0.8714 -2.3657  0.8548
  140SAPE    C215236   2.826   7.403  10.682 -0.6532  0.1637 -0.1912
  140SAPE    HS15237   2.769   7.443  10.768 -2.6295 -1.9895 -0.3917
  140SAPE   O2115238   2.731   7.392  10.568 -0.4877  0.2256  0.2180
  140SAPE   C2115239   2.643   7.488  10.547 -0.6500  0.0831 -0.2116
  140SAPE   O2215240   2.618   7.582  10.622 -1.0722  0.0453  0.0161
  140SAPE   C2215241   2.568   7.455  10.420 -0.7089 -0.6803 -0.7386
  140SAPE   H2R15242   2.576   7.351  10.383 -3.0492  0.1918 -4.1691
  140SAPE   H2S15243   2.459   7.471  10.434 -0.3518 -0.1737  2.1968
  140SAPE    C315244   2.936   7.506  10.652 -0.1229  0.3964 -0.0394
  140SAPE    HX15245   2.999   7.515  10.743 -1.0272  0.8047  0.5639
  140SAPE    HY15246   2.891   7.603  10.623 -0.8549 -0.6211 -2.6177
  140SAPE   O3115247   3.033   7.454  10.550 -0.1438 -1.1610 -0.5886
  140SAPE   C3115248   3.018   7.505  10.431 -0.5367 -0.8911 -0.0613
  140SAPE   O3215249   2.931   7.578  10.386  0.1796  0.0793  1.0019
  140SAPE   C3215250   3.144   7.469  10.344 -0.4736  0.0769 -0.8542
  140SAPE   H2X15251   3.135   7.360  10.326 -1.4905  0.6757 -4.6572
  140SAPE   H2Y15252   3.230   7.498  10.409 -2.1045  3.0268  0.1935
  140SAPE   C2315253   2.627   7.546  10.306  0.6107 -0.2783 -0.0299
  140SAPE   H3R15254   2.728   7.508  10.282  1.8395  2.1229  0.9785
  140SAPE   H3S15255   2.625   7.651  10.344  2.3793 -1.1262  2.7197
  140SAPE   C2415256   2.542   7.538  10.175 -0.2031 -0.2586 -0.1179
  140SAPE   H4R15257   2.610   7.578  10.097  0.9686 -1.7714  0.0684
  140SAPE   H4S15258   2.450   7.598  10.189  0.5030  0.6288  0.9036
  140SAPE   C2515259   2.499   7.396  10.130  0.3216  0.4486 -0.6349
  140SAPE   H5R15260   2.427   7.350  10.198 -0.3502 -1.4093 -2.4974
  140SAPE   C2615261   2.546   7.332  10.014  0.4391  0.6502 -0.9766
  140SAPE   H6R15262   2.516   7.233   9.977  0.5779  0.8637 -1.6691
  140SAPE   C2715263   2.650   7.402   9.925  0.4705 -0.2406  0.9430
  140SAPE   H7R15264   2.738   7.432   9.985  0.8796  1.6911 -0.4992
  140SAPE   H7S15265   2.603   7.496   9.887  1.8070  0.0896  0.0608
  140SAPE   C2815266   2.689   7.303   9.814  0.2689 -0.6310 -0.4890
  140SAPE   H8R15267   2.787   7.253   9.826  0.0016 -1.4885 -1.6827
  140SAPE   C2915268   2.625   7.291   9.696  0.7051 -0.3284 -0.1689
  140SAPE   H9R15269   2.653   7.209   9.629  0.0702  0.7477 -1.8108
  140SAPE  C21015270   2.500   7.362   9.646 -0.2485  0.5144  0.0770
  140SAPE  H10R15271   2.518   7.467   9.616 -0.4725  0.9856  1.5102
  140SAPE  H10S15272   2.439   7.370   9.739  2.6560 -3.3157  2.6404
  140SAPE  C21115273   2.407   7.296   9.539  0.7289 -0.6985 -0.7103
  140SAPE  H11R15274   2.329   7.228   9.578  1.2871 -1.7973 -1.4538
  140SAPE  C21215275   2.425   7.303   9.407 -0.4560 -0.2741  0.0047
  140SAPE  H12R15276   2.346   7.272   9.337  1.5054 -2.3521 -1.4548
  140SAPE  C21315277   2.544   7.369   9.341 -0.8578  0.1754  0.2343
  140SAPE  H13R15278   2.620   7.411   9.410 -1.8913  2.0843  0.2817
  140SAPE  H13S15279   2.511   7.460   9.286 -0.7972 -1.4384 -2.6729
  140SAPE  C21415280   2.618   7.282   9.236  1.2574  0.0162 -0.5862
  140SAPE  H14R15281   2.683   7.205   9.280  2.5277 -0.4589 -3.1345
  140SAPE  C21515282   2.597   7.279   9.101 -0.3346 -0.0316 -0.2047
  140SAPE  H15R15283   2.657   7.210   9.041  0.6035  1.9930 -1.6859
  140SAPE  C21615284   2.505   7.370   9.025  0.2540  0.6931  0.4724
  140SAPE  H16R15285   2.564   7.455   8.983 -1.2414  1.1502 -0.7930
  140SAPE  H16S15286   2.435   7.413   9.100  0.1304  0.0533  0.7286
  140SAPE  C21715287   2.427   7.306   8.904 -0.6572  0.1057  0.0055
  140SAPE  H17R15288   2.380   7.212   8.940  0.7801 -1.4330 -1.9115
  140SAPE  H17S15289   2.508   7.287   8.831  1.0340  2.3561  1.1662
  140SAPE  C21815290   2.315   7.399   8.849 -0.5934  0.3856  0.4091
  140SAPE  H18R15291   2.356   7.501   8.831 -1.6215  0.4857 -1.6307
  140SAPE  H18S15292   2.241   7.415   8.931  0.2572  1.7223  0.9528
  140SAPE  C21915293   2.239   7.357   8.728 -0.9039 -0.2231 -0.9112
  140SAPE  H19R15294   2.311   7.359   8.643  1.2899 -0.9817  0.8172
  140SAPE  H19S15295   2.161   7.434   8.710  0.1563  0.3055 -3.8450
  140SAPE  C22015296   2.183   7.214   8.736  0.0877  0.1775 -0.1845
  140SAPE  H20R15297   2.130   7.182   8.643  2.1297 -1.1317 -0.9752
  140SAPE  H20S15298   2.114   7.222   8.822  0.3881  1.2810 -0.0289
  140SAPE  H20T15299   2.266   7.143   8.757  0.5017  0.6694 -0.1193
  140SAPE   C3315300   3.160   7.525  10.201  0.5403 -0.2028 -0.2116
  140SAPE   H3X15301   3.270   7.524  10.188  0.5085 -2.5866 -0.7740
  140SAPE   H3Y15302   3.122   7.629  10.194  0.6234 -0.1851 -0.4175
  140SAPE   C3415303   3.103   7.432  10.095  0.4381 -0.3581 -0.5962
  140SAPE   H4X15304   3.001   7.396  10.119  1.2733 -2.2089  0.4030
  140SAPE   H4Y15305   3.169   7.343  10.106  1.4940  0.6724  2.3532
  140SAPE   C3515306   3.087   7.482   9.955  0.3129  0.3128 -0.2739
  140SAPE   H5X15307   3.178   7.541   9.929 -0.6703  1.3501 -1.4769
  140SAPE   H5Y15308   2.996   7.544   9.959 -2.3579 -3.2214 -1.2474
  140SAPE   C3615309   3.056   7.367   9.860  1.0846  0.8219 -0.5550
  140SAPE   H6X15310   2.971   7.311   9.906  0.7484 -0.7637 -2.9448
  140SAPE   H6Y15311   3.143   7.299   9.850  1.1597  0.8700 -0.2503
  140SAPE   C3715312   3.014   7.421   9.728 -0.7560  0.3862  0.3294
  140SAPE   H7X15313   3.083   7.501   9.694  0.7817 -0.3361  1.6731
  140SAPE   H7Y15314   2.915   7.472   9.733 -1.1439 -0.1322 -1.2788
  140SAPE   C3815315   3.004   7.318   9.604  0.3337 -0.0320 -0.1461
  140SAPE   H8X15316   2.938   7.244   9.653  0.6597 -0.4391 -0.3199
  140SAPE   H8Y15317   3.099   7.263   9.590  1.3259  1.6881 -0.4052
  140SAPE   C3915318   2.931   7.376   9.470  0.0654 -0.9195 -0.4903
  140SAPE   H9X15319   2.843   7.433   9.506  1.2261  1.7552 -1.6611
  140SAPE   H9Y15320   2.897   7.286   9.414  0.6736 -1.7867  0.4714
  140SAPE  C31015321   3.001   7.469   9.384 -0.2259 -0.3108  0.3806
  140SAPE  H10X15322   3.037   7.547   9.454 -1.7870  0.8153 -0.0253
  140SAPE  H10Y15323   2.929   7.509   9.309 -0.6984 -1.7036  0.0489
  140SAPE  C31115324   3.127   7.417   9.305 -0.2507 -0.2468 -0.0622
  140SAPE  H11X15325   3.194   7.361   9.374  0.6284 -1.4979 -1.8410
  140SAPE  H11Y15326   3.188   7.503   9.270  0.0007 -0.0823  0.7640
  140SAPE  C31215327   3.082   7.324   9.190  0.1150  0.6778  0.1136
  140SAPE  H12X15328   3.024   7.394   9.125  0.6666  1.6908  0.6760
  140SAPE  H12Y15329   3.001   7.255   9.223 -0.0708  0.3954 -0.9114
  140SAPE  C31315330   3.192   7.247   9.110 -0.1290 -0.2082 -0.1623
  140SAPE  H13X15331   3.161   7.219   9.007 -0.4897 -2.5717  0.5384
  140SAPE  H13Y15332   3.225   7.156   9.165  1.8884 -0.4767 -1.6863
  140SAPE  C31415333   3.316   7.335   9.072 -0.0552 -0.0720  0.3977
  140SAPE  H14X15334   3.399   7.271   9.036 -1.7453 -1.6359 -0.9110
  140SAPE  H14Y15335   3.351   7.387   9.163 -0.8081 -0.8412  1.1501
  140SAPE  C31515336   3.292   7.441   8.957  0.1747  0.3096 -0.0301
  140SAPE  H15X15337   3.375   7.514   8.962 -0.6560  1.4734 -2.0123
  140SAPE  H15Y15338   3.204   7.504   8.986  1.1900  1.5849  0.3632
  140SAPE  C31615339   3.294   7.395   8.816  0.2495 -0.2149 -0.2117
  140SAPE  H16X15340   3.216   7.320   8.789 -1.1384  1.7947 -2.2114
  140SAPE  H16Y15341   3.390   7.340   8.809 -1.7582 -3.9635 -1.0672
  140SAPE  C31715342   3.290   7.500   8.700  0.3890 -0.4277  0.4355
  140SAPE  H17X15343   3.327   7.604   8.716 -0.7663 -0.3048  2.6798
  140SAPE  H17Y15344   3.184   7.520   8.675 -0.1160 -2.6639  0.5567
  140SAPE  C31815345   3.356   7.451   8.574  0.0896  0.1830 -0.6591
  140SAPE  H18X15346   3.363   7.533   8.499 -0.0344  1.1689  0.3757
  140SAPE  H18Y15347   3.298   7.365   8.533  1.6008 -1.3443  0.2814
  140SAPE  H18Z15348   3.456   7.407   8.596 -0.8008 -1.1661  0.9401
  141SAPE     N15349   5.977   2.304  11.284 -0.3034 -0.2406  0.0330
  141SAPE   HN115350   6.016   2.333  11.376  1.9178 -0.7048 -0.7012
  141SAPE   HN215351   5.906   2.231  11.303  0.2127 -0.5177  0.9597
  141SAPE   HN315352   6.058   2.276  11.224  1.3393  4.7098 -0.5271
  141SAPE   C1215353   5.928   2.432  11.223  0.1741 -0.6346  0.5032
  141SAPE  H12A15354   6.010   2.487  11.170 -1.6238 -0.7844 -2.6766
  141SAPE  H12B15355   5.870   2.486  11.301 -1.2611 -0.8712 -0.3633
  141SAPE   C1115356   5.830   2.399  11.112  0.0050  0.3187  0.6974
  141SAPE  H11A15357   5.736   2.357  11.153  0.2606  0.5955  1.5874
  141SAPE  H11B15358   5.883   2.319  11.056 -0.8048 -0.2008  0.6494
  141SAPE     P15359   5.689   2.600  11.027  0.0201  0.2656  0.5460
  141SAPE   O1315360   5.638   2.636  11.158 -0.1243 -0.5772  0.4426
  141SAPE   O1415361   5.708   2.714  10.933  0.1889  0.4118 -0.2008
  141SAPE   O1215362   5.817   2.513  11.028  0.1000 -0.0653  0.0297
  141SAPE   O1115363   5.587   2.492  10.964 -0.0437 -0.1910  0.3912
  141SAPE    C115364   5.628   2.403  10.862  0.7130  0.0653  0.6466
  141SAPE    HA15365   5.732   2.418  10.825  0.2440  0.9278 -0.3465
  141SAPE    HB15366   5.625   2.302  10.908  2.3693 -0.2646  0.0799
  141SAPE    C215367   5.540   2.393  10.735  0.5085  0.2687 -0.0614
  141SAPE    HS15368   5.570   2.303  10.678 -2.2759 -0.8745  0.1132
  141SAPE   O2115369   5.552   2.517  10.656 -0.5923  0.1335  0.3105
  141SAPE   C2115370   5.650   2.517  10.559  1.4258 -0.1166  0.5057
  141SAPE   O2215371   5.728   2.428  10.543 -0.6320  0.2822  0.0557
  141SAPE   C2215372   5.629   2.631  10.453  0.2841 -0.4170  0.5365
  141SAPE   H2R15373   5.576   2.712  10.507  1.8660  0.5727  0.6999
  141SAPE   H2S15374   5.729   2.666  10.418  0.8705 -2.4443  0.0040
  141SAPE    C315375   5.397   2.369  10.780  0.8774 -0.1316 -0.8008
  141SAPE    HX15376   5.355   2.452  10.841  0.4279 -1.0450  0.1582
  141SAPE    HY15377   5.402   2.282  10.848  3.6553  0.5679  0.0200
  141SAPE   O3115378   5.304   2.350  10.672 -0.4417  0.1777 -0.2661
  141SAPE   C3115379   5.237   2.456  10.605 -0.5745  0.2354 -0.1646
  141SAPE   O3215380   5.239   2.570  10.647 -0.6465  0.2260 -0.1315
  141SAPE   C3215381   5.164   2.409  10.477 -0.3327  0.8608 -0.4876
  141SAPE   H2X15382   5.086   2.338  10.513  1.4130 -0.0934  1.6795
  141SAPE   H2Y15383   5.236   2.356  10.411 -1.0126  0.4376 -0.9043
  141SAPE   C2315384   5.550   2.597  10.325 -0.0154  0.2936  0.1885
  141SAPE   H3R15385   5.534   2.682  10.255 -1.0091  0.6127  0.7944
  141SAPE   H3S15386   5.450   2.553  10.341  0.6120 -0.5907  1.9775
  141SAPE   C2415387   5.621   2.492  10.233 -0.2055  0.0596  0.3803
  141SAPE   H4R15388   5.650   2.401  10.290 -0.8332 -0.5686 -0.2797
  141SAPE   H4S15389   5.716   2.535  10.196  0.1041 -2.0895 -1.5557
  141SAPE   C2515390   5.536   2.439  10.118 -0.6374  0.6056 -0.6034
  141SAPE   H5R15391   5.500   2.337  10.139 -0.6745  1.0059  1.4746
  141SAPE   C2615392   5.502   2.504  10.009  0.3202 -0.1091 -0.1307
  141SAPE   H6R15393   5.442   2.453   9.932 -1.5963 -1.1390  1.9375
  141SAPE   C2715394   5.553   2.639   9.972  0.1904 -1.4762 -0.3492
  141SAPE   H7R15395   5.614   2.679  10.055  0.3383 -0.9779 -0.6923
  141SAPE   H7S15396   5.462   2.702   9.963 -0.1859 -1.5041  2.3954
  141SAPE   C2815397   5.633   2.637   9.842 -0.5778 -0.5806  0.4182
  141SAPE   H8R15398   5.726   2.578   9.844  1.4072  2.3533  1.5690
  141SAPE   C2915399   5.607   2.691   9.722 -0.6331 -0.2169 -0.7230
  141SAPE   H9R15400   5.675   2.662   9.641  0.9558 -3.7066  1.5987
  141SAPE  C21015401   5.480   2.772   9.690 -0.3170 -0.3484 -0.3644
  141SAPE  H10R15402   5.462   2.855   9.761 -0.1201 -0.5063 -0.1325
  141SAPE  H10S15403   5.392   2.706   9.706  0.4912 -0.9842  1.7212
  141SAPE  C21115404   5.489   2.830   9.548 -0.1594 -0.2380 -0.0578
  141SAPE  H11R15405   5.540   2.927   9.540  0.4779 -0.4986  0.7475
  141SAPE  C21215406   5.436   2.772   9.443 -0.0429 -0.5336 -0.2705
  141SAPE  H12R15407   5.468   2.798   9.341  0.8851 -0.5379  0.0107
  141SAPE  C21315408   5.353   2.640   9.440 -0.0800 -0.1594 -0.7788
  141SAPE  H13R15409   5.272   2.652   9.365  0.0604 -1.4639 -1.1605
  141SAPE  H13S15410   5.305   2.629   9.539  0.0303 -0.8776 -0.8003
  141SAPE  C21415411   5.442   2.518   9.414  0.0178 -0.2547  0.3417
  141SAPE  H14R15412   5.520   2.509   9.491 -1.1249  0.2681  1.6012
  141SAPE  C21515413   5.435   2.440   9.307 -0.4764 -0.0977  0.7178
  141SAPE  H15R15414   5.506   2.356   9.299 -0.7121 -0.2784  0.5143
  141SAPE  C21615415   5.341   2.437   9.187  0.1172  0.6176 -0.7540
  141SAPE  H16R15416   5.250   2.500   9.198  1.2541  2.4287 -1.3732
  141SAPE  H16S15417   5.307   2.334   9.164 -0.6005  0.3780  1.2186
  141SAPE  C21715418   5.428   2.481   9.068 -0.1356  0.5304 -0.4514
  141SAPE  H17R15419   5.358   2.482   8.982 -1.9823  0.1338  0.9785
  141SAPE  H17S15420   5.509   2.409   9.043 -0.1276  0.9463 -1.6757
  141SAPE  C21815421   5.494   2.619   9.078  0.0953 -0.3461 -0.2110
  141SAPE  H18R15422   5.599   2.601   9.109  0.1640  0.0071 -0.2314
  141SAPE  H18S15423   5.433   2.677   9.151 -1.9710 -0.0814 -2.0492
  141SAPE  C21915424   5.495   2.687   8.940  0.3622 -0.1964  0.0217
  141SAPE  H19R15425   5.388   2.702   8.915 -0.0208 -0.8390  1.1915
  141SAPE  H19S15426   5.531   2.621   8.859 -0.9057 -0.6191 -0.2119
  141SAPE  C22015427   5.575   2.814   8.930 -0.0807  0.3178 -0.1038
  141SAPE  H20R15428   5.624   2.823   8.831  0.7230 -1.9421  0.0313
  141SAPE  H20S15429   5.652   2.800   9.009 -0.9904 -1.2871  0.5492
  141SAPE  H20T15430   5.540   2.911   8.969  2.7387  1.1909  0.4623
  141SAPE   C3315431   5.080   2.521  10.405 -0.2699 -0.2389 -0.9405
  141SAPE   H3X15432   5.145   2.609  10.389  1.5457 -1.5509 -1.1964
  141SAPE   H3Y15433   4.996   2.544  10.474 -0.2179  0.6747 -1.1776
  141SAPE   C3415434   5.019   2.473  10.275  0.0658  0.4883  0.1934
  141SAPE   H4X15435   4.952   2.552  10.233  0.0243  0.6086  0.4856
  141SAPE   H4Y15436   4.954   2.391  10.313 -0.4027  0.9208  0.3483
  141SAPE   C3515437   5.120   2.418  10.176 -0.5102 -0.2597  0.1526
  141SAPE   H5X15438   5.151   2.313  10.195  0.8202  0.0410 -0.3057
  141SAPE   H5Y15439   5.209   2.485  10.173 -1.3236  0.8263 -0.2356
  141SAPE   C3615440   5.066   2.428  10.030 -0.1370 -0.2481  0.4727
  141SAPE   H6X15441   4.957   2.416  10.047  0.0641 -0.0068  2.0403
  141SAPE   H6Y15442   5.089   2.339   9.967 -1.1563 -0.7440  0.7639
  141SAPE   C3715443   5.114   2.553   9.962 -0.8794  0.1993 -0.0384
  141SAPE   H7X15444   5.217   2.543   9.923 -0.5440  1.7989  0.3529
  141SAPE   H7Y15445   5.108   2.644  10.026 -1.2513 -1.5002  2.4902
  141SAPE   C3815446   5.042   2.583   9.828  0.1825  0.2658  0.4879
  141SAPE   H8X15447   5.085   2.680   9.792 -2.4379  1.3358  0.0314
  141SAPE   H8Y15448   4.936   2.615   9.835 -0.1976 -0.6889 -0.6727
  141SAPE   C3915449   5.063   2.469   9.733  1.5063  0.0634 -0.1741
  141SAPE   H9X15450   5.005   2.380   9.765 -0.2219  0.9412 -0.7677
  141SAPE   H9Y15451   5.172   2.445   9.730  1.5546 -0.0346  1.5628
  141SAPE  C31015452   5.013   2.517   9.588 -0.1109  0.4852  0.4117
  141SAPE  H10X15453   5.080   2.603   9.563 -1.2891  1.9912  2.0941
  141SAPE  H10Y15454   4.910   2.556   9.602 -0.0790  0.2409  1.4051
  141SAPE  C31115455   5.016   2.405   9.492  0.0445 -0.1600  0.7159
  141SAPE  H11X15456   4.947   2.331   9.539  2.7586 -2.3906  1.4934
  141SAPE  H11Y15457   5.117   2.360   9.498  0.9008  1.7752  1.2187
  141SAPE  C31215458   4.994   2.453   9.349 -0.1515 -1.0830 -0.4172
  141SAPE  H12X15459   5.086   2.502   9.311  1.2272 -3.4326 -0.2791
  141SAPE  H12Y15460   4.900   2.510   9.335  0.0070 -0.1241  1.9053
  141SAPE  C31315461   5.007   2.333   9.254 -0.0072 -0.3792  0.0151
  141SAPE  H13X15462   4.936   2.251   9.278  2.2292 -2.2540  0.6141
  141SAPE  H13Y15463   5.105   2.285   9.276 -0.6637 -0.5781  2.9179
  141SAPE  C31415464   4.995   2.370   9.108 -0.7993  0.2180  0.4222
  141SAPE  H14X15465   5.090   2.426   9.092 -0.0042 -1.0804  0.4862
  141SAPE  H14Y15466   4.915   2.447   9.102 -0.1506  0.8232 -0.8103
  141SAPE  C31515467   4.982   2.261   9.007  0.2753 -0.0251  0.0577
  141SAPE  H15X15468   4.877   2.225   8.995  0.5013 -0.4133 -0.8583
  141SAPE  H15Y15469   5.038   2.174   9.045 -3.3336 -2.8863 -0.5954
  141SAPE  C31615470   5.034   2.308   8.866  0.1876  0.5798  0.2178
  141SAPE  H16X15471   5.006   2.415   8.854  0.6456  1.2296  3.6961
  141SAPE  H16Y15472   4.982   2.251   8.787  0.9870 -0.5047  0.4521
  141SAPE  C31715473   5.174   2.286   8.840 -0.7744  0.5908  0.2197
  141SAPE  H17X15474   5.198   2.179   8.822  4.5841  1.0756  2.6660
  141SAPE  H17Y15475   5.243   2.312   8.923  1.5085 -1.1332 -1.0228
  141SAPE  C31815476   5.218   2.363   8.718  0.0281 -0.0765  0.3334
  141SAPE  H18X15477   5.152   2.359   8.629  2.0507 -0.5725 -1.2011
  141SAPE  H18Y15478   5.312   2.322   8.675 -0.1521  1.1875 -1.3898
  141SAPE  H18Z15479   5.252   2.464   8.750 -0.9862 -0.3701  2.5575
  142SAPE     N15480   3.468   1.272  11.022  0.0220 -0.3652  0.1980
  142SAPE   HN115481   3.548   1.253  11.086  0.1965 -1.9807 -0.4355
  142SAPE   HN215482   3.427   1.367  11.030 -0.5427 -0.6039  0.1405
  142SAPE   HN315483   3.397   1.198  11.037 -0.5609  0.5414  2.2470
  142SAPE   C1215484   3.521   1.235  10.881 -0.3424 -0.7215  0.8936
  142SAPE  H12A15485   3.592   1.315  10.853 -1.8595  1.0633  1.9443
  142SAPE  H12B15486   3.433   1.245  10.815 -2.3913  1.9587  3.7536
  142SAPE   C1115487   3.589   1.098  10.881  0.1372 -0.5371 -0.0166
  142SAPE  H11A15488   3.638   1.094  10.782 -1.1864  0.9912 -0.7771
  142SAPE  H11B15489   3.512   1.018  10.874 -1.2461  0.8124 -1.0969
  142SAPE     P15490   3.746   0.942  11.020 -0.1220 -0.1193  0.0400
  142SAPE   O1315491   3.880   0.964  11.084  0.3063  0.4281  0.4561
  142SAPE   O1415492   3.641   0.881  11.096 -0.2635  0.3426 -0.3033
  142SAPE   O1215493   3.690   1.089  10.979  0.0388 -0.1105 -0.7588
  142SAPE   O1115494   3.748   0.876  10.876 -0.3227 -0.1061 -0.5739
  142SAPE    C115495   3.856   0.798  10.830  0.6406 -0.4178 -0.2128
  142SAPE    HA15496   3.953   0.850  10.843 -0.5720  1.5662  1.4994
  142SAPE    HB15497   3.850   0.706  10.892  1.2515 -0.2561  0.0911
  142SAPE    C215498   3.846   0.775  10.680 -0.1530 -0.2135  0.5416
  142SAPE    HS15499   3.754   0.715  10.662 -0.1116 -0.0493 -0.2395
  142SAPE   O2115500   3.952   0.689  10.640 -0.0928 -0.3072 -0.4934
  142SAPE   C2115501   3.944   0.559  10.676  0.9186 -0.0336  0.4529
  142SAPE   O2215502   3.839   0.505  10.715  0.1509  0.3371 -0.1202
  142SAPE   C2215503   4.082   0.496  10.691 -0.8609  0.5539 -0.3801
  142SAPE   H2R15504   4.166   0.564  10.666  0.6222 -1.5652 -1.4620
  142SAPE   H2S15505   4.081   0.467  10.798  0.0995  0.7431 -0.3185
  142SAPE    C315506   3.831   0.908  10.593  0.2948  0.1086  0.2269
  142SAPE    HX15507   3.912   0.976  10.628 -0.1459  0.3479  0.7909
  142SAPE    HY15508   3.731   0.953  10.607 -0.0767 -0.0244 -1.6436
  142SAPE   O3115509   3.848   0.875  10.460  0.4129 -0.4695  0.0546
  142SAPE   C3115510   3.850   0.975  10.373 -0.2934 -0.0064 -0.4486
  142SAPE   O3215511   3.829   1.090  10.411  0.7202  0.1867 -0.4448
  142SAPE   C3215512   3.880   0.924  10.226  0.5913  0.6136 -0.4343
  142SAPE   H2X15513   3.782   0.885  10.191  1.2671 -1.2716 -0.3275
  142SAPE   H2Y15514   3.953   0.841  10.231  0.9631  1.0251  3.0154
  142SAPE   C2315515   4.089   0.370  10.595 -0.0646 -0.2206  0.0138
  142SAPE   H3R15516   3.987   0.346  10.557 -0.0950  0.1507 -0.1458
  142SAPE   H3S15517   4.121   0.284  10.656 -0.1153 -0.2091  0.0580
  142SAPE   C2415518   4.175   0.400  10.469 -0.4661  0.6491  0.2393
  142SAPE   H4R15519   4.277   0.406  10.512 -0.9171  1.7987  1.2115
  142SAPE   H4S15520   4.141   0.497  10.427 -1.3892  0.9859  1.6654
  142SAPE   C2515521   4.174   0.295  10.362 -0.4244 -0.4351 -0.0826
  142SAPE   H5R15522   4.198   0.194  10.399 -0.9984 -0.3955  0.4047
  142SAPE   C2615523   4.151   0.307  10.235 -1.0543 -0.3625 -0.0160
  142SAPE   H6R15524   4.134   0.216  10.177  0.6772 -0.8121  0.1088
  142SAPE   C2715525   4.121   0.434  10.150  0.7733 -0.1082  0.2709
  142SAPE   H7R15526   4.073   0.502  10.224 -0.4982 -0.7943  0.1117
  142SAPE   H7S15527   4.043   0.406  10.076  1.9986 -0.6609 -0.8550
  142SAPE   C2815528   4.239   0.507  10.086 -0.3589  0.9784 -0.2795
  142SAPE   H8R15529   4.314   0.549  10.154 -0.8321  0.8504  0.3357
  142SAPE   C2915530   4.257   0.509   9.954 -0.2014  0.1984 -0.1161
  142SAPE   H9R15531   4.346   0.558   9.913  0.0294  0.1105  0.2749
  142SAPE  C21015532   4.173   0.456   9.841  0.0699  0.3977 -0.1912
  142SAPE  H10R15533   4.109   0.372   9.876 -0.8477  0.9080 -0.6123
  142SAPE  H10S15534   4.245   0.418   9.766 -2.5748  0.3291 -2.9165
  142SAPE  C21115535   4.077   0.548   9.775 -0.0360  0.3499  0.0042
  142SAPE  H11R15536   3.982   0.564   9.828 -0.0675  0.9233 -0.2254
  142SAPE  C21215537   4.095   0.610   9.660  0.0497  0.0318  0.3380
  142SAPE  H12R15538   4.014   0.676   9.624 -2.6921 -2.1687  2.0127
  142SAPE  C21315539   4.220   0.599   9.576 -0.1471  0.0454 -0.4842
  142SAPE  H13R15540   4.311   0.596   9.641 -0.8025  2.5125  0.6554
  142SAPE  H13S15541   4.225   0.700   9.530 -1.4049 -0.0767 -0.9245
  142SAPE  C21415542   4.213   0.478   9.488  0.8770  0.6913 -0.5997
  142SAPE  H14R15543   4.206   0.385   9.546 -0.4768  0.8135 -0.5325
  142SAPE  C21515544   4.235   0.466   9.353 -0.5893 -0.5012 -0.0529
  142SAPE  H15R15545   4.217   0.365   9.313 -1.9490 -0.2155 -0.2215
  142SAPE  C21615546   4.261   0.587   9.261  0.5070  0.3317 -0.2690
  142SAPE  H16R15547   4.353   0.641   9.291  1.3880 -1.3603  0.1679
  142SAPE  H16S15548   4.186   0.669   9.265  1.8861  1.6624 -0.3869
  142SAPE  C21715549   4.280   0.529   9.120  0.1565  0.5301 -0.9076
  142SAPE  H17R15550   4.196   0.459   9.100  0.4803 -1.2827  2.9783
  142SAPE  H17S15551   4.375   0.470   9.127  0.0489  0.4092 -0.4108
  142SAPE  C21815552   4.298   0.633   9.016 -0.6500  0.0390 -0.0024
  142SAPE  H18R15553   4.377   0.706   9.046 -0.7258  0.6415 -1.2234
  142SAPE  H18S15554   4.197   0.678   9.018 -1.6663 -2.1426  1.4802
  142SAPE  C21915555   4.331   0.573   8.876 -0.4732 -0.0114  0.3201
  142SAPE  H19R15556   4.332   0.462   8.884 -0.9487 -0.4036 -3.3934
  142SAPE  H19S15557   4.438   0.595   8.852 -1.0697  1.1751 -1.4093
  142SAPE  C22015558   4.234   0.613   8.766 -0.0194  0.2062  0.2203
  142SAPE  H20R15559   4.269   0.558   8.676  2.5923  1.3371  0.4485
  142SAPE  H20S15560   4.235   0.724   8.760  0.9370  0.1612 -0.5453
  142SAPE  H20T15561   4.127   0.592   8.789 -0.5396 -1.8674 -3.3367
  142SAPE   C3315562   3.955   1.021  10.130  0.1556 -0.3301  0.3625
  142SAPE   H3X15563   4.052   1.055  10.171 -0.3054  0.7488  0.5772
  142SAPE   H3Y15564   3.884   1.106  10.126  0.0454 -0.4245  0.2901
  142SAPE   C3415565   3.978   0.958   9.993 -0.0387  0.0274  0.4840
  142SAPE   H4X15566   3.876   0.938   9.955  0.1281  0.6844 -0.3648
  142SAPE   H4Y15567   4.021   0.856  10.000 -0.6672 -0.2116  0.8878
  142SAPE   C3515568   4.067   1.048   9.911 -0.2986  0.4515  0.1556
  142SAPE   H5X15569   4.155   1.085   9.969 -0.6671  2.3729 -0.4230
  142SAPE   H5Y15570   4.002   1.135   9.890 -0.5054  0.4793  0.8897
  142SAPE   C3615571   4.118   0.980   9.784 -0.1195  0.7004 -0.0556
  142SAPE   H6X15572   4.036   0.934   9.724  0.5964 -0.4345 -0.1989
  142SAPE   H6Y15573   4.183   0.893   9.809 -0.0464  0.2552 -1.6873
  142SAPE   C3715574   4.196   1.069   9.683 -0.3830  0.0063  0.1095
  142SAPE   H7X15575   4.286   1.119   9.726  0.1295 -1.9009  1.4233
  142SAPE   H7Y15576   4.131   1.154   9.655 -0.6304 -0.1143  0.3108
  142SAPE   C3815577   4.247   0.988   9.557  0.2204  0.2186 -0.9997
  142SAPE   H8X15578   4.159   0.948   9.502  0.8958 -0.2349 -1.7731
  142SAPE   H8Y15579   4.302   0.898   9.593 -0.0646 -0.0163 -1.1448
  142SAPE   C3915580   4.324   1.063   9.451 -0.2698 -0.7533 -0.0469
  142SAPE   H9X15581   4.427   1.086   9.485 -0.3419 -1.0197  0.3613
  142SAPE   H9Y15582   4.262   1.154   9.435 -1.6573 -1.7004 -0.2606
  142SAPE  C31015583   4.321   0.986   9.323  0.4801  0.2862  0.2703
  142SAPE  H10X15584   4.215   0.978   9.293  0.2172 -0.0002  1.2386
  142SAPE  H10Y15585   4.364   0.884   9.332  1.1679  0.7202  2.6881
  142SAPE  C31115586   4.394   1.061   9.203 -0.4619 -0.4282  0.3434
  142SAPE  H11X15587   4.491   1.085   9.254 -1.2179  2.5731  0.5457
  142SAPE  H11Y15588   4.341   1.155   9.178 -1.7474 -1.1274  0.3668
  142SAPE  C31215589   4.417   0.978   9.088 -0.0521  0.1192 -0.1492
  142SAPE  H12X15590   4.319   0.954   9.041  0.4189  0.9773 -1.6584
  142SAPE  H12Y15591   4.463   0.885   9.126  0.6527 -0.2086 -1.7235
  142SAPE  C31315592   4.511   1.046   8.986 -0.1186  0.2888 -0.0806
  142SAPE  H13X15593   4.605   1.055   9.044  0.9049 -0.7410 -1.4926
  142SAPE  H13Y15594   4.475   1.141   8.943  3.4399  1.2130 -1.4083
  142SAPE  C31415595   4.549   0.941   8.880  0.0837  0.4767 -0.2104
  142SAPE  H14X15596   4.455   0.900   8.839  0.0052  0.4286  0.0136
  142SAPE  H14Y15597   4.621   0.869   8.924  1.5050  1.0940 -1.4527
  142SAPE  C31515598   4.621   0.997   8.759  0.9477  0.3716 -0.1048
  142SAPE  H15X15599   4.670   0.916   8.701 -2.5609 -1.1585 -1.1550
  142SAPE  H15Y15600   4.704   1.066   8.785  0.0779  1.4831 -0.1991
  142SAPE  C31615601   4.510   1.060   8.660  0.1320  0.2410 -0.0183
  142SAPE  H16X15602   4.461   1.139   8.720  0.5443 -0.8187  1.7881
  142SAPE  H16Y15603   4.439   0.980   8.629  0.2392  0.0705  0.1779
  142SAPE  C31715604   4.562   1.133   8.528 -0.4235  0.0244 -0.7879
  142SAPE  H17X15605   4.624   1.062   8.469  0.1903 -2.5801  2.6668
  142SAPE  H17Y15606   4.631   1.214   8.561  1.0510 -0.6039 -2.2064
  142SAPE  C31815607   4.457   1.188   8.439 -0.0231 -0.1979  0.1700
  142SAPE  H18X15608   4.398   1.104   8.397 -0.9570  0.6326 -0.2299
  142SAPE  H18Y15609   4.491   1.254   8.356  1.3084 -0.6600  0.3202
  142SAPE  H18Z15610   4.387   1.251   8.498 -1.0976  0.2814 -1.5496
  143SAPE     N15611   6.014   0.750  10.844 -0.0174 -0.3290 -0.6023
  143SAPE   HN115612   5.921   0.783  10.811  1.1696  3.1040 -0.9527
  143SAPE   HN215613   6.071   0.827  10.885  0.0385 -0.5323 -0.2919
  143SAPE   HN315614   6.063   0.715  10.759  0.3549  1.2418 -1.0823
  143SAPE   C1215615   5.983   0.648  10.948  0.3761 -0.5145 -0.0835
  143SAPE  H12A15616   5.916   0.687  11.028 -1.0779 -0.7152 -1.1557
  143SAPE  H12B15617   6.071   0.611  11.006 -1.6593 -2.3495  2.0877
  143SAPE   C1115618   5.903   0.536  10.876 -0.6914 -0.6168 -0.5151
  143SAPE  H11A15619   5.970   0.499  10.795 -2.2231 -1.7147 -1.3113
  143SAPE  H11B15620   5.812   0.587  10.839 -0.6102  0.8844  1.2324
  143SAPE     P15621   5.866   0.283  10.949  0.1295 -0.2262 -0.0340
  143SAPE   O1315622   5.963   0.215  11.032  0.2022  0.3559  0.1366
  143SAPE   O1415623   5.719   0.249  10.984 -0.6634  0.6332  0.0164
  143SAPE   O1215624   5.862   0.439  10.975 -0.5775  0.3818  0.1434
  143SAPE   O1115625   5.896   0.256  10.793 -1.1057 -0.0012  0.2657
  143SAPE    C115626   5.788   0.245  10.701 -0.0800  0.0681  0.5457
  143SAPE    HA15627   5.733   0.152  10.725 -2.2401  0.9977 -0.4707
  143SAPE    HB15628   5.718   0.332  10.702  1.7090  1.5676  0.5195
  143SAPE    C215629   5.847   0.218  10.562  0.4012 -0.2948  0.0090
  143SAPE    HS15630   5.778   0.208  10.476 -0.2900  2.1316  0.2102
  143SAPE   O2115631   5.932   0.100  10.574 -0.3074  0.5440 -0.1559
  143SAPE   C2115632   5.867  -0.014  10.559  0.2731  0.2065 -0.2589
  143SAPE   O2215633   5.748  -0.023  10.535  0.3384  0.2990  0.4598
  143SAPE   C2215634   5.951  -0.126  10.605 -0.6175  0.2490 -0.1081
  143SAPE   H2R15635   5.997  -0.086  10.698 -0.3870  1.4387 -0.7289
  143SAPE   H2S15636   5.893  -0.217  10.632  2.2350 -1.4591  0.6842
  143SAPE    C315637   5.944   0.338  10.516  0.2318 -0.6371  0.3726
  143SAPE    HX15638   6.022   0.350  10.594 -0.2481  0.3345  0.7197
  143SAPE    HY15639   5.886   0.430  10.491 -0.4129 -1.9647 -3.9297
  143SAPE   O3115640   5.997   0.297  10.389 -0.6103  0.0878  0.2606
  143SAPE   C3115641   6.112   0.371  10.355 -0.2209  0.8999 -0.7271
  143SAPE   O3215642   6.157   0.457  10.426 -0.1724 -0.2709  0.0497
  143SAPE   C3215643   6.165   0.316  10.219 -0.7309  0.3382 -0.6405
  143SAPE   H2X15644   6.237   0.236  10.246 -0.6529  0.6677  0.1375
  143SAPE   H2Y15645   6.238   0.388  10.177  0.0274 -0.8932 -1.5038
  143SAPE   C2315646   6.062  -0.157  10.503 -0.1790  0.4402 -0.5655
  143SAPE   H3R15647   6.131  -0.234  10.542 -2.5026 -1.4289  0.0504
  143SAPE   H3S15648   6.128  -0.068  10.489  1.8102 -0.6890  1.1576
  143SAPE   C2415649   6.019  -0.191  10.351  0.0233  0.3055 -0.5788
  143SAPE   H4R15650   6.114  -0.213  10.298  0.7679 -0.6967  1.1076
  143SAPE   H4S15651   5.966  -0.104  10.307  0.0328 -0.8167 -2.9648
  143SAPE   C2515652   5.930  -0.310  10.355 -0.3115  0.4248 -0.5510
  143SAPE   H5R15653   5.950  -0.380  10.437  1.0798  1.9199  0.4614
  143SAPE   C2615654   5.829  -0.333  10.267 -0.3918  0.9976  0.2649
  143SAPE   H6R15655   5.753  -0.408  10.295  0.2292  0.0811 -0.4726
  143SAPE   C2715656   5.801  -0.249  10.143  0.1501  0.2495 -0.2222
  143SAPE   H7R15657   5.789  -0.324  10.062 -1.2432 -0.8789  0.9716
  143SAPE   H7S15658   5.888  -0.189  10.110  0.7686 -0.4126  0.1609
  143SAPE   C2815659   5.667  -0.178  10.147  0.1066 -0.1708 -0.2554
  143SAPE   H8R15660   5.589  -0.239  10.194  0.3032 -0.1042  0.1579
  143SAPE   C2915661   5.637  -0.056  10.101 -0.1091  0.1818 -0.7646
  143SAPE   H9R15662   5.534  -0.020  10.097 -0.1595 -0.0839 -2.3240
  143SAPE  C21015663   5.742   0.034  10.042  0.0597  0.0374 -0.7252
  143SAPE  H10R15664   5.827  -0.018   9.992  0.0589 -2.2442  1.4649
  143SAPE  H10S15665   5.780   0.104  10.120 -1.7539  2.4389 -1.8419
  143SAPE  C21115666   5.681   0.123   9.942 -0.2230  0.0135  0.4342
  143SAPE  H11R15667   5.680   0.229   9.972  0.8556  0.3059 -0.5023
  143SAPE  C21215668   5.644   0.087   9.818  0.1916  0.3511  0.4452
  143SAPE  H12R15669   5.578   0.155   9.762 -0.5790 -2.2308 -2.0854
  143SAPE  C21315670   5.640  -0.050   9.754 -0.8451  0.2862  0.2575
  143SAPE  H13R15671   5.720  -0.110   9.803 -1.6124 -0.9651  0.0341
  143SAPE  H13S15672   5.674  -0.048   9.648 -1.4453 -0.0640  0.0489
  143SAPE  C21415673   5.513  -0.120   9.774  0.6570  0.4618 -0.4614
  143SAPE  H14R15674   5.458  -0.084   9.863  2.6758  1.5864  0.4178
  143SAPE  C21515675   5.463  -0.225   9.710 -0.3085  0.4463  0.0593
  143SAPE  H15R15676   5.368  -0.270   9.743  1.3423 -2.7196  0.8806
  143SAPE  C21615677   5.535  -0.308   9.600  0.0871  0.6965 -0.1441
  143SAPE  H16R15678   5.598  -0.386   9.648  1.2280  0.4290 -2.0054
  143SAPE  H16S15679   5.596  -0.240   9.538 -0.3166 -0.0613 -1.4134
  143SAPE  C21715680   5.439  -0.396   9.526 -0.0009 -0.4019  0.4000
  143SAPE  H17R15681   5.369  -0.448   9.596  1.3653 -0.7357  1.5618
  143SAPE  H17S15682   5.503  -0.479   9.487 -0.2388 -0.6501  0.5299
  143SAPE  C21815683   5.375  -0.342   9.402 -0.2165 -0.0442  0.0886
  143SAPE  H18R15684   5.454  -0.330   9.325 -1.5334  2.4084 -0.9930
  143SAPE  H18S15685   5.323  -0.244   9.412 -2.0693 -1.0593  0.8073
  143SAPE  C21915686   5.248  -0.431   9.366 -0.1544 -0.0728 -0.5448
  143SAPE  H19R15687   5.209  -0.469   9.464  1.0633 -0.6625 -0.2725
  143SAPE  H19S15688   5.292  -0.515   9.309  1.0523 -2.1186  3.0843
  143SAPE  C22015689   5.126  -0.368   9.288 -0.2537  0.6753  0.0189
  143SAPE  H20R15690   5.068  -0.305   9.359  0.0318 -0.9425  1.7587
  143SAPE  H20S15691   5.055  -0.444   9.249  1.2808 -0.7189 -0.1860
  143SAPE  H20T15692   5.157  -0.297   9.208 -0.3488  1.5547  0.7464
  143SAPE   C3315693   6.057   0.269  10.124 -0.5983 -0.3809 -0.1121
  143SAPE   H3X15694   6.004   0.349  10.066 -1.0485 -0.3110  0.3874
  143SAPE   H3Y15695   5.977   0.208  10.171 -1.6469  2.4640  2.1373
  143SAPE   C3415696   6.115   0.189  10.004  0.5325 -0.4371  0.2921
  143SAPE   H4X15697   6.208   0.231   9.960  0.4246  3.7243  3.4463
  143SAPE   H4Y15698   6.042   0.208   9.923  1.4441  0.5195 -0.3316
  143SAPE   C3515699   6.118   0.039  10.028  0.6082 -0.1598 -0.8825
  143SAPE   H5X15700   6.024   0.011  10.080  0.6125 -0.5058 -1.0612
  143SAPE   H5Y15701   6.197   0.021  10.104  0.9403  0.1929 -1.1416
  143SAPE   C3615702   6.143  -0.050   9.903  0.2245 -0.0361  0.2046
  143SAPE   H6X15703   6.201  -0.139   9.936  1.3883  1.0504  1.1520
  143SAPE   H6Y15704   6.222   0.002   9.845  0.0474  0.2937  0.2571
  143SAPE   C3715705   6.022  -0.083   9.820  0.2774  0.1898  0.2090
  143SAPE   H7X15706   5.956   0.001   9.790 -0.0835 -0.3198 -0.4425
  143SAPE   H7Y15707   5.962  -0.157   9.877  0.4895 -0.6656 -0.6578
  143SAPE   C3815708   6.067  -0.151   9.693  0.5619 -1.0630  0.1365
  143SAPE   H8X15709   6.107  -0.253   9.712 -1.6850 -1.5244  3.1390
  143SAPE   H8Y15710   6.149  -0.084   9.659 -0.9106  0.9692  0.4006
  143SAPE   C3915711   5.952  -0.165   9.591  0.3663 -0.1607  0.1115
  143SAPE   H9X15712   5.908  -0.065   9.571  0.6881 -0.0162  0.1166
  143SAPE   H9Y15713   5.869  -0.214   9.647 -1.5506  4.3963  1.7299
  143SAPE  C31015714   5.985  -0.249   9.464 -0.2409 -1.0701 -0.4356
  143SAPE  H10X15715   5.894  -0.247   9.400 -1.1027  0.1336  0.7731
  143SAPE  H10Y15716   6.001  -0.354   9.495 -2.0453 -1.3421 -0.2994
  143SAPE  C31115717   6.105  -0.195   9.384 -0.0209 -0.2446 -0.5458
  143SAPE  H11X15718   6.192  -0.207   9.452 -0.4732 -0.9286 -0.0762
  143SAPE  H11Y15719   6.089  -0.088   9.360 -0.1688 -0.5706 -1.9615
  143SAPE  C31215720   6.127  -0.278   9.261  0.1309 -0.0330 -0.7240
  143SAPE  H12X15721   6.095  -0.381   9.289  2.9326 -0.6885  0.4415
  143SAPE  H12Y15722   6.237  -0.271   9.245  0.5931 -1.3789  1.4734
  143SAPE  C31315723   6.048  -0.233   9.135  0.3428  0.8091 -0.2971
  143SAPE  H13X15724   6.098  -0.147   9.085  0.3005 -0.0655 -1.8861
  143SAPE  H13Y15725   5.951  -0.206   9.182  0.0579 -1.4799  0.5235
  143SAPE  C31415726   6.033  -0.348   9.031  0.2311 -1.0147 -1.0858
  143SAPE  H14X15727   6.019  -0.440   9.092 -0.0366 -1.1814 -1.3909
  143SAPE  H14Y15728   6.129  -0.363   8.977  0.0968 -0.6162 -1.4424
  143SAPE  C31515729   5.920  -0.325   8.934 -0.3676  0.2355  0.0548
  143SAPE  H15X15730   5.921  -0.410   8.863  0.4544 -1.2635  1.7686
  143SAPE  H15Y15731   5.939  -0.234   8.873  0.9661  0.1166  0.2633
  143SAPE  C31615732   5.780  -0.312   8.996  0.1002 -0.2067  1.0838
  143SAPE  H16X15733   5.783  -0.239   9.080 -0.3323 -1.7427  2.4792
  143SAPE  H16Y15734   5.756  -0.412   9.038  1.2158 -1.1929 -0.5412
  143SAPE  C31715735   5.674  -0.274   8.903  0.3642 -0.7408  0.5342
  143SAPE  H17X15736   5.665  -0.351   8.823  1.0233  0.7512 -1.0379
  143SAPE  H17Y15737   5.695  -0.177   8.854 -0.3994  0.2999  2.1871
  143SAPE  C31815738   5.537  -0.266   8.977 -0.2067  0.0027  0.2477
  143SAPE  H18X15739   5.542  -0.202   9.068 -0.7363 -0.2523  0.4613
  143SAPE  H18Y15740   5.498  -0.364   9.010  0.8021 -0.5846 -0.2411
  143SAPE  H18Z15741   5.465  -0.215   8.909 -0.4224  0.3225  0.7169
  144SAPE     N15742   3.030   0.287  11.221  0.0931 -0.0649  0.3066
  144SAPE   HN115743   3.060   0.215  11.153 -0.5317  0.3031 -0.3724
  144SAPE   HN215744   3.031   0.239  11.314  0.2757 -0.0541  0.3119
  144SAPE   HN315745   2.933   0.317  11.199  0.5415  1.1853 -0.0748
  144SAPE   C1215746   3.128   0.399  11.235 -0.4989 -0.9531 -0.6271
  144SAPE  H12A15747   3.185   0.374  11.327 -0.2249  0.7190 -0.3071
  144SAPE  H12B15748   3.079   0.495  11.262 -0.2393 -0.5393 -1.5796
  144SAPE   C1115749   3.224   0.428  11.117 -1.5434  0.5995 -0.6131
  144SAPE  H11A15750   3.271   0.527  11.137  0.8930 -0.5458 -0.2486
  144SAPE  H11B15751   3.161   0.428  11.026 -0.4637 -0.3472 -1.3902
  144SAPE     P15752   3.300   0.199  11.003  0.3258  0.0498  0.1540
  144SAPE   O1315753   3.422   0.115  11.005  0.1008  0.0470  1.1187
  144SAPE   O1415754   3.177   0.135  11.055 -0.1639  0.2672 -0.4222
  144SAPE   O1215755   3.334   0.325  11.101  1.2104  1.1451 -0.1531
  144SAPE   O1115756   3.262   0.255  10.863  0.4324  0.1182  0.5365
  144SAPE    C115757   3.333   0.372  10.817 -0.1178  0.4560  0.5601
  144SAPE    HA15758   3.270   0.463  10.829 -1.7937 -0.5931  0.0766
  144SAPE    HB15759   3.434   0.387  10.859  1.3416 -0.7371 -2.2743
  144SAPE    C215760   3.367   0.359  10.666  0.3805  0.7059 -0.7002
  144SAPE    HS15761   3.432   0.270  10.655  0.2829  0.3923  0.9756
  144SAPE   O2115762   3.418   0.484  10.622  0.5368  0.4838 -0.1934
  144SAPE   C2115763   3.504   0.472  10.526 -0.3429  0.0400  0.4249
  144SAPE   O2215764   3.549   0.365  10.487  0.2487 -0.0194 -0.2146
  144SAPE   C2215765   3.547   0.607  10.465 -0.1506 -0.0917 -0.2169
  144SAPE   H2R15766   3.468   0.650  10.399  0.7315 -1.0406 -1.9696
  144SAPE   H2S15767   3.576   0.671  10.550  2.7226 -0.9715 -0.4427
  144SAPE    C315768   3.232   0.329  10.594  0.1856 -0.6081  0.2359
  144SAPE    HX15769   3.165   0.416  10.608 -0.9441 -1.6123  1.3942
  144SAPE    HY15770   3.182   0.235  10.627 -1.0276 -0.0957 -0.0967
  144SAPE   O3115771   3.243   0.317  10.455  0.2202 -0.2964  0.2039
  144SAPE   C3115772   3.297   0.215  10.408 -0.6351  0.0821 -1.3143
  144SAPE   O3215773   3.334   0.116  10.479 -0.0822  0.8788  0.4422
  144SAPE   C3215774   3.318   0.220  10.259 -0.7006  0.4318  0.6056
  144SAPE   H2X15775   3.341   0.324  10.227  0.0352  0.1606  0.2339
  144SAPE   H2Y15776   3.218   0.189  10.221 -1.4979 -0.3045  3.0737
  144SAPE   C2315777   3.677   0.609  10.382  0.3825  0.2889 -0.0643
  144SAPE   H3R15778   3.759   0.573  10.447  2.9675  2.5659 -1.8567
  144SAPE   H3S15779   3.704   0.714  10.357  0.7506  0.0534 -0.6716
  144SAPE   C2415780   3.660   0.538  10.251  0.3541  0.4599  0.2068
  144SAPE   H4R15781   3.561   0.550  10.201 -0.0080  2.2884  1.2887
  144SAPE   H4S15782   3.658   0.430  10.279  0.5614 -0.0661 -1.6612
  144SAPE   C2515783   3.768   0.558  10.156 -0.1967  0.6085 -0.0046
  144SAPE   H5R15784   3.857   0.507  10.195  0.8732  1.4097 -1.2990
  144SAPE   C2615785   3.768   0.620  10.035  0.2027  0.2647 -0.6456
  144SAPE   H6R15786   3.865   0.632   9.984 -0.6967 -0.5292 -2.6169
  144SAPE   C2715787   3.665   0.706   9.955 -0.2430  0.5309  0.6373
  144SAPE   H7R15788   3.708   0.775   9.880 -0.9007 -0.2587 -0.4999
  144SAPE   H7S15789   3.612   0.769  10.030 -1.7888  0.9261 -0.7269
  144SAPE   C2815790   3.556   0.617   9.895 -0.4328  0.1308 -0.2504
  144SAPE   H8R15791   3.473   0.588   9.961  0.0027 -0.5753  0.0147
  144SAPE   C2915792   3.547   0.584   9.764 -1.1487 -0.0127  0.8243
  144SAPE   H9R15793   3.454   0.534   9.733 -0.8698  0.3226 -0.6147
  144SAPE  C21015794   3.651   0.609   9.660  0.3444  0.4903  0.1306
  144SAPE  H10R15795   3.699   0.512   9.635 -0.6507 -0.6036  2.2542
  144SAPE  H10S15796   3.732   0.681   9.685 -1.1826  2.8715 -1.3502
  144SAPE  C21115797   3.585   0.656   9.527 -0.3563  0.7487 -0.1025
  144SAPE  H11R15798   3.489   0.707   9.512 -1.4121 -1.9128 -3.3160
  144SAPE  C21215799   3.651   0.656   9.413 -1.0691  0.2413 -0.1844
  144SAPE  H12R15800   3.613   0.679   9.312 -0.6824  0.2397 -0.3335
  144SAPE  C21315801   3.794   0.606   9.402  0.5337  0.5409  0.6352
  144SAPE  H13R15802   3.803   0.496   9.401 -0.9374  0.3936 -0.4454
  144SAPE  H13S15803   3.850   0.646   9.490  1.2954  1.0263 -0.0567
  144SAPE  C21415804   3.879   0.660   9.282  0.0978 -0.0548 -0.5153
  144SAPE  H14R15805   3.956   0.735   9.306  0.8398 -0.7231 -0.7504
  144SAPE  C21515806   3.865   0.629   9.157 -0.8506 -0.1240  0.3636
  144SAPE  H15R15807   3.942   0.670   9.091 -0.2825 -0.3512  0.8834
  144SAPE  C21615808   3.773   0.528   9.088 -0.1627  0.1958 -0.9804
  144SAPE  H16R15809   3.669   0.565   9.102  0.5989  2.6706 -1.3852
  144SAPE  H16S15810   3.767   0.427   9.133 -0.5076 -0.6636 -2.8362
  144SAPE  C21715811   3.804   0.517   8.936  0.0070 -0.0948 -0.0547
  144SAPE  H17R15812   3.906   0.482   8.912 -0.1992  0.2522 -1.5656
  144SAPE  H17S15813   3.799   0.618   8.890  1.1831 -0.8073 -1.8679
  144SAPE  C21815814   3.720   0.416   8.856  0.0537 -0.0605  0.3802
  144SAPE  H18R15815   3.617   0.443   8.888  0.7078  1.4823  1.2912
  144SAPE  H18S15816   3.762   0.318   8.885  0.1024 -0.0348  0.3947
  144SAPE  C21915817   3.729   0.444   8.706 -0.0988 -0.6225 -0.8052
  144SAPE  H19R15818   3.834   0.452   8.672  0.0275 -0.1022 -0.3049
  144SAPE  H19S15819   3.694   0.549   8.700  1.4941 -0.0262 -0.0980
  144SAPE  C22015820   3.639   0.354   8.616  0.1703 -0.0568  0.4269
  144SAPE  H20R15821   3.532   0.364   8.645 -0.6290 -1.4358 -1.8292
  144SAPE  H20S15822   3.679   0.251   8.632 -0.4382 -0.1150  1.7240
  144SAPE  H20T15823   3.661   0.372   8.509 -2.6230 -0.8662 -0.3529
  144SAPE   C3315824   3.411   0.104  10.200 -0.5075 -0.3721 -0.4336
  144SAPE   H3X15825   3.366   0.011  10.241  0.0884  0.7496  3.1654
  144SAPE   H3Y15826   3.510   0.101  10.252 -1.2355  2.8498  1.3926
  144SAPE   C3415827   3.406   0.093  10.054 -0.2862 -0.1682 -0.5264
  144SAPE   H4X15828   3.298   0.080  10.033 -0.9678  1.5024  1.6368
  144SAPE   H4Y15829   3.464   0.003  10.024 -0.2039 -0.1063 -0.5531
  144SAPE   C3515830   3.460   0.215   9.975  0.2743 -0.1781 -0.5140
  144SAPE   H5X15831   3.566   0.227  10.005  0.9344  0.3265 -2.8067
  144SAPE   H5Y15832   3.405   0.304  10.012  0.0676 -1.3978  2.3394
  144SAPE   C3615833   3.475   0.196   9.829 -0.7747  0.1815  0.8217
  144SAPE   H6X15834   3.504   0.091   9.807 -0.3468 -0.0075  2.2174
  144SAPE   H6Y15835   3.551   0.268   9.792 -0.4862  0.3561  1.7258
  144SAPE   C3715836   3.346   0.230   9.752 -0.2757 -0.4031 -0.9432
  144SAPE   H7X15837   3.314   0.334   9.779 -1.5405  0.0110 -3.6764
  144SAPE   H7Y15838   3.266   0.158   9.780  2.8052 -2.7318  2.8921
  144SAPE   C3815839   3.358   0.221   9.603 -0.1838  0.2042 -0.3876
  144SAPE   H8X15840   3.255   0.223   9.562 -0.2817  2.0045 -0.1153
  144SAPE   H8Y15841   3.384   0.116   9.575 -0.2274 -0.0171  0.3694
  144SAPE   C3915842   3.444   0.322   9.531  0.5252  0.1653  0.5773
  144SAPE   H9X15843   3.545   0.306   9.575  0.9538  1.8474  0.2589
  144SAPE   H9Y15844   3.404   0.425   9.537  1.3757  0.5202  0.3108
  144SAPE  C31015845   3.451   0.302   9.378  0.5585  0.6692  0.5621
  144SAPE  H10X15846   3.458   0.395   9.319  2.4178  0.9730  1.1877
  144SAPE  H10Y15847   3.354   0.263   9.340  1.3737  1.8078 -3.0467
  144SAPE  C31115848   3.553   0.198   9.325 -0.1559  0.4561  0.0187
  144SAPE  H11X15849   3.559   0.107   9.388 -0.0965  0.6244  0.2579
  144SAPE  H11Y15850   3.651   0.250   9.331  0.2408 -0.1548 -0.8731
  144SAPE  C31215851   3.538   0.170   9.179  1.0825 -0.1074 -0.3733
  144SAPE  H12X15852   3.534   0.272   9.135 -0.0998  0.2270  0.4599
  144SAPE  H12Y15853   3.438   0.131   9.152  1.4787 -0.8241 -0.8287
  144SAPE  C31315854   3.657   0.093   9.123 -0.4035 -0.0176  0.1456
  144SAPE  H13X15855   3.673  -0.000   9.181  1.0987  0.7172  0.9616
  144SAPE  H13Y15856   3.747   0.154   9.143 -0.5465  0.6518 -1.1409
  144SAPE  C31415857   3.643   0.063   8.975 -0.4652  0.6807 -0.3769
  144SAPE  H14X15858   3.740   0.023   8.939 -0.8374  0.1337 -0.7801
  144SAPE  H14Y15859   3.629   0.164   8.931 -0.4024  0.7878 -0.1537
  144SAPE  C31515860   3.530  -0.024   8.933  0.2744 -0.2543 -0.6010
  144SAPE  H15X15861   3.477  -0.074   9.017 -0.0670  1.5241  0.2984
  144SAPE  H15Y15862   3.557  -0.104   8.860 -0.5498 -1.4077  0.3088
  144SAPE  C31615863   3.414   0.055   8.874  0.1049  0.5717  0.1876
  144SAPE  H16X15864   3.463   0.139   8.820  1.1999  0.7362  1.3908
  144SAPE  H16Y15865   3.342   0.089   8.951 -1.4213 -0.7427 -0.6099
  144SAPE  C31715866   3.322  -0.022   8.779 -0.4704 -0.0104  0.1266
  144SAPE  H17X15867   3.252  -0.089   8.833 -0.4812 -1.4747 -1.6058
  144SAPE  H17Y15868   3.386  -0.082   8.711  1.7218  1.0284  1.1581
  144SAPE  C31815869   3.240   0.076   8.700  0.0061  0.1574 -1.3036
  144SAPE  H18X15870   3.301   0.152   8.648 -0.0071  1.0910 -0.0008
  144SAPE  H18Y15871   3.180   0.127   8.779  0.6383 -0.9913 -0.0294
  144SAPE  H18Z15872   3.176   0.022   8.627  0.0961  0.1400 -1.3693
  145SAPE     N15873   6.288   0.535  11.276  0.2351  0.3318 -0.1271
  145SAPE   HN115874   6.323   0.632  11.265 -0.8790  0.9732  1.5550
  145SAPE   HN215875   6.351   0.470  11.225 -0.3956 -1.7730  1.6194
  145SAPE   HN315876   6.191   0.520  11.243 -0.7124 -1.0554  2.8701
  145SAPE   C1215877   6.294   0.523  11.430 -0.1177  0.1797  0.0840
  145SAPE  H12A15878   6.238   0.430  11.457  0.9196 -0.8559 -1.1858
  145SAPE  H12B15879   6.244   0.610  11.478 -1.1475  0.3805 -1.2735
  145SAPE   C1115880   6.440   0.515  11.475 -0.1947  0.1095 -0.5294
  145SAPE  H11A15881   6.437   0.520  11.586 -0.6222  1.3686 -0.5874
  145SAPE  H11B15882   6.501   0.603  11.446  2.7370 -1.7768 -0.6010
  145SAPE     P15883   6.609   0.388  11.314  0.5101  0.5019  0.1058
  145SAPE   O1315884   6.732   0.459  11.361 -0.2718 -0.1774  0.0423
  145SAPE   O1415885   6.632   0.245  11.276 -0.4620  0.1625 -0.5660
  145SAPE   O1215886   6.503   0.387  11.433 -0.0270 -0.0986  0.4353
  145SAPE   O1115887   6.541   0.465  11.192 -0.4732  0.8500  0.4503
  145SAPE    C115888   6.631   0.499  11.086 -0.0583  0.5451  0.2840
  145SAPE    HA15889   6.695   0.582  11.124  1.3487 -0.6216  0.5304
  145SAPE    HB15890   6.693   0.418  11.045 -1.4282  0.4410 -1.7216
  145SAPE    C215891   6.549   0.551  10.962  0.0682  0.8380 -0.2318
  145SAPE    HS15892   6.482   0.632  10.997 -0.2403  0.7213 -0.5410
  145SAPE   O2115893   6.484   0.438  10.892 -0.0855  0.3521  0.3369
  145SAPE   C2115894   6.349   0.431  10.918  0.1745  0.1563 -0.4934
  145SAPE   O2215895   6.293   0.507  10.995  0.0272 -0.3312  0.8784
  145SAPE   C2215896   6.283   0.301  10.855  0.4474 -0.2680  0.5738
  145SAPE   H2R15897   6.329   0.216  10.909  0.3665  0.2967  1.5452
  145SAPE   H2S15898   6.173   0.296  10.871  0.1036  3.6672  0.3606
  145SAPE    C315899   6.649   0.627  10.875  0.1378 -0.2337 -0.3368
  145SAPE    HX15900   6.740   0.563  10.871  0.4290  0.2106 -1.0767
  145SAPE    HY15901   6.682   0.720  10.926  1.4990 -0.8445 -0.0665
  145SAPE   O3115902   6.596   0.665  10.750  0.1233  0.2583  0.2557
  145SAPE   C3115903   6.610   0.574  10.652 -1.4881 -1.0871 -0.2315
  145SAPE   O3215904   6.676   0.472  10.664 -0.0792 -0.6245  0.0446
  145SAPE   C3215905   6.533   0.618  10.526 -0.3289 -0.2765  0.0281
  145SAPE   H2X15906   6.559   0.726  10.529  0.2735 -0.4244  0.8202
  145SAPE   H2Y15907   6.427   0.607  10.557 -0.2632  1.8786  1.2528
  145SAPE   C2315908   6.321   0.287  10.701 -0.1050  0.6253  0.7367
  145SAPE   H3R15909   6.431   0.286  10.683 -0.3812  0.9460 -1.0990
  145SAPE   H3S15910   6.295   0.384  10.655  2.1064  1.0425  0.2354
  145SAPE   C2415911   6.267   0.157  10.640  0.0705  0.4967  0.1123
  145SAPE   H4R15912   6.234   0.178  10.536  1.1267  1.0748 -0.1233
  145SAPE   H4S15913   6.175   0.128  10.695  0.3288  1.5987  1.1504
  145SAPE   C2515914   6.363   0.041  10.639  0.3043  0.6976 -0.2228
  145SAPE   H5R15915   6.368  -0.009  10.736 -2.2479  0.6124 -0.0703
  145SAPE   C2615916   6.424  -0.004  10.529 -0.2244  0.6413  0.5598
  145SAPE   H6R15917   6.482  -0.097  10.529 -2.1740 -0.7348 -2.5991
  145SAPE   C2715918   6.419   0.046  10.390 -0.5071 -0.2748  0.1431
  145SAPE   H7R15919   6.430   0.157  10.383  0.8938 -0.4415 -0.8937
  145SAPE   H7S15920   6.318   0.032  10.345 -1.3422  1.8224  1.2169
  145SAPE   C2815921   6.521  -0.014  10.300  0.8988  0.0241  0.1395
  145SAPE   H8R15922   6.501  -0.113  10.256  0.0483  0.6679 -0.9725
  145SAPE   C2915923   6.638   0.041  10.259  0.3556  0.2238 -0.3133
  145SAPE   H9R15924   6.707  -0.018  10.197  3.1941  0.5031  2.3246
  145SAPE  C21015925   6.689   0.180  10.288 -0.3791  0.9578  0.0316
  145SAPE  H10R15926   6.682   0.199  10.397 -1.2752  1.8755 -0.1746
  145SAPE  H10S15927   6.614   0.250  10.248  0.2431  2.5186  1.4892
  145SAPE  C21115928   6.827   0.208  10.243  0.3565 -0.0431  0.5295
  145SAPE  H11R15929   6.906   0.226  10.318 -0.5858  0.1678  1.4932
  145SAPE  C21215930   6.869   0.221  10.113 -0.1512 -0.3010 -0.1269
  145SAPE  H12R15931   6.977   0.239  10.100  0.3957 -2.0561  1.4203
  145SAPE  C21315932   6.782   0.208   9.991  0.5173  0.1840  0.8947
  145SAPE  H13R15933   6.674   0.193  10.007  0.2847  0.7484 -0.0507
  145SAPE  H13S15934   6.809   0.120   9.929  0.0451  0.7835 -0.1937
  145SAPE  C21415935   6.806   0.315   9.885 -0.0127 -0.2731  0.2306
  145SAPE  H14R15936   6.889   0.380   9.917 -0.0935  0.6660 -1.3499
  145SAPE  C21515937   6.744   0.349   9.767 -0.4642  0.3442 -0.5786
  145SAPE  H15R15938   6.780   0.439   9.714 -0.4484  1.1085  0.6710
  145SAPE  C21615939   6.616   0.284   9.712  0.3350 -0.4668  0.1259
  145SAPE  H16R15940   6.534   0.358   9.722 -1.1053 -1.6327 -2.2413
  145SAPE  H16S15941   6.591   0.191   9.767  1.8544  0.1845  2.0481
  145SAPE  C21715942   6.629   0.259   9.560 -0.1178 -0.0424 -0.3567
  145SAPE  H17R15943   6.566   0.175   9.524 -2.3795  2.1605 -1.8941
  145SAPE  H17S15944   6.733   0.227   9.540 -0.6752 -1.5989 -0.9069
  145SAPE  C21815945   6.584   0.384   9.484 -0.5820 -0.1745 -0.3649
  145SAPE  H18R15946   6.598   0.480   9.539  1.8447  0.1093 -1.3119
  145SAPE  H18S15947   6.474   0.392   9.473 -0.3764 -0.1826 -2.9060
  145SAPE  C21915948   6.652   0.395   9.341 -0.5875 -0.1630 -0.3553
  145SAPE  H19R15949   6.622   0.298   9.295 -0.0611  0.2409 -1.5924
  145SAPE  H19S15950   6.761   0.396   9.361 -0.8107 -1.5352  1.1483
  145SAPE  C22015951   6.608   0.514   9.260 -0.5795 -0.5907  0.6883
  145SAPE  H20R15952   6.644   0.501   9.156  0.2009  2.4677  0.4727
  145SAPE  H20S15953   6.648   0.611   9.297 -2.2519 -0.5808  2.6990
  145SAPE  H20T15954   6.497   0.520   9.255 -0.6076 -1.6262 -0.0439
  145SAPE   C3315955   6.581   0.534  10.403 -0.1749 -0.1252 -0.2415
  145SAPE   H3X15956   6.541   0.431  10.408  1.1203 -0.5962  1.7428
  145SAPE   H3Y15957   6.691   0.520  10.415 -0.5956 -3.4326  0.7020
  145SAPE   C3415958   6.547   0.603  10.265  0.1012 -0.2509 -1.1357
  145SAPE   H4X15959   6.550   0.710  10.293 -2.1976 -0.3921 -0.1715
  145SAPE   H4Y15960   6.440   0.580  10.248  0.0320  0.0730 -1.1390
  145SAPE   C3515961   6.643   0.566  10.159 -1.0134  0.0803 -0.5406
  145SAPE   H5X15962   6.615   0.468  10.116 -2.0926  0.7897 -1.5267
  145SAPE   H5Y15963   6.748   0.547  10.187 -0.9206 -0.8856 -1.5231
  145SAPE   C3615964   6.642   0.671  10.044 -0.1116  0.3226 -0.4022
  145SAPE   H6X15965   6.713   0.634   9.967 -3.1928 -0.4715 -3.1115
  145SAPE   H6Y15966   6.681   0.770  10.077 -0.5465  0.4705 -0.3169
  145SAPE   C3715967   6.502   0.681   9.977 -0.6463  0.5394  0.4583
  145SAPE   H7X15968   6.433   0.742  10.039 -1.4327 -1.9503  2.2086
  145SAPE   H7Y15969   6.459   0.578   9.981  2.4016 -0.9265 -0.9085
  145SAPE   C3815970   6.504   0.726   9.834 -0.0827 -0.6208 -0.4891
  145SAPE   H8X15971   6.572   0.665   9.769  1.4102 -1.1211  1.4473
  145SAPE   H8Y15972   6.536   0.832   9.823  1.4469 -1.0579 -0.5668
  145SAPE   C3915973   6.362   0.733   9.781 -0.8964  0.3656 -0.0174
  145SAPE   H9X15974   6.293   0.778   9.855  0.7835  0.9806  1.2436
  145SAPE   H9Y15975   6.320   0.632   9.762  0.4624 -0.3818  0.7426
  145SAPE  C31015976   6.344   0.814   9.655 -0.0539 -0.2735 -0.0827
  145SAPE  H10X15977   6.423   0.784   9.583 -0.2724  1.3098 -1.0540
  145SAPE  H10Y15978   6.371   0.921   9.669 -0.0167  0.0021 -1.9575
  145SAPE  C31115979   6.201   0.806   9.601 -0.1305  0.8097  0.0385
  145SAPE  H11X15980   6.135   0.864   9.668 -0.8956  1.0722 -0.9092
  145SAPE  H11Y15981   6.171   0.698   9.599 -0.6834  0.9208  1.2560
  145SAPE  C31215982   6.174   0.874   9.467 -0.3160 -1.1296  0.2225
  145SAPE  H12X15983   6.224   0.973   9.468  0.4850 -1.5247  0.2456
  145SAPE  H12Y15984   6.066   0.885   9.443  0.0187  2.0382 -0.3399
  145SAPE  C31315985   6.229   0.789   9.344 -0.1726 -0.2316 -0.4636
  145SAPE  H13X15986   6.193   0.684   9.345  0.0320 -0.3035 -0.4888
  145SAPE  H13Y15987   6.339   0.774   9.354 -0.2093  0.0993  0.4808
  145SAPE  C31415988   6.208   0.859   9.209  0.3637 -1.1036  0.6720
  145SAPE  H14X15989   6.235   0.967   9.215 -2.2219 -0.3249 -0.1319
  145SAPE  H14Y15990   6.100   0.845   9.188 -0.4561  2.4177  1.9180
  145SAPE  C31515991   6.283   0.787   9.091 -0.5173  0.0586  0.4919
  145SAPE  H15X15992   6.271   0.677   9.101  4.8559 -1.0821 -2.0586
  145SAPE  H15Y15993   6.391   0.811   9.096 -1.1610  3.5544  0.0573
  145SAPE  C31615994   6.241   0.838   8.953  0.6980 -0.5363 -0.2396
  145SAPE  H16X15995   6.134   0.813   8.937  0.0593  1.0890  1.1115
  145SAPE  H16Y15996   6.296   0.789   8.870 -0.3375  1.5259 -2.2739
  145SAPE  C31715997   6.262   0.986   8.933  0.7276 -0.7047  0.6185
  145SAPE  H17X15998   6.370   1.010   8.940  1.1852 -3.0213  2.5340
  145SAPE  H17Y15999   6.216   1.035   9.021  0.8642  3.5436 -1.4192
  145SAPE  C31816000   6.213   1.041   8.798 -0.8679 -0.8064 -0.1621
  145SAPE  H18X16001   6.112   1.014   8.760 -1.3990  0.1349  0.5288
  145SAPE  H18Y16002   6.288   1.007   8.723  2.1148  1.1347  1.7094
  145SAPE  H18Z16003   6.223   1.151   8.786 -1.4199 -0.6556  0.6521
  146SAPE     N16004   2.939   1.140  11.281 -0.2015  0.4758  0.4395
  146SAPE   HN116005   2.846   1.160  11.239 -0.4473 -1.4653 -0.0542
  146SAPE   HN216006   2.973   1.045  11.255  0.9748  1.3372 -1.3435
  146SAPE   HN316007   2.923   1.155  11.383 -1.4570 -0.4600  0.4145
  146SAPE   C1216008   3.032   1.245  11.233 -0.7020  0.3453  0.0327
  146SAPE  H12A16009   3.136   1.219  11.261 -1.1038 -2.5248 -0.8739
  146SAPE  H12B16010   2.997   1.335  11.289 -1.1780 -0.3316  0.8518
  146SAPE   C1116011   3.012   1.275  11.087  0.3385  0.2664 -0.4458
  146SAPE  H11A16012   3.081   1.350  11.042 -0.8018  1.1622 -0.7295
  146SAPE  H11B16013   2.907   1.308  11.072  0.6148  2.0075  1.0323
  146SAPE     P16014   3.153   1.113  10.937  0.0127  0.3325 -0.1629
  146SAPE   O1316015   3.263   1.106  11.031 -0.6311 -0.2021 -0.2571
  146SAPE   O1416016   3.129   0.991  10.858 -0.0440 -0.0438  0.0309
  146SAPE   O1216017   3.023   1.153  11.014 -0.5696 -0.3907 -0.6207
  146SAPE   O1116018   3.177   1.233  10.838 -0.4456 -0.6085 -0.5079
  146SAPE    C116019   3.107   1.236  10.710 -0.1220  0.0053 -0.0438
  146SAPE    HA16020   3.105   1.134  10.667  0.1386 -0.0473  0.0636
  146SAPE    HB16021   3.012   1.294  10.713  0.4325  0.9544 -0.1702
  146SAPE    C216022   3.188   1.315  10.610 -0.0624 -0.1907  0.3437
  146SAPE    HS16023   3.116   1.334  10.527 -1.5551 -0.9557  1.4199
  146SAPE   O2116024   3.305   1.236  10.562  0.1172 -0.0596 -0.1312
  146SAPE   C2116025   3.280   1.147  10.473 -0.7103  0.1055  0.0542
  146SAPE   O2216026   3.171   1.125  10.422 -0.2214 -0.2570 -0.7387
  146SAPE   C2216027   3.410   1.087  10.424  0.1266 -0.0014 -0.0190
  146SAPE   H2R16028   3.488   1.165  10.425 -0.4559  0.6749 -2.3366
  146SAPE   H2S16029   3.429   1.002  10.493 -0.1377 -0.4296 -0.4674
  146SAPE    C316030   3.234   1.453  10.670 -0.2573  0.6783 -0.2416
  146SAPE    HX16031   3.299   1.431  10.757  0.8493 -0.8887 -1.4124
  146SAPE    HY16032   3.149   1.516  10.704  1.3013  2.0939  1.1352
  146SAPE   O3116033   3.293   1.530  10.564 -0.1287 -0.3750  0.8016
  146SAPE   C3116034   3.422   1.522  10.550  0.2483 -0.5201  0.3618
  146SAPE   O3216035   3.494   1.467  10.629 -0.1764  0.0394  0.1244
  146SAPE   C3216036   3.462   1.578  10.419  0.1667  0.1226  0.1237
  146SAPE   H2X16037   3.471   1.689  10.418 -0.1346  0.1518 -0.6069
  146SAPE   H2Y16038   3.386   1.543  10.346  1.0416 -2.7403  0.4685
  146SAPE   C2316039   3.400   1.016  10.282  0.1345 -0.0627 -0.3388
  146SAPE   H3R16040   3.296   0.979  10.267  0.7336 -2.0206  0.0224
  146SAPE   H3S16041   3.448   0.916  10.289 -1.6538 -1.0377 -1.1499
  146SAPE   C2416042   3.439   1.123  10.177 -0.3775  0.4189  1.0005
  146SAPE   H4R16043   3.540   1.166  10.193 -0.3051  0.0911  1.4560
  146SAPE   H4S16044   3.366   1.205  10.188  0.7083  1.5860 -0.2398
  146SAPE   C2516045   3.429   1.050  10.041  0.7011 -0.4468  0.3228
  146SAPE   H5R16046   3.354   0.972  10.022  0.7938  0.1580 -3.3409
  146SAPE   C2616047   3.506   1.066   9.934 -0.4930  0.4753 -0.1087
  146SAPE   H6R16048   3.494   0.997   9.849 -0.9588  1.5500 -0.9387
  146SAPE   C2716049   3.618   1.163   9.924  0.1559  0.1463 -0.0974
  146SAPE   H7R16050   3.715   1.115   9.945 -0.2816 -2.0469 -2.6070
  146SAPE   H7S16051   3.616   1.233  10.010 -0.2823 -2.7103  2.3782
  146SAPE   C2816052   3.637   1.245   9.795 -0.5694 -0.0568  0.2320
  146SAPE   H8R16053   3.610   1.351   9.799  0.3468  0.1541  1.7917
  146SAPE   C2916054   3.708   1.203   9.687 -0.0567  0.0204 -0.7152
  146SAPE   H9R16055   3.693   1.263   9.595  0.1530  2.0521  0.5066
  146SAPE  C21016056   3.776   1.074   9.657  0.2847  0.5511 -0.3928
  146SAPE  H10R16057   3.761   0.997   9.736  1.3682 -0.3139 -0.9895
  146SAPE  H10S16058   3.885   1.092   9.647  0.7938 -2.0970 -0.5038
  146SAPE  C21116059   3.739   1.008   9.526  0.0845  0.3856  0.3335
  146SAPE  H11R16060   3.672   0.921   9.531 -0.6546  0.8602 -0.7656
  146SAPE  C21216061   3.781   1.056   9.404  0.1046 -0.6465 -0.1457
  146SAPE  H12R16062   3.754   0.994   9.317 -0.9738 -1.2579  0.5969
  146SAPE  C21316063   3.854   1.183   9.370  0.1536  0.0265  0.0417
  146SAPE  H13R16064   3.961   1.172   9.343  0.3230  2.1914 -0.3600
  146SAPE  H13S16065   3.848   1.248   9.460 -1.2390 -0.9938  0.7168
  146SAPE  C21416066   3.784   1.261   9.252 -0.4149  0.6183 -0.2469
  146SAPE  H14R16067   3.701   1.325   9.287  0.1141  2.3564 -1.9714
  146SAPE  C21516068   3.805   1.247   9.120  0.4307 -0.5567 -0.0169
  146SAPE  H15R16069   3.734   1.300   9.054  0.3749 -0.4209  0.1503
  146SAPE  C21616070   3.918   1.171   9.053  0.5844  0.5575 -0.3702
  146SAPE  H16R16071   3.997   1.133   9.123  0.1400 -1.0866 -0.7099
  146SAPE  H16S16072   3.975   1.231   8.979 -0.2227  0.4013 -1.1329
  146SAPE  C21716073   3.864   1.051   8.972  0.4419 -0.7292  0.0184
  146SAPE  H17R16074   3.780   1.074   8.902  0.0801 -3.3040 -0.4922
  146SAPE  H17S16075   3.827   0.966   9.032 -0.6540 -0.5574 -0.3826
  146SAPE  C21816076   3.971   0.993   8.883 -0.0238  0.3554  0.7538
  146SAPE  H18R16077   3.948   0.894   8.838 -1.1119  1.6506 -1.7574
  146SAPE  H18S16078   4.057   0.977   8.951 -0.1328  1.6561  1.2170
  146SAPE  C21916079   4.015   1.081   8.768  0.6987  0.2873 -0.5480
  146SAPE  H19R16080   4.056   1.178   8.802  0.3398 -0.1741  1.3104
  146SAPE  H19S16081   3.929   1.115   8.707 -1.2810  0.0492  1.9357
  146SAPE  C22016082   4.108   1.006   8.676 -1.0222 -0.4165 -0.1004
  146SAPE  H20R16083   4.205   0.977   8.722 -1.5773 -0.6605  0.9570
  146SAPE  H20S16084   4.141   1.069   8.591  0.7411 -1.2027 -0.0482
  146SAPE  H20T16085   4.069   0.910   8.637  0.8447 -0.8345 -1.0697
  146SAPE   C3316086   3.592   1.521  10.365 -0.1090  0.5905 -0.4852
  146SAPE   H3X16087   3.581   1.412  10.350  1.7485  0.4321 -0.9006
  146SAPE   H3Y16088   3.674   1.531  10.439 -0.2133 -0.8368 -0.1534
  146SAPE   C3416089   3.622   1.573  10.227  0.6161  0.0017  0.6363
  146SAPE   H4X16090   3.644   1.682  10.236  0.7422  0.1652 -1.2589
  146SAPE   H4Y16091   3.533   1.566  10.160  0.0935  1.1092  1.1844
  146SAPE   C3516092   3.757   1.519  10.174  0.9965  0.4562  0.5399
  146SAPE   H5X16093   3.761   1.409  10.182 -1.0701  0.2338 -0.7049
  146SAPE   H5Y16094   3.841   1.563  10.232  1.2405 -1.0371  1.3593
  146SAPE   C3616095   3.770   1.552  10.024  0.8386 -0.0711  0.1672
  146SAPE   H6X16096   3.778   1.661  10.009  0.2281 -0.1378 -0.7382
  146SAPE   H6Y16097   3.682   1.518   9.964  1.6557 -0.8669 -0.6272
  146SAPE   C3716098   3.881   1.477   9.961 -0.0254 -0.1515  0.4398
  146SAPE   H7X16099   3.857   1.369   9.959  4.3626 -1.3015  0.4162
  146SAPE   H7Y16100   3.979   1.489  10.012  0.7820 -0.1215 -1.0854
  146SAPE   C3816101   3.903   1.525   9.818 -0.1172 -0.8546 -0.1345
  146SAPE   H8X16102   3.913   1.636   9.814 -2.3030 -0.6351 -1.6121
  146SAPE   H8Y16103   3.808   1.501   9.765  0.1752  1.6282 -1.9404
  146SAPE   C3916104   4.015   1.468   9.744 -0.3627  0.1039 -0.6648
  146SAPE   H9X16105   4.013   1.358   9.760  0.9971  0.2002  0.3023
  146SAPE   H9Y16106   4.113   1.490   9.791 -0.4650  2.5543 -1.4842
  146SAPE  C31016107   4.010   1.512   9.602 -0.0195 -0.1729 -0.0445
  146SAPE  H10X16108   4.004   1.623   9.600  0.1779 -0.1231  1.3355
  146SAPE  H10Y16109   3.915   1.479   9.554 -0.5501  1.2086 -0.0207
  146SAPE  C31116110   4.126   1.463   9.517 -0.6101  0.1821 -0.2141
  146SAPE  H11X16111   4.137   1.353   9.529 -2.0237  0.0421 -0.0185
  146SAPE  H11Y16112   4.220   1.504   9.559  0.1920 -2.4497  0.7672
  146SAPE  C31216113   4.095   1.491   9.371 -0.4797 -0.2678  0.1299
  146SAPE  H12X16114   4.072   1.599   9.365  0.7924  0.0222  0.2523
  146SAPE  H12Y16115   4.007   1.433   9.336 -2.4680  2.5924  0.0545
  146SAPE  C31316116   4.212   1.453   9.275 -0.5956 -0.4248  0.4144
  146SAPE  H13X16117   4.253   1.352   9.297  1.8498  0.4615  0.1301
  146SAPE  H13Y16118   4.291   1.526   9.301 -0.1890 -1.0779  1.0749
  146SAPE  C31416119   4.186   1.474   9.123 -0.0464  0.6975 -0.2924
  146SAPE  H14X16120   4.138   1.574   9.116  0.2918  0.7872 -1.5768
  146SAPE  H14Y16121   4.106   1.410   9.081 -1.0543  2.5882 -1.3944
  146SAPE  C31516122   4.310   1.442   9.034  0.0622  0.2515 -0.6795
  146SAPE  H15X16123   4.352   1.340   9.048  1.3726  0.6579 -1.4816
  146SAPE  H15Y16124   4.393   1.513   9.053 -1.4857  2.2591 -1.0566
  146SAPE  C31616125   4.269   1.456   8.891  0.6147  0.9329 -0.1306
  146SAPE  H16X16126   4.239   1.560   8.867  0.7134  0.4012 -2.8633
  146SAPE  H16Y16127   4.188   1.393   8.847  2.1085  1.0377 -3.2913
  146SAPE  C31716128   4.390   1.440   8.803  0.0219  0.1993 -0.1985
  146SAPE  H17X16129   4.430   1.336   8.808 -2.2311 -0.6867  1.4926
  146SAPE  H17Y16130   4.478   1.502   8.829  0.9543 -1.6165  1.2382
  146SAPE  C31816131   4.364   1.479   8.654  0.5258  0.4884 -0.4316
  146SAPE  H18X16132   4.356   1.590   8.649 -1.1270  0.3571 -1.3286
  146SAPE  H18Y16133   4.275   1.434   8.604  0.3771  0.7532 -0.4057
  146SAPE  H18Z16134   4.451   1.446   8.594  2.1346  0.7857  1.5915
  147SAPE     N16135   5.287   0.558   6.552 -0.1090  0.3438 -0.3543
  147SAPE   HN116136   5.331   0.505   6.630 -0.9951  0.7281  0.4220
  147SAPE   HN216137   5.222   0.622   6.603 -0.6730 -2.2321  2.4392
  147SAPE   HN316138   5.229   0.488   6.502  0.9481 -1.6509  1.0769
  147SAPE   C1216139   5.382   0.643   6.471  0.3855  0.0093  0.4024
  147SAPE  H12A16140   5.441   0.709   6.539  1.3372 -0.3643 -0.0474
  147SAPE  H12B16141   5.327   0.713   6.405 -1.3159 -2.4936 -1.0080
  147SAPE   C1116142   5.474   0.567   6.383  0.0598  1.0070  0.3687
  147SAPE  H11A16143   5.553   0.627   6.333  0.8628 -1.6153 -1.7392
  147SAPE  H11B16144   5.415   0.519   6.301 -0.2536 -1.0237  1.7208
  147SAPE     P16145   5.628   0.363   6.389 -0.3735  0.3307 -0.2603
  147SAPE   O1316146   5.625   0.241   6.468  0.0034 -0.2139  0.1874
  147SAPE   O1416147   5.591   0.345   6.246  0.6696 -0.4038  0.1951
  147SAPE   O1216148   5.535   0.464   6.467  0.1130 -0.0978  0.1806
  147SAPE   O1116149   5.777   0.424   6.392  0.1282 -0.4376  0.3439
  147SAPE    C116150   5.812   0.530   6.476  2.2862  1.0414  0.2565
  147SAPE    HA16151   5.876   0.598   6.416  0.5500  1.6602 -0.9644
  147SAPE    HB16152   5.724   0.587   6.513  0.8592 -1.3519  0.7479
  147SAPE    C216153   5.884   0.482   6.601  0.4393 -0.2863 -0.8391
  147SAPE    HS16154   5.974   0.426   6.567  0.4762  0.3705 -1.8724
  147SAPE   O2116155   5.794   0.396   6.673  0.1779 -0.1082  0.2687
  147SAPE   C2116156   5.839   0.286   6.731  0.1625 -0.3395 -0.5267
  147SAPE   O2216157   5.957   0.251   6.737  0.2468  0.0143 -0.5350
  147SAPE   C2216158   5.724   0.214   6.805 -0.2699  0.1023 -0.5605
  147SAPE   H2R16159   5.659   0.278   6.868 -1.7403 -3.1411  1.5041
  147SAPE   H2S16160   5.672   0.164   6.720 -0.0069 -0.9251 -0.1330
  147SAPE    C316161   5.942   0.595   6.693  0.4928  0.1029  0.5217
  147SAPE    HX16162   5.849   0.641   6.733 -1.0724 -1.9904 -0.5688
  147SAPE    HY16163   6.001   0.660   6.624 -0.2984  1.0289  0.6879
  147SAPE   O3116164   6.033   0.545   6.793  0.1865 -0.3614 -0.1347
  147SAPE   C3116165   5.981   0.520   6.913 -0.0007  0.2183  0.4415
  147SAPE   O3216166   5.860   0.536   6.935  0.4208  0.0180  0.1976
  147SAPE   C3216167   6.085   0.478   7.021  0.6171 -0.0346 -0.0284
  147SAPE   H2X16168   6.171   0.548   7.016  0.3038  0.2715 -3.5434
  147SAPE   H2Y16169   6.115   0.372   7.004  3.0063  0.4297  1.0151
  147SAPE   C2316170   5.776   0.097   6.895 -0.6831 -0.3903 -0.5001
  147SAPE   H3R16171   5.840   0.038   6.826  0.8020  2.0649 -1.3583
  147SAPE   H3S16172   5.688   0.045   6.938 -0.6609 -0.6449 -0.7537
  147SAPE   C2416173   5.864   0.158   7.017 -0.3206  0.4667 -0.3661
  147SAPE   H4R16174   5.785   0.203   7.081  1.8966  2.4156  1.1784
  147SAPE   H4S16175   5.931   0.243   6.992 -0.7205  0.8411 -0.1745
  147SAPE   C2516176   5.931   0.038   7.080 -0.1189 -0.1086  0.2287
  147SAPE   H5R16177   6.003  -0.005   7.009 -0.4269  1.0088 -0.7949
  147SAPE   C2616178   5.920  -0.004   7.215 -0.1919 -0.3458 -0.0011
  147SAPE   H6R16179   5.993  -0.079   7.250 -1.0323 -1.0157  0.3522
  147SAPE   C2716180   5.840   0.057   7.324 -0.2181  0.0415 -0.3289
  147SAPE   H7R16181   5.808   0.158   7.291 -2.6725 -0.4958  0.1652
  147SAPE   H7S16182   5.905   0.055   7.414  0.8617 -2.2229 -1.0824
  147SAPE   C2816183   5.717  -0.024   7.344 -0.1908  1.0410  0.5289
  147SAPE   H8R16184   5.648  -0.034   7.259  1.6045  1.2930 -1.0022
  147SAPE   C2916185   5.674  -0.083   7.457  0.6031 -0.1062 -0.3024
  147SAPE   H9R16186   5.579  -0.139   7.455 -0.8474  2.1821 -0.0951
  147SAPE  C21016187   5.745  -0.085   7.591 -0.4087 -0.5011 -0.0331
  147SAPE  H10R16188   5.827  -0.009   7.588  0.5292 -1.4711  0.3306
  147SAPE  H10S16189   5.780  -0.190   7.593  1.4164  0.0145  3.0859
  147SAPE  C21116190   5.652  -0.055   7.708 -0.5263 -0.3226  1.0425
  147SAPE  H11R16191   5.592  -0.134   7.755 -0.5232  0.3010  2.1365
  147SAPE  C21216192   5.610   0.065   7.735  0.8666  0.2777 -0.4510
  147SAPE  H12R16193   5.551   0.070   7.828  0.2467 -0.1594 -0.8129
  147SAPE  C21316194   5.647   0.200   7.674 -1.0278 -0.2602  0.0216
  147SAPE  H13R16195   5.572   0.233   7.599 -2.6045 -1.6110  0.9248
  147SAPE  H13S16196   5.750   0.197   7.632 -0.8676 -0.5328  0.4355
  147SAPE  C21416197   5.661   0.306   7.782 -0.0443  0.5509 -0.0230
  147SAPE  H14R16198   5.590   0.390   7.784 -1.3214 -0.4088 -1.9775
  147SAPE  C21516199   5.756   0.311   7.872 -0.9371 -0.1111 -0.1256
  147SAPE  H15R16200   5.755   0.392   7.947  1.0865 -0.4850  0.3644
  147SAPE  C21616201   5.879   0.229   7.894  0.4754  0.0419 -0.5494
  147SAPE  H16R16202   5.966   0.296   7.880  1.7239 -1.0047  1.5687
  147SAPE  H16S16203   5.880   0.144   7.822 -2.8360  0.8642 -1.7574
  147SAPE  C21716204   5.889   0.159   8.038  0.3172  0.4982  0.4448
  147SAPE  H17R16205   5.970   0.083   8.031  3.4563  3.7526 -2.3462
  147SAPE  H17S16206   5.794   0.113   8.074 -0.4344  1.1383 -0.6614
  147SAPE  C21816207   5.925   0.260   8.145 -0.4763  0.3043  0.0161
  147SAPE  H18R16208   5.878   0.361   8.149  0.5486  0.7972 -0.0063
  147SAPE  H18S16209   6.034   0.271   8.124 -0.2113 -1.6090  0.2308
  147SAPE  C21916210   5.925   0.203   8.286  0.2039  0.2983  0.2775
  147SAPE  H19R16211   5.819   0.176   8.305  1.0253 -3.0656  0.7681
  147SAPE  H19S16212   5.949   0.286   8.356  0.3384  1.7290 -1.3977
  147SAPE  C22016213   6.011   0.078   8.317 -0.0208 -0.1696  0.0333
  147SAPE  H20R16214   6.016   0.049   8.424  1.1021 -0.3902 -0.0576
  147SAPE  H20S16215   6.113   0.088   8.273 -0.3015  0.6414 -0.4567
  147SAPE  H20T16216   5.971  -0.013   8.268  2.1491  0.0277 -2.3881
  147SAPE   C3316217   6.023   0.470   7.169 -0.1070 -0.7742 -0.1221
  147SAPE   H3X16218   5.923   0.422   7.170  0.3870 -1.8379  0.6751
  147SAPE   H3Y16219   6.014   0.578   7.195  1.6094 -0.6884  0.2688
  147SAPE   C3416220   6.120   0.398   7.265 -0.3138 -0.6173  0.0978
  147SAPE   H4X16221   6.220   0.446   7.262 -0.6102  0.0861  1.0236
  147SAPE   H4Y16222   6.121   0.296   7.222  0.6161 -0.6597  0.2010
  147SAPE   C3516223   6.070   0.383   7.405  1.1476  0.8617  0.9017
  147SAPE   H5X16224   6.129   0.303   7.455  1.0432  0.4401  0.3589
  147SAPE   H5Y16225   5.962   0.355   7.411  1.2951 -0.2259 -0.8460
  147SAPE   C3616226   6.087   0.508   7.496  0.2199  0.2212 -0.2447
  147SAPE   H6X16227   6.050   0.598   7.443  0.4256  0.8025  0.5766
  147SAPE   H6Y16228   6.198   0.507   7.501  0.4107  2.0810 -2.3908
  147SAPE   C3716229   6.014   0.507   7.635 -0.1715 -0.1030  0.0538
  147SAPE   H7X16230   6.008   0.402   7.671 -1.2699  0.6350  2.2093
  147SAPE   H7Y16231   5.909   0.541   7.624  0.7023  2.4436 -1.2259
  147SAPE   C3816232   6.087   0.593   7.745 -0.3218 -0.4869  0.0015
  147SAPE   H8X16233   6.061   0.698   7.721  0.3202 -1.0059 -3.5080
  147SAPE   H8Y16234   6.198   0.591   7.745 -0.2918  0.0396  1.3063
  147SAPE   C3916235   6.030   0.565   7.885 -0.4688  1.0082  0.0172
  147SAPE   H9X16236   6.063   0.468   7.928 -1.6629  0.7044  0.3055
  147SAPE   H9Y16237   5.919   0.563   7.878 -0.4849  0.7855  0.2856
  147SAPE  C31016238   6.066   0.672   7.987 -0.4864 -0.2224  0.1858
  147SAPE  H10X16239   5.999   0.660   8.075 -0.3410  1.1563  0.4996
  147SAPE  H10Y16240   6.052   0.778   7.956 -1.3730 -1.0298 -2.4522
  147SAPE  C31116241   6.207   0.641   8.043 -0.0631 -0.3360 -0.4308
  147SAPE  H11X16242   6.275   0.649   7.956  2.0143 -3.2014  0.7892
  147SAPE  H11Y16243   6.205   0.542   8.092 -0.6967  0.2685  0.8361
  147SAPE  C31216244   6.250   0.739   8.146 -0.2075  0.0315 -0.5136
  147SAPE  H12X16245   6.161   0.765   8.208 -0.2030  0.3396 -0.6376
  147SAPE  H12Y16246   6.267   0.836   8.095 -0.3168  0.1947 -0.2432
  147SAPE  C31316247   6.370   0.710   8.235 -0.6738  0.1054  0.4838
  147SAPE  H13X16248   6.455   0.689   8.166 -1.2746  1.6871 -0.7917
  147SAPE  H13Y16249   6.334   0.619   8.286  0.1125 -0.6310 -0.2416
  147SAPE  C31416250   6.413   0.831   8.321 -0.6999 -0.0562  0.3646
  147SAPE  H14X16251   6.316   0.863   8.365  0.0343 -0.2290  2.1965
  147SAPE  H14Y16252   6.434   0.912   8.249 -0.3078  0.6560  1.2525
  147SAPE  C31516253   6.518   0.799   8.428 -0.6524  0.1461 -0.0746
  147SAPE  H15X16254   6.542   0.882   8.497  0.8110 -1.6587  1.6850
  147SAPE  H15Y16255   6.616   0.784   8.378 -0.3825  1.2114  0.1194
  147SAPE  C31616256   6.477   0.684   8.512  0.3861 -0.6549 -0.2250
  147SAPE  H16X16257   6.497   0.589   8.459 -1.0237 -1.8311  1.2524
  147SAPE  H16Y16258   6.373   0.684   8.551  0.9463  0.1064  1.3538
  147SAPE  C31716259   6.562   0.663   8.641 -0.6275  0.8624 -0.1444
  147SAPE  H17X16260   6.516   0.587   8.708 -0.3247  0.5039 -0.3393
  147SAPE  H17Y16261   6.554   0.758   8.697 -2.4903  0.8054 -0.2674
  147SAPE  C31816262   6.710   0.621   8.625  0.0152  0.1752 -0.7172
  147SAPE  H18X16263   6.712   0.535   8.556 -2.2680 -2.1981  1.9163
  147SAPE  H18Y16264   6.761   0.595   8.720  0.1111 -2.6156 -1.4540
  147SAPE  H18Z16265   6.768   0.707   8.584 -1.5876  1.0268 -1.3171
  148SAPE     N16266   2.051   4.669   6.043 -0.1357  0.0569  0.2823
  148SAPE   HN116267   2.023   4.737   6.117  0.3517  0.2453  0.2973
  148SAPE   HN216268   2.037   4.717   5.952 -2.9620 -0.3181  0.4238
  148SAPE   HN316269   1.985   4.588   6.043  1.2142 -1.0725  0.7541
  148SAPE   C1216270   2.198   4.624   6.061  0.2488 -0.5713  0.7943
  148SAPE  H12A16271   2.236   4.594   5.961  1.3502  1.9825  0.3652
  148SAPE  H12B16272   2.199   4.537   6.131  3.7387 -2.2571 -1.0884
  148SAPE   C1116273   2.284   4.744   6.128  0.2431 -0.1144 -0.4567
  148SAPE  H11A16274   2.241   4.763   6.229 -0.7174  0.9949 -1.0492
  148SAPE  H11B16275   2.261   4.837   6.073 -2.1174 -0.1565  0.3212
  148SAPE     P16276   2.507   4.625   6.223 -0.0434 -0.2523  0.7532
  148SAPE   O1316277   2.553   4.522   6.124  0.0802 -0.1956 -0.4864
  148SAPE   O1416278   2.611   4.703   6.296  0.1180  0.2129 -0.0033
  148SAPE   O1216279   2.423   4.727   6.133 -0.2575 -0.1230 -0.3715
  148SAPE   O1116280   2.386   4.574   6.318 -0.4161  0.3171  0.0563
  148SAPE    C116281   2.426   4.462   6.405 -0.4553 -1.0508 -0.0534
  148SAPE    HA16282   2.428   4.374   6.338  1.3318 -1.6617  0.7180
  148SAPE    HB16283   2.520   4.469   6.464  1.0138 -0.5264 -2.3227
  148SAPE    C216284   2.309   4.434   6.503 -0.6151 -0.6143  0.3196
  148SAPE    HS16285   2.224   4.407   6.438  0.1503  2.1014 -2.0239
  148SAPE   O2116286   2.295   4.557   6.586 -0.3841  0.2186 -0.0520
  148SAPE   C2116287   2.197   4.645   6.548 -0.3292  1.0863 -0.0711
  148SAPE   O2216288   2.123   4.617   6.457 -0.0209  0.4099  0.6301
  148SAPE   C2216289   2.204   4.766   6.635 -0.4530 -0.4862  0.2652
  148SAPE   H2R16290   2.296   4.770   6.698  1.4030 -2.0936 -2.1156
  148SAPE   H2S16291   2.235   4.846   6.564 -2.1995 -1.9070 -2.2463
  148SAPE    C316292   2.353   4.313   6.591 -0.0363 -0.9546 -0.0383
  148SAPE    HX16293   2.448   4.348   6.638 -0.8874  1.1296  0.2583
  148SAPE    HY16294   2.373   4.226   6.525  1.1711 -1.5572  1.0562
  148SAPE   O3116295   2.255   4.285   6.698  0.6418 -0.3330  0.4838
  148SAPE   C3116296   2.293   4.201   6.793  0.0122 -0.6828 -0.8099
  148SAPE   O3216297   2.388   4.122   6.789 -0.6395  0.2122  0.4815
  148SAPE   C3216298   2.190   4.213   6.917  0.4701  0.5196 -0.3704
  148SAPE   H2X16299   2.261   4.210   7.002 -1.0998  0.8849  0.9842
  148SAPE   H2Y16300   2.131   4.119   6.918 -1.4120  1.5978  3.0644
  148SAPE   C2316301   2.074   4.805   6.710 -0.3561 -0.4485  0.1001
  148SAPE   H3R16302   2.007   4.822   6.622  2.0473 -0.0951 -1.7728
  148SAPE   H3S16303   2.088   4.906   6.754 -1.9799  0.4444 -1.2755
  148SAPE   C2416304   2.030   4.705   6.813 -0.1095 -0.0508  0.2013
  148SAPE   H4R16305   2.112   4.687   6.885 -1.5177  0.1262  1.9132
  148SAPE   H4S16306   2.013   4.606   6.764  2.2687 -1.0604  1.2821
  148SAPE   C2516307   1.902   4.736   6.878 -0.4473 -0.5886  0.5865
  148SAPE   H5R16308   1.833   4.773   6.800  0.3987 -2.3237 -1.0748
  148SAPE   C2616309   1.865   4.728   7.004  0.3049  0.8608 -0.8790
  148SAPE   H6R16310   1.764   4.754   7.038  0.9628 -1.4802  3.6250
  148SAPE   C2716311   1.957   4.673   7.111 -0.1520 -0.6777  0.3126
  148SAPE   H7R16312   2.028   4.601   7.063  0.2484 -0.4190  0.5104
  148SAPE   H7S16313   1.902   4.611   7.185 -0.0467  0.9897  1.8471
  148SAPE   C2816314   2.031   4.776   7.186  0.3818 -0.7535 -0.2681
  148SAPE   H8R16315   2.122   4.815   7.139  0.7600 -1.9993 -0.5958
  148SAPE   C2916316   1.992   4.819   7.307  0.0058 -0.1072 -0.1053
  148SAPE   H9R16317   2.057   4.890   7.361  0.1556  0.0856 -0.5340
  148SAPE  C21016318   1.877   4.776   7.394 -0.0831 -0.1920 -0.2153
  148SAPE  H10R16319   1.801   4.730   7.328  0.8581 -1.8315 -0.2092
  148SAPE  H10S16320   1.829   4.861   7.448  1.1579 -0.5530  1.5231
  148SAPE  C21116321   1.923   4.669   7.494  0.2064 -0.2075  0.7067
  148SAPE  H11R16322   1.948   4.578   7.437 -1.0362 -0.7881  1.0520
  148SAPE  C21216323   1.922   4.667   7.626 -0.5284  0.7314 -0.2194
  148SAPE  H12R16324   1.962   4.579   7.677 -1.1716  1.1431  1.0169
  148SAPE  C21316325   1.887   4.775   7.715  0.3438  0.1709  0.0216
  148SAPE  H13R16326   1.777   4.765   7.724  0.3980 -1.5482 -0.6931
  148SAPE  H13S16327   1.902   4.873   7.667  1.3623  0.2573  0.4916
  148SAPE  C21416328   1.943   4.761   7.854  0.4852 -0.3688  0.0983
  148SAPE  H14R16329   1.990   4.667   7.886 -0.1765 -0.3052  1.3023
  148SAPE  C21516330   1.926   4.858   7.948  0.7235 -0.5997  0.2333
  148SAPE  H15R16331   1.968   4.836   8.048 -0.3712  1.5620  1.2274
  148SAPE  C21616332   1.845   4.987   7.928 -0.0678  0.1493  0.6325
  148SAPE  H16R16333   1.794   4.998   7.830  1.2156  0.9899  0.0411
  148SAPE  H16S16334   1.906   5.076   7.955 -1.2760  0.6277  1.9640
  148SAPE  C21716335   1.745   4.998   8.036  0.3784 -1.2929  0.5009
  148SAPE  H17R16336   1.669   4.917   8.043 -0.9322 -0.0326  1.6441
  148SAPE  H17S16337   1.694   5.093   8.013 -0.6179 -2.1729 -1.0443
  148SAPE  C21816338   1.796   5.024   8.183  0.1155 -0.2108  0.6664
  148SAPE  H18R16339   1.879   5.099   8.185  0.8101 -0.6482 -2.9947
  148SAPE  H18S16340   1.835   4.927   8.220  0.9631 -0.7310 -1.4210
  148SAPE  C21916341   1.687   5.074   8.274 -0.0458  0.1906  0.1632
  148SAPE  H19R16342   1.634   4.982   8.307  0.5559  0.7005  2.7770
  148SAPE  H19S16343   1.617   5.125   8.204  1.4723  1.3646 -0.5477
  148SAPE  C22016344   1.735   5.169   8.386  0.3786  0.4973  0.1733
  148SAPE  H20R16345   1.648   5.217   8.436  0.3914 -1.3839  2.1564
  148SAPE  H20S16346   1.792   5.260   8.358  0.5241  0.9586  1.8718
  148SAPE  H20T16347   1.798   5.104   8.451  0.9394 -1.4642 -2.1772
  148SAPE   C3316348   2.098   4.341   6.928  0.1220  0.5278 -1.1230
  148SAPE   H3X16349   2.052   4.368   6.831 -1.1177 -1.1299 -1.0252
  148SAPE   H3Y16350   2.155   4.430   6.963  1.3669 -0.6554 -0.0065
  148SAPE   C3416351   1.992   4.317   7.036  0.8000 -0.3178  0.7130
  148SAPE   H4X16352   1.941   4.219   7.025 -1.3507  0.7195  0.9423
  148SAPE   H4Y16353   1.913   4.391   7.012  0.4594 -1.2549 -1.2321
  148SAPE   C3516354   2.051   4.322   7.179  0.2497 -0.0552  0.1053
  148SAPE   H5X16355   2.098   4.422   7.188  0.0238  0.1103 -0.5125
  148SAPE   H5Y16356   2.124   4.242   7.204  1.3784  0.5635 -1.1321
  148SAPE   C3616357   1.946   4.310   7.294 -0.4530  0.1715 -0.0134
  148SAPE   H6X16358   1.875   4.226   7.279  1.1864 -1.0477 -1.4100
  148SAPE   H6Y16359   1.891   4.406   7.301 -2.3867 -0.9051  0.0289
  148SAPE   C3716360   2.032   4.291   7.419 -0.9974  1.4218 -0.7419
  148SAPE   H7X16361   2.091   4.383   7.438 -1.6947  1.7771 -0.2577
  148SAPE   H7Y16362   2.108   4.211   7.409 -2.1362  0.3489 -1.1456
  148SAPE   C3816363   1.950   4.277   7.543  0.1337  0.0428 -1.0125
  148SAPE   H8X16364   1.910   4.173   7.537  1.9783 -0.6121 -4.1822
  148SAPE   H8Y16365   1.860   4.342   7.548 -0.7318 -1.1219 -0.7888
  148SAPE   C3916366   2.026   4.293   7.673  0.2686 -0.2195  0.3772
  148SAPE   H9X16367   2.064   4.397   7.678 -2.0707  0.6907  0.7217
  148SAPE   H9Y16368   2.104   4.215   7.666 -0.2428 -0.7298  0.2355
  148SAPE  C31016369   1.943   4.287   7.805 -0.5150  0.7394  0.3041
  148SAPE  H10X16370   1.900   4.185   7.815 -2.2376  0.9303 -3.4425
  148SAPE  H10Y16371   1.852   4.350   7.795 -1.0132 -0.1230 -0.8102
  148SAPE  C31116372   2.023   4.327   7.927  0.4405  0.1807  0.2167
  148SAPE  H11X16373   1.961   4.306   8.017  0.5077 -0.2734  0.1604
  148SAPE  H11Y16374   2.049   4.435   7.929 -1.4850  0.6764  2.1282
  148SAPE  C31216375   2.156   4.247   7.949  0.2258 -0.3231  0.1624
  148SAPE  H12X16376   2.227   4.283   7.871 -0.8355  1.0721 -0.1888
  148SAPE  H12Y16377   2.137   4.138   7.954 -0.7012 -0.1558  0.4384
  148SAPE  C31316378   2.215   4.286   8.090  0.1846  0.6528  0.6577
  148SAPE  H13X16379   2.293   4.213   8.120  0.5386 -0.5207 -2.7005
  148SAPE  H13Y16380   2.129   4.293   8.161  0.5510  0.2338  1.1487
  148SAPE  C31416381   2.288   4.417   8.084  0.0706  0.6383 -0.4585
  148SAPE  H14X16382   2.215   4.496   8.057  0.1108  1.7922  2.4230
  148SAPE  H14Y16383   2.379   4.425   8.022 -0.8967 -3.1624 -2.6822
  148SAPE  C31516384   2.330   4.462   8.231  0.1664 -0.7841  0.1641
  148SAPE  H15X16385   2.239   4.459   8.294 -0.0074 -0.5761 -0.0708
  148SAPE  H15Y16386   2.368   4.566   8.219  3.0820 -1.8355 -0.5258
  148SAPE  C31616387   2.445   4.383   8.284  0.4075  0.0322 -0.0769
  148SAPE  H16X16388   2.526   4.373   8.208  0.7259 -0.6954  0.3423
  148SAPE  H16Y16389   2.411   4.280   8.307  0.5368 -0.3109 -1.3659
  148SAPE  C31716390   2.514   4.456   8.406  0.1284 -0.0674  0.3953
  148SAPE  H17X16391   2.440   4.464   8.489 -1.3210  2.7504 -1.0363
  148SAPE  H17Y16392   2.524   4.563   8.377 -1.7889  0.1912  0.5768
  148SAPE  C31816393   2.653   4.413   8.459 -0.4409  0.4439  0.5506
  148SAPE  H18X16394   2.647   4.307   8.493  0.9919  0.3085  0.4555
  148SAPE  H18Y16395   2.692   4.486   8.532  1.5096 -0.3186  0.3469
  148SAPE  H18Z16396   2.727   4.422   8.376  0.7884  1.0468  1.6832
  149SAPE     N16397   0.629   5.796   6.228 -0.0174 -0.9517 -0.1759
  149SAPE   HN116398   0.707   5.864   6.230 -2.0787  1.7120  4.2112
  149SAPE   HN216399   0.633   5.724   6.153 -0.1980 -2.3883  1.1299
  149SAPE   HN316400   0.552   5.858   6.195  1.3680  2.8373  2.9380
  149SAPE   C1216401   0.596   5.728   6.366  1.0254 -0.8513 -0.1745
  149SAPE  H12A16402   0.689   5.725   6.426  1.0720 -1.4937 -0.2827
  149SAPE  H12B16403   0.562   5.624   6.348 -1.0666 -0.3322  0.4779
  149SAPE   C1116404   0.486   5.809   6.446 -0.6721 -0.3088  1.2337
  149SAPE  H11A16405   0.495   5.793   6.556  0.1033  0.2200  1.2620
  149SAPE  H11B16406   0.387   5.769   6.417 -0.5332 -0.8086  1.4505
  149SAPE     P16407   0.419   6.058   6.489  0.1206 -0.0280  0.1369
  149SAPE   O1316408   0.460   6.184   6.430 -0.2034  0.1314  0.0597
  149SAPE   O1416409   0.274   6.026   6.467  0.1267  0.7091 -0.2097
  149SAPE   O1216410   0.498   5.945   6.414  0.0293  0.2491  0.5445
  149SAPE   O1116411   0.460   6.037   6.643 -0.2294 -0.4687 -0.0174
  149SAPE    C116412   0.595   6.074   6.680  0.4562  1.1245 -0.8781
  149SAPE    HA16413   0.661   6.021   6.608  0.3228 -0.6302  0.2593
  149SAPE    HB16414   0.609   6.185   6.684 -0.7863  1.2592  2.3185
  149SAPE    C216415   0.622   6.022   6.821 -0.2940 -0.1948 -0.7956
  149SAPE    HS16416   0.727   6.045   6.848 -0.9158  0.7251  1.0088
  149SAPE   O2116417   0.590   5.883   6.839  0.0218 -0.4586  0.2036
  149SAPE   C2116418   0.672   5.799   6.774  0.0674 -0.6333  0.3300
  149SAPE   O2216419   0.763   5.834   6.697 -0.2859 -0.0868 -0.0248
  149SAPE   C2216420   0.623   5.653   6.791 -0.1388  0.2657 -0.1021
  149SAPE   H2R16421   0.602   5.629   6.897 -1.2620 -1.0302 -0.5829
  149SAPE   H2S16422   0.537   5.635   6.722 -0.6543 -0.9449  0.8164
  149SAPE    C316423   0.536   6.100   6.923  0.1107 -0.4415 -0.1906
  149SAPE    HX16424   0.431   6.063   6.917  0.4806 -1.4119 -1.0047
  149SAPE    HY16425   0.538   6.206   6.892  1.3580  0.1199  1.6309
  149SAPE   O3116426   0.595   6.078   7.058 -0.2909 -0.5640 -0.7108
  149SAPE   C3116427   0.516   6.140   7.150  0.2379  0.3696  0.3179
  149SAPE   O3216428   0.412   6.201   7.128 -0.1509  0.2080 -0.0034
  149SAPE   C3216429   0.562   6.101   7.288 -0.3431 -0.2016  0.8012
  149SAPE   H2X16430   0.664   6.139   7.310 -1.3225  2.7482  0.7544
  149SAPE   H2Y16431   0.557   5.990   7.291  0.6767 -0.2594  0.8537
  149SAPE   C2316432   0.739   5.558   6.744  0.5772 -0.6902  0.0018
  149SAPE   H3R16433   0.842   5.596   6.759  0.0992  0.4325  0.4918
  149SAPE   H3S16434   0.718   5.531   6.638  1.0594  1.6692 -0.7324
  149SAPE   C2416435   0.739   5.422   6.826  0.4551  0.4892 -0.0773
  149SAPE   H4R16436   0.764   5.438   6.933 -0.9711 -0.2905  0.3919
  149SAPE   H4S16437   0.828   5.360   6.801  0.4792  0.1525  0.7857
  149SAPE   C2516438   0.610   5.341   6.804 -0.6969  0.6357 -0.0090
  149SAPE   H5R16439   0.574   5.324   6.701  2.4564 -1.4820 -0.8972
  149SAPE   C2616440   0.538   5.299   6.908 -0.1443 -0.0178  0.4819
  149SAPE   H6R16441   0.449   5.239   6.883 -1.4779  1.7129  0.8116
  149SAPE   C2716442   0.561   5.311   7.051 -0.3748 -0.1794  0.5479
  149SAPE   H7R16443   0.475   5.347   7.113  0.6169  0.2439  1.7224
  149SAPE   H7S16444   0.627   5.396   7.079 -1.7011  0.9927  0.2065
  149SAPE   C2816445   0.610   5.185   7.114  0.5096  0.0988  0.1221
  149SAPE   H8R16446   0.681   5.124   7.056  2.3129 -0.3694  2.6268
  149SAPE   C2916447   0.583   5.137   7.238 -0.3121  0.6113  0.0933
  149SAPE   H9R16448   0.629   5.039   7.258 -1.3440 -0.5580 -2.7828
  149SAPE  C21016449   0.495   5.210   7.339 -0.2939 -0.1825  0.3208
  149SAPE  H10R16450   0.433   5.140   7.399 -2.0691  0.4783 -0.6437
  149SAPE  H10S16451   0.420   5.280   7.294  0.4381  0.8050  0.5870
  149SAPE  C21116452   0.585   5.296   7.423  0.1736  0.1737  0.3032
  149SAPE  H11R16453   0.621   5.381   7.362  0.9864  0.3983  1.0631
  149SAPE  C21216454   0.607   5.281   7.558  0.2371 -0.6612 -0.1393
  149SAPE  H12R16455   0.683   5.344   7.606 -0.3341  0.2083 -0.3352
  149SAPE  C21316456   0.555   5.170   7.647 -0.2235 -0.6745  0.0013
  149SAPE  H13R16457   0.636   5.130   7.711  0.8249 -0.1296 -0.9615
  149SAPE  H13S16458   0.531   5.084   7.581  0.4864 -0.6395 -0.3066
  149SAPE  C21416459   0.428   5.206   7.730 -0.0661  0.1145 -0.4684
  149SAPE  H14R16460   0.350   5.264   7.678 -0.9979 -0.6206  0.0871
  149SAPE  C21516461   0.407   5.180   7.858 -0.3067  0.3747 -0.0099
  149SAPE  H15R16462   0.316   5.206   7.914 -1.0544 -1.0346 -0.5133
  149SAPE  C21616463   0.516   5.117   7.944 -0.0158 -0.2763  0.2374
  149SAPE  H16R16464   0.610   5.168   7.915  0.7686 -2.2445 -0.8517
  149SAPE  H16S16465   0.525   5.006   7.937  3.6056 -0.0611 -0.4702
  149SAPE  C21716466   0.491   5.153   8.093  0.5276 -0.5282  0.1787
  149SAPE  H17R16467   0.583   5.122   8.147  0.8685 -0.7959 -0.5552
  149SAPE  H17S16468   0.408   5.088   8.128 -0.7673 -1.2225 -3.7401
  149SAPE  C21816469   0.467   5.307   8.120 -0.5269 -0.5408  0.2433
  149SAPE  H18R16470   0.376   5.343   8.066 -1.4769 -2.7894  0.2356
  149SAPE  H18S16471   0.553   5.348   8.063 -0.3805  1.0544  1.5602
  149SAPE  C21916472   0.471   5.351   8.268  0.3691  0.2389  0.2560
  149SAPE  H19R16473   0.444   5.264   8.332 -0.0813 -0.5222 -0.9183
  149SAPE  H19S16474   0.406   5.440   8.278  2.0556  1.2698  3.0642
  149SAPE  C22016475   0.612   5.402   8.314  0.2215 -0.3432  0.3913
  149SAPE  H20R16476   0.639   5.493   8.256  3.1464 -1.5241 -0.3036
  149SAPE  H20S16477   0.691   5.326   8.293  1.2163  0.8005 -0.1440
  149SAPE  H20T16478   0.613   5.425   8.422  0.2623  1.5859  0.0097
  149SAPE   C3316479   0.469   6.147   7.402  0.1830 -0.0931 -0.0767
  149SAPE   H3X16480   0.366   6.119   7.371  0.1473 -1.4458  1.1233
  149SAPE   H3Y16481   0.475   6.256   7.424  0.2545  0.2132 -1.5648
  149SAPE   C3416482   0.494   6.057   7.523 -0.5763 -0.2462 -0.4610
  149SAPE   H4X16483   0.594   6.084   7.563  0.9200 -0.2980 -3.7823
  149SAPE   H4Y16484   0.511   5.951   7.494  2.8721  0.4314 -1.4333
  149SAPE   C3516485   0.386   6.054   7.635 -0.0292  0.6469 -0.0397
  149SAPE   H5X16486   0.411   5.976   7.710  0.0255  1.6968  1.0656
  149SAPE   H5Y16487   0.292   6.024   7.585 -0.2667  1.5274 -0.1371
  149SAPE   C3616488   0.372   6.182   7.710  0.0421 -0.4072 -0.1166
  149SAPE   H6X16489   0.324   6.263   7.651  0.8833  1.3619  1.5048
  149SAPE   H6Y16490   0.468   6.220   7.752  0.3606 -0.4421 -0.8054
  149SAPE   C3716491   0.278   6.156   7.824  0.5844 -0.6924  1.2605
  149SAPE   H7X16492   0.319   6.103   7.913  1.2110 -2.8970 -0.2501
  149SAPE   H7Y16493   0.192   6.094   7.790  1.3006 -0.1447 -1.7589
  149SAPE   C3816494   0.222   6.283   7.882  0.0920  0.2999 -0.2002
  149SAPE   H8X16495   0.169   6.337   7.801  2.0002  4.3633  0.9688
  149SAPE   H8Y16496   0.314   6.342   7.904  0.3850 -1.5244  4.4616
  149SAPE   C3916497   0.134   6.269   8.009 -0.5466 -0.3990  0.6101
  149SAPE   H9X16498   0.192   6.200   8.074 -1.4408 -3.6105 -1.7165
  149SAPE   H9Y16499   0.045   6.207   7.984  1.2771 -3.3048  0.8574
  149SAPE  C31016500   0.099   6.408   8.068 -0.3542  1.0660 -0.0186
  149SAPE  H10X16501   0.042   6.473   7.998  1.0595  0.3806 -1.8982
  149SAPE  H10Y16502   0.193   6.463   8.091 -0.6330  1.6549 -0.2587
  149SAPE  C31116503   0.022   6.399   8.201  0.3387 -0.3393  0.4894
  149SAPE  H11X16504   0.080   6.330   8.266  0.5008  1.9312  2.9093
  149SAPE  H11Y16505  -0.081   6.363   8.177  0.9329 -0.7276 -1.6245
  149SAPE  C31216506   0.019   6.533   8.274  0.8313  0.2429  0.5639
  149SAPE  H12X16507  -0.028   6.612   8.212 -0.0101  0.0132  0.8947
  149SAPE  H12Y16508   0.124   6.563   8.293  1.0278  0.3111 -0.5858
  149SAPE  C31316509  -0.049   6.523   8.411  0.7971 -0.4582  0.2211
  149SAPE  H13X16510  -0.023   6.608   8.478  1.5483  0.0243 -0.6578
  149SAPE  H13Y16511  -0.015   6.429   8.460  0.3660 -0.9941 -0.4905
  149SAPE  C31416512  -0.199   6.509   8.396  0.2732  0.2147 -0.0086
  149SAPE  H14X16513  -0.234   6.471   8.494  0.5530  1.1214  0.4439
  149SAPE  H14Y16514  -0.234   6.438   8.317  0.4738  0.5253 -0.3796
  149SAPE  C31516515  -0.271   6.641   8.384 -0.5938 -0.5866  0.2613
  149SAPE  H15X16516  -0.244   6.697   8.291  0.1436 -1.4801 -0.0796
  149SAPE  H15Y16517  -0.249   6.705   8.472  1.3624  0.6569 -1.0560
  149SAPE  C31616518  -0.420   6.610   8.372 -0.6277  0.4595  0.1905
  149SAPE  H16X16519  -0.461   6.539   8.447 -0.8953  0.2027 -0.1965
  149SAPE  H16Y16520  -0.428   6.561   8.272  2.9016 -1.6216  0.7347
  149SAPE  C31716521  -0.496   6.750   8.365 -0.3082 -0.1340  0.6126
  149SAPE  H17X16522  -0.586   6.741   8.302  0.9180  2.0162 -1.6204
  149SAPE  H17Y16523  -0.424   6.818   8.316 -1.3934  1.0499  0.6231
  149SAPE  C31816524  -0.538   6.807   8.501  0.1078  1.2265  0.7600
  149SAPE  H18X16525  -0.588   6.905   8.487 -2.7482  0.1245  2.4204
  149SAPE  H18Y16526  -0.445   6.837   8.555 -0.8688 -0.1847  3.3959
  149SAPE  H18Z16527  -0.598   6.742   8.568 -2.2611  1.8185 -0.6749
  150SAPE     N16528   6.606   0.258   6.062  0.2156  0.5617 -0.2130
  150SAPE   HN116529   6.685   0.241   5.997 -0.1990 -0.0753 -0.5666
  150SAPE   HN216530   6.615   0.357   6.093  0.3768  0.2389  0.8149
  150SAPE   HN316531   6.617   0.191   6.141 -3.3920 -0.8444 -0.6639
  150SAPE   C1216532   6.463   0.220   6.019 -1.0844 -0.2257  0.0901
  150SAPE  H12A16533   6.464   0.134   5.948  0.5514 -1.7338  1.8130
  150SAPE  H12B16534   6.428   0.307   5.960  0.9717 -0.0760 -0.9774
  150SAPE   C1116535   6.373   0.182   6.137  0.5871  0.0363  0.3370
  150SAPE  H11A16536   6.265   0.192   6.111  0.2244 -4.0721 -0.4830
  150SAPE  H11B16537   6.394   0.254   6.219 -0.0160  3.7724 -2.5451
  150SAPE     P16538   6.323  -0.022   6.312  0.1346 -0.0913  0.7755
  150SAPE   O1316539   6.193  -0.086   6.266 -0.0308 -0.1960  0.1367
  150SAPE   O1416540   6.423  -0.100   6.383 -0.1410  0.4152  0.4935
  150SAPE   O1216541   6.390   0.046   6.176  0.3306  0.1791 -0.3746
  150SAPE   O1116542   6.287   0.103   6.392 -0.2254 -0.1388  0.1734
  150SAPE    C116543   6.198   0.112   6.503  0.7604 -0.1573 -0.1968
  150SAPE    HA16544   6.163   0.212   6.534 -0.3682 -0.5172 -0.2529
  150SAPE    HB16545   6.103   0.062   6.476  1.3266 -0.8580 -0.9514
  150SAPE    C216546   6.265   0.050   6.629 -0.4307 -0.6761 -0.4907
  150SAPE    HS16547   6.368   0.089   6.639 -0.7569 -0.1576  0.9921
  150SAPE   O2116548   6.254  -0.095   6.628 -0.0791 -0.2961 -0.8144
  150SAPE   C2116549   6.320  -0.159   6.718 -0.0116 -0.9260  0.2261
  150SAPE   O2216550   6.421  -0.124   6.775  0.1138  0.2676 -0.1351
  150SAPE   C2216551   6.264  -0.294   6.732  0.6337  0.1915 -0.3838
  150SAPE   H2R16552   6.236  -0.333   6.632 -0.8846  2.2684 -0.8243
  150SAPE   H2S16553   6.329  -0.369   6.783 -1.1633  0.5602  2.6519
  150SAPE    C316554   6.197   0.109   6.754  0.3708 -0.7612  0.3257
  150SAPE    HX16555   6.092   0.074   6.742  0.7683 -1.8034 -0.1486
  150SAPE    HY16556   6.193   0.220   6.748 -0.9464 -0.8372 -0.7803
  150SAPE   O3116557   6.245   0.070   6.884 -0.7166 -0.3942 -0.0605
  150SAPE   C3116558   6.357   0.134   6.918  0.6083  0.6022  0.1798
  150SAPE   O3216559   6.426   0.204   6.839 -0.1314 -0.2558 -0.2810
  150SAPE   C3216560   6.394   0.099   7.062 -0.2402  0.3858  0.2685
  150SAPE   H2X16561   6.460   0.010   7.057  0.2352  0.6154  1.9164
  150SAPE   H2Y16562   6.302   0.060   7.111  1.5352 -1.7823  2.0898
  150SAPE   C2316563   6.133  -0.284   6.805  0.2641  0.1684 -1.0520
  150SAPE   H3R16564   6.074  -0.378   6.809 -0.4142  0.6262  1.4573
  150SAPE   H3S16565   6.066  -0.207   6.760  0.0251  1.9155  2.0482
  150SAPE   C2416566   6.149  -0.247   6.956  0.4191 -0.1374 -0.8066
  150SAPE   H4R16567   6.057  -0.222   7.013  1.2563  0.3818  0.3793
  150SAPE   H4S16568   6.227  -0.169   6.970  1.9659 -1.6109 -0.8464
  150SAPE   C2516569   6.216  -0.350   7.042  0.0224  0.6142  0.5971
  150SAPE   H5R16570   6.310  -0.385   6.997 -0.6907 -1.2973  0.4723
  150SAPE   C2616571   6.185  -0.407   7.166  0.3184 -0.0641  0.1205
  150SAPE   H6R16572   6.241  -0.493   7.206  0.9824  1.1798  1.9893
  150SAPE   C2716573   6.062  -0.386   7.251  0.1240 -0.5741  0.4465
  150SAPE   H7R16574   5.995  -0.473   7.234  0.7602 -1.0604  0.3469
  150SAPE   H7S16575   6.007  -0.304   7.201  0.9285 -0.1593  0.2280
  150SAPE   C2816576   6.079  -0.370   7.400  0.2902 -0.0130  0.2036
  150SAPE   H8R16577   6.076  -0.264   7.431 -0.9092  0.5013 -1.5155
  150SAPE   C2916578   6.066  -0.466   7.493 -0.5319 -0.1817  0.4022
  150SAPE   H9R16579   6.106  -0.435   7.590  1.7675  1.7877 -1.0536
  150SAPE  C21016580   6.035  -0.613   7.479  0.1839 -0.1856  0.2580
  150SAPE  H10R16581   6.129  -0.673   7.483 -1.2662 -2.5239  1.2701
  150SAPE  H10S16582   5.988  -0.648   7.385  0.3729  1.7933 -0.6325
  150SAPE  C21116583   5.931  -0.657   7.574 -0.1580  0.4533 -0.3595
  150SAPE  H11R16584   5.847  -0.590   7.592 -0.9246 -0.3753 -0.7770
  150SAPE  C21216585   5.934  -0.774   7.650  0.5808  0.1054  0.3237
  150SAPE  H12R16586   5.853  -0.798   7.720 -0.2910  0.7939 -0.4205
  150SAPE  C21316587   6.052  -0.868   7.648  0.0322 -0.1790  0.1342
  150SAPE  H13R16588   6.139  -0.820   7.697  0.7596 -1.1846 -0.1597
  150SAPE  H13S16589   6.083  -0.889   7.544  0.1303  0.4767  0.0260
  150SAPE  C21416590   6.015  -0.998   7.718 -1.0531  0.3257  0.2308
  150SAPE  H14R16591   5.982  -1.071   7.642  3.3576  0.9053 -2.5964
  150SAPE  C21516592   6.035  -1.034   7.848 -0.0819 -0.0565  0.3419
  150SAPE  H15R16593   6.012  -1.134   7.888  0.4915 -0.9064 -1.3576
  150SAPE  C21616594   6.103  -0.941   7.948  0.0123 -0.3190  0.5759
  150SAPE  H16R16595   6.104  -0.837   7.908 -0.3316 -0.2057  0.8590
  150SAPE  H16S16596   6.213  -0.948   7.956  0.1952  1.5610  0.1711
  150SAPE  C21716597   6.055  -0.960   8.091 -0.0036 -0.7720 -0.2232
  150SAPE  H17R16598   5.950  -0.993   8.106 -1.2573  1.9836 -1.9959
  150SAPE  H17S16599   6.065  -0.858   8.136 -0.7319 -0.9449  0.3559
  150SAPE  C21816600   6.156  -1.056   8.164  0.3890  0.1436 -0.1924
  150SAPE  H18R16601   6.256  -1.021   8.131 -0.5309  1.9190 -1.2347
  150SAPE  H18S16602   6.132  -1.155   8.120 -2.4391  0.8450 -0.4059
  150SAPE  C21916603   6.135  -1.076   8.313 -0.1790  0.1940  0.1365
  150SAPE  H19R16604   6.142  -0.973   8.354  0.5080  0.1946  0.0363
  150SAPE  H19S16605   6.212  -1.141   8.360 -2.4887 -1.1219  2.3634
  150SAPE  C22016606   6.003  -1.137   8.346 -0.0156 -0.5247 -0.3837
  150SAPE  H20R16607   5.987  -1.228   8.285 -0.0288 -0.5671 -0.3179
  150SAPE  H20S16608   5.909  -1.078   8.332 -0.7088 -1.8754 -1.5996
  150SAPE  H20T16609   6.014  -1.168   8.452  3.0274  0.3871 -0.3235
  150SAPE   C3316610   6.463   0.212   7.134 -0.3428  0.2141 -0.0952
  150SAPE   H3X16611   6.386   0.281   7.175 -0.8823 -0.3201 -0.1946
  150SAPE   H3Y16612   6.530   0.265   7.063 -1.0408 -0.0951 -1.0089
  150SAPE   C3416613   6.557   0.176   7.255 -0.2428  0.5498  0.2998
  150SAPE   H4X16614   6.599   0.260   7.316  0.3773 -0.4350  1.2719
  150SAPE   H4Y16615   6.645   0.132   7.203 -0.3031 -1.4946  1.7824
  150SAPE   C3516616   6.496   0.067   7.351  0.1116  0.4776 -0.4550
  150SAPE   H5X16617   6.573   0.028   7.421  0.2141  1.9723  0.3219
  150SAPE   H5Y16618   6.475  -0.018   7.283  0.2441 -1.3992  1.7433
  150SAPE   C3616619   6.362   0.092   7.431  0.2504  0.1480  0.4604
  150SAPE   H6X16620   6.279   0.115   7.360  1.2515  0.6241 -0.5998
  150SAPE   H6Y16621   6.367   0.184   7.493 -0.5316 -1.4463  3.0473
  150SAPE   C3716622   6.322  -0.031   7.512 -0.7309  0.0869  0.4899
  150SAPE   H7X16623   6.414  -0.044   7.573  0.2796  0.2255 -0.9537
  150SAPE   H7Y16624   6.296  -0.126   7.460  0.4088 -0.3438  0.6624
  150SAPE   C3816625   6.217  -0.008   7.611  1.0618 -0.0392  0.5411
  150SAPE   H8X16626   6.130   0.005   7.543  2.2808 -0.8223 -1.2779
  150SAPE   H8Y16627   6.232   0.086   7.669  2.3674  1.0616 -1.4152
  150SAPE   C3916628   6.183  -0.128   7.705  0.2500 -0.1684  0.3837
  150SAPE   H9X16629   6.272  -0.146   7.769  1.7586 -0.4283 -1.6992
  150SAPE   H9Y16630   6.171  -0.216   7.638  2.0290 -0.0562 -0.1181
  150SAPE  C31016631   6.057  -0.100   7.793  0.6517 -0.1130 -0.1697
  150SAPE  H10X16632   5.957  -0.088   7.745 -1.5575 -2.3089  3.3649
  150SAPE  H10Y16633   6.081   0.001   7.831  0.0273  0.4572 -1.2329
  150SAPE  C31116634   6.044  -0.197   7.911  0.1462  0.3824  0.4559
  150SAPE  H11X16635   5.973  -0.143   7.976 -2.1105 -0.3253 -1.2889
  150SAPE  H11Y16636   6.143  -0.222   7.955  0.9320 -3.4227 -2.8140
  150SAPE  C31216637   5.976  -0.339   7.877  0.1754 -0.1551  0.4097
  150SAPE  H12X16638   6.060  -0.395   7.832  2.0326  1.3026  1.8758
  150SAPE  H12Y16639   5.891  -0.320   7.809 -0.5275 -1.1640  0.9864
  150SAPE  C31316640   5.932  -0.415   7.999 -0.2971  0.1925 -0.1248
  150SAPE  H13X16641   5.845  -0.364   8.047  0.2537  0.6896  0.3713
  150SAPE  H13Y16642   6.009  -0.429   8.079 -1.6608  1.7995  1.5848
  150SAPE  C31416643   5.880  -0.553   7.963 -0.4019  0.0477  0.4609
  150SAPE  H14X16644   5.965  -0.617   7.932 -0.5768  1.0288 -2.3134
  150SAPE  H14Y16645   5.812  -0.545   7.876  0.8501 -0.2956 -0.5703
  150SAPE  C31516646   5.806  -0.612   8.084 -0.1442  0.2612  0.2719
  150SAPE  H15X16647   5.728  -0.540   8.117  0.1235  1.1449 -0.9476
  150SAPE  H15Y16648   5.868  -0.620   8.176 -0.0801 -1.6805  0.0873
  150SAPE  C31616649   5.720  -0.742   8.068  0.4495 -0.2798  0.4740
  150SAPE  H16X16650   5.785  -0.824   8.032 -0.2428 -0.2175 -1.0002
  150SAPE  H16Y16651   5.635  -0.716   8.001  0.2145  0.8233  1.1722
  150SAPE  C31716652   5.661  -0.780   8.208 -0.0626 -0.3088 -0.2263
  150SAPE  H17X16653   5.572  -0.714   8.224  0.1315 -0.5074  2.0043
  150SAPE  H17Y16654   5.748  -0.757   8.274  0.1534 -2.7555  0.4391
  150SAPE  C31816655   5.626  -0.931   8.222 -0.1888  0.4354 -0.0424
  150SAPE  H18X16656   5.723  -0.985   8.212 -1.4183 -2.0119  0.4146
  150SAPE  H18Y16657   5.553  -0.957   8.142 -0.8674  3.9734 -0.7225
  150SAPE  H18Z16658   5.589  -0.956   8.323 -0.3329 -0.5033 -0.3126
  151SAPE     N16659   0.929   4.108   6.549  0.3721 -0.5524  0.0024
  151SAPE   HN116660   0.825   4.101   6.546  0.3260 -0.7483  1.1973
  151SAPE   HN216661   0.968   4.050   6.627  1.1746  0.8597  0.6972
  151SAPE   HN316662   0.958   4.207   6.562 -1.9993 -0.1180  3.2967
  151SAPE   C1216663   0.975   4.048   6.422 -0.0251 -1.0440  0.0102
  151SAPE  H12A16664   0.922   4.112   6.348  1.1642  1.3941  1.1124
  151SAPE  H12B16665   0.940   3.947   6.394  0.5017 -1.1440 -0.2844
  151SAPE   C1116666   1.129   4.066   6.418  0.9435  0.2897 -0.1298
  151SAPE  H11A16667   1.171   3.992   6.346 -0.6241 -0.8423  0.0673
  151SAPE  H11B16668   1.173   4.041   6.516 -1.0493  1.4179  1.1190
  151SAPE     P16669   1.296   4.255   6.371 -0.1787  0.1842  0.3149
  151SAPE   O1316670   1.384   4.178   6.280  0.0172  0.6336  0.3044
  151SAPE   O1416671   1.282   4.398   6.335 -0.6474  1.0041  0.5920
  151SAPE   O1216672   1.145   4.199   6.376  0.6894  0.8819 -0.2653
  151SAPE   O1116673   1.347   4.251   6.528  0.6045  0.0435 -0.1389
  151SAPE    C116674   1.292   4.350   6.619  0.2615  0.3942  0.1561
  151SAPE    HA16675   1.284   4.451   6.574  0.8256  0.9435  1.2692
  151SAPE    HB16676   1.187   4.324   6.644 -0.9637  3.0936 -1.6980
  151SAPE    C216677   1.367   4.359   6.754  0.0857 -0.0319 -0.2476
  151SAPE    HS16678   1.473   4.371   6.723 -0.2089  0.3074 -1.1890
  151SAPE   O2116679   1.345   4.243   6.836  0.3391  0.0499 -0.3160
  151SAPE   C2116680   1.408   4.139   6.785 -0.5315  0.2996 -0.3811
  151SAPE   O2216681   1.511   4.140   6.721 -0.5527 -0.1740  0.3315
  151SAPE   C2216682   1.319   4.029   6.824 -0.2807  0.0532  1.0864
  151SAPE   H2R16683   1.277   4.039   6.926 -1.1918  0.0127  0.7284
  151SAPE   H2S16684   1.235   4.039   6.751  1.4772  1.9616 -0.8266
  151SAPE    C316685   1.327   4.481   6.841 -0.3693  0.6914  0.0927
  151SAPE    HX16686   1.216   4.482   6.845 -0.4925 -0.8572 -1.5877
  151SAPE    HY16687   1.362   4.569   6.783  3.0289 -0.9135 -0.6048
  151SAPE   O3116688   1.385   4.488   6.973  0.1268  0.1147  0.1962
  151SAPE   C3116689   1.518   4.500   6.973 -0.0369  0.6167 -0.4635
  151SAPE   O3216690   1.588   4.519   6.875 -0.2623  0.1546  0.8271
  151SAPE   C3216691   1.567   4.464   7.115 -0.5170  0.1467 -0.3099
  151SAPE   H2X16692   1.611   4.558   7.156 -1.8972  0.1628  1.2640
  151SAPE   H2Y16693   1.661   4.405   7.110 -1.3787 -1.2568 -0.5485
  151SAPE   C2316694   1.396   3.893   6.811  0.0059  0.5757  0.0610
  151SAPE   H3R16695   1.468   3.893   6.726 -0.1100 -0.4557 -0.0621
  151SAPE   H3S16696   1.333   3.801   6.817 -0.8409  0.9072 -2.4410
  151SAPE   C2416697   1.492   3.857   6.931  0.7001  1.0590  0.0350
  151SAPE   H4R16698   1.553   3.767   6.905 -0.7652 -0.3613  1.2784
  151SAPE   H4S16699   1.421   3.806   7.000  0.5135  1.5300  0.1951
  151SAPE   C2516700   1.580   3.959   6.985 -0.1691 -0.0548  0.0363
  151SAPE   H5R16701   1.643   4.006   6.908 -0.5912 -1.5911 -1.3086
  151SAPE   C2616702   1.582   3.991   7.118 -0.3774 -0.2874 -0.0728
  151SAPE   H6R16703   1.643   4.078   7.145 -0.6096  0.5748 -2.1143
  151SAPE   C2716704   1.509   3.931   7.232  0.2992  0.3853 -0.4196
  151SAPE   H7R16705   1.579   3.876   7.300 -0.7683  0.0044  0.3989
  151SAPE   H7S16706   1.451   3.841   7.200  1.9709 -0.9433  0.0962
  151SAPE   C2816707   1.413   4.027   7.297  0.0282 -0.8038 -0.6458
  151SAPE   H8R16708   1.345   4.088   7.236  0.4033 -0.0166 -0.2938
  151SAPE   C2916709   1.411   4.051   7.434  0.4422 -0.1133  0.9313
  151SAPE   H9R16710   1.345   4.126   7.479 -0.6272 -1.0679  1.0064
  151SAPE  C21016711   1.496   3.982   7.538  0.7180 -0.7442 -0.6556
  151SAPE  H10R16712   1.579   3.916   7.503 -0.7082 -2.7978 -0.3269
  151SAPE  H10S16713   1.427   3.922   7.600  0.8493  1.0052  1.2702
  151SAPE  C21116714   1.564   4.090   7.625  0.9740  0.0582 -1.0060
  151SAPE  H11R16715   1.601   4.184   7.583 -1.7508  1.9980  0.5941
  151SAPE  C21216716   1.600   4.067   7.750  0.5500 -0.9274  1.2398
  151SAPE  H12R16717   1.643   4.155   7.800  0.3635  0.7100 -1.3041
  151SAPE  C21316718   1.578   3.951   7.841  0.0355 -0.1893 -0.3540
  151SAPE  H13R16719   1.660   3.876   7.838 -0.6307 -0.9030 -2.4203
  151SAPE  H13S16720   1.482   3.900   7.819 -0.3954  0.9859 -1.2772
  151SAPE  C21416721   1.555   3.980   7.990 -0.4685  0.3207  0.7904
  151SAPE  H14R16722   1.452   3.962   8.024 -0.6407 -0.3599 -0.0585
  151SAPE  C21516723   1.654   4.005   8.087  0.0029 -0.3246  0.2955
  151SAPE  H15R16724   1.622   4.025   8.191  0.6937  1.9912  0.1287
  151SAPE  C21616725   1.797   4.032   8.056 -0.2570 -0.2004  0.1968
  151SAPE  H16R16726   1.803   4.142   8.047  2.3837 -0.3262 -0.4117
  151SAPE  H16S16727   1.823   3.989   7.956  0.2091  0.6184 -0.0381
  151SAPE  C21716728   1.908   3.991   8.150  0.1715  0.4940 -0.6685
  151SAPE  H17R16729   2.009   3.991   8.102  0.1792 -0.2995 -0.6599
  151SAPE  H17S16730   1.889   3.887   8.182  0.2631 -0.0873 -2.4259
  151SAPE  C21816731   1.924   4.081   8.270  0.2412  0.0871  0.4752
  151SAPE  H18R16732   1.843   4.053   8.340 -1.1808 -0.8511 -1.4484
  151SAPE  H18S16733   1.909   4.186   8.238 -0.1697 -0.4676 -1.2713
  151SAPE  C21916734   2.066   4.071   8.332 -0.0412  0.3324 -1.0887
  151SAPE  H19R16735   2.136   4.101   8.251 -1.0004  3.1091 -0.9793
  151SAPE  H19S16736   2.085   3.965   8.361 -0.8213  0.7091  0.9525
  151SAPE  C22016737   2.088   4.153   8.458  0.2457  0.1763 -0.1055
  151SAPE  H20R16738   2.189   4.144   8.503  0.4064 -1.3440 -0.6826
  151SAPE  H20S16739   2.074   4.258   8.425  0.9047  0.4199  0.3847
  151SAPE  H20T16740   2.000   4.137   8.524 -0.3948  1.7794 -0.5254
  151SAPE   C3316741   1.474   4.398   7.221  0.0671 -0.2890  0.0836
  151SAPE   H3X16742   1.479   4.295   7.181  1.8033 -0.5703  0.9173
  151SAPE   H3Y16743   1.380   4.457   7.218  0.5025  0.3839 -0.8459
  151SAPE   C3416744   1.527   4.399   7.364 -0.2832  0.5382 -0.2335
  151SAPE   H4X16745   1.610   4.329   7.386 -0.3681  0.7854  0.9407
  151SAPE   H4Y16746   1.444   4.360   7.426 -0.0834  1.3345  0.5574
  151SAPE   C3516747   1.551   4.533   7.429  0.0169 -0.1343  0.1349
  151SAPE   H5X16748   1.462   4.598   7.417 -0.1185 -0.1865  0.8184
  151SAPE   H5Y16749   1.637   4.585   7.382  0.7489 -1.4826 -0.0895
  151SAPE   C3616750   1.595   4.513   7.574 -0.3685 -0.2070  0.6350
  151SAPE   H6X16751   1.643   4.608   7.605  0.5079 -1.1613  2.3404
  151SAPE   H6Y16752   1.682   4.446   7.591  1.1422  1.8303  1.3761
  151SAPE   C3716753   1.479   4.485   7.669 -0.2325 -0.0575 -0.0169
  151SAPE   H7X16754   1.462   4.376   7.656  0.8612 -0.4017  1.2474
  151SAPE   H7Y16755   1.396   4.545   7.626 -0.4212  0.4736  1.0496
  151SAPE   C3816756   1.495   4.535   7.815  0.2838 -0.0769  1.1643
  151SAPE   H8X16757   1.400   4.584   7.849  1.4216  2.5896  0.7668
  151SAPE   H8Y16758   1.565   4.622   7.814 -0.9621  0.9575  0.5623
  151SAPE   C3916759   1.550   4.437   7.917  0.1919 -0.2894  0.1578
  151SAPE   H9X16760   1.638   4.379   7.882  0.5377  0.8030 -0.8848
  151SAPE   H9Y16761   1.471   4.360   7.930 -0.0027 -0.1085  0.0663
  151SAPE  C31016762   1.586   4.500   8.052  0.2960 -0.1320 -0.5060
  151SAPE  H10X16763   1.606   4.425   8.132  1.5700  0.2676 -0.4204
  151SAPE  H10Y16764   1.490   4.551   8.075 -1.3015 -1.1513 -4.1268
  151SAPE  C31116765   1.704   4.596   8.036  0.3264  0.4728  0.9715
  151SAPE  H11X16766   1.665   4.682   7.977 -1.3351 -0.7937  0.1318
  151SAPE  H11Y16767   1.785   4.550   7.974  1.3328 -0.8675  3.1687
  151SAPE  C31216768   1.760   4.640   8.175  0.0404  0.1322  1.0051
  151SAPE  H12X16769   1.677   4.686   8.233 -1.9065 -1.4316 -0.4242
  151SAPE  H12Y16770   1.844   4.709   8.152  0.8661 -1.4605 -1.1129
  151SAPE  C31316771   1.813   4.525   8.267 -0.4236  0.0155  0.5586
  151SAPE  H13X16772   1.873   4.460   8.200  1.7309 -0.0455  2.4363
  151SAPE  H13Y16773   1.724   4.466   8.299 -1.5444  1.3239 -0.0595
  151SAPE  C31416774   1.890   4.584   8.383 -0.7594  0.1391  0.3560
  151SAPE  H14X16775   1.918   4.507   8.458 -0.5969  0.2673  0.4253
  151SAPE  H14Y16776   1.815   4.654   8.425 -1.6094  0.3796 -1.4620
  151SAPE  C31516777   2.023   4.659   8.357 -0.9596 -0.1803 -0.1893
  151SAPE  H15X16778   1.995   4.747   8.296 -0.6432 -1.2123 -1.8927
  151SAPE  H15Y16779   2.085   4.590   8.296  0.1117 -0.7788  1.4763
  151SAPE  C31616780   2.095   4.685   8.495  0.0918 -0.2241 -0.1718
  151SAPE  H16X16781   2.200   4.713   8.471 -0.0339 -1.8461 -3.0849
  151SAPE  H16Y16782   2.106   4.584   8.538  0.7650 -0.1837 -0.2366
  151SAPE  C31716783   2.031   4.791   8.584 -0.0809  0.9133  0.2399
  151SAPE  H17X16784   2.086   4.796   8.681 -1.1854 -0.2904  0.9649
  151SAPE  H17Y16785   1.935   4.740   8.609 -0.3868  1.3444 -0.0466
  151SAPE  C31816786   2.003   4.935   8.543  0.3297 -0.2808 -0.3056
  151SAPE  H18X16787   2.087   5.002   8.570 -0.6088 -0.1296  2.4945
  151SAPE  H18Y16788   1.916   4.981   8.594 -0.3362  0.6083 -2.1708
  151SAPE  H18Z16789   1.989   4.953   8.434  1.3291 -0.0425 -0.4025
  152SAPE     N16790   4.800   0.111   6.013 -0.0897  0.2450  0.0691
  152SAPE   HN116791   4.721   0.075   6.069 -0.7716  1.6455  0.0505
  152SAPE   HN216792   4.773   0.173   5.934  1.5737  0.7376 -0.1577
  152SAPE   HN316793   4.839   0.026   5.967 -1.0183 -0.8302  1.1848
  152SAPE   C1216794   4.878   0.197   6.106  0.0974  0.2956  0.5022
  152SAPE  H12A16795   4.918   0.131   6.186  0.5534  0.0109  0.0461
  152SAPE  H12B16796   4.802   0.262   6.155 -1.2935 -1.4728  0.7673
  152SAPE   C1116797   4.999   0.259   6.044 -0.2921  0.4448  0.3496
  152SAPE  H11A16798   4.967   0.345   5.982 -1.1475 -0.8538 -1.0821
  152SAPE  H11B16799   5.053   0.184   5.982 -0.5729  0.3832  0.1774
  152SAPE     P16800   5.055   0.420   6.251 -0.3223  0.0090 -0.2376
  152SAPE   O1316801   5.082   0.547   6.193 -0.5380 -0.4872 -0.2369
  152SAPE   O1416802   4.923   0.398   6.312  0.0097  0.1078 -0.2894
  152SAPE   O1216803   5.089   0.303   6.148 -0.2065 -0.1313  0.3093
  152SAPE   O1116804   5.170   0.402   6.359 -0.6131 -0.0026 -0.0385
  152SAPE    C116805   5.213   0.270   6.403 -0.7372  0.1258 -0.0040
  152SAPE    HA16806   5.209   0.192   6.324 -0.5942  1.1409 -1.0244
  152SAPE    HB16807   5.316   0.280   6.444 -1.8357  2.9103  2.5048
  152SAPE    C216808   5.120   0.217   6.517 -0.5901  1.0551 -0.4177
  152SAPE    HS16809   5.021   0.197   6.471 -0.3249 -1.0434 -0.1965
  152SAPE   O2116810   5.131   0.308   6.632  0.0861 -0.2218  0.6021
  152SAPE   C2116811   5.023   0.306   6.705  0.4800 -0.5374  0.4677
  152SAPE   O2216812   4.922   0.245   6.693  0.0676 -0.5549  0.1304
  152SAPE   C2216813   5.060   0.403   6.823 -0.2634 -0.3530 -0.3544
  152SAPE   H2R16814   5.159   0.369   6.860  0.7898  1.6296 -1.1785
  152SAPE   H2S16815   5.077   0.502   6.775  0.4676 -0.3391 -0.0846
  152SAPE    C316816   5.163   0.069   6.569 -0.5178 -0.6460 -0.0027
  152SAPE    HX16817   5.191   0.005   6.482 -1.3574 -3.0013  1.3793
  152SAPE    HY16818   5.075   0.025   6.621 -0.3734  0.4391  1.1945
  152SAPE   O3116819   5.286   0.078   6.648 -0.1114 -0.2055 -1.0461
  152SAPE   C3116820   5.276   0.063   6.781 -0.0449  0.0375  0.0168
  152SAPE   O3216821   5.179   0.015   6.840  0.4664 -0.1598 -0.1076
  152SAPE   C3216822   5.413   0.108   6.848 -0.6657  0.0158 -0.1748
  152SAPE   H2X16823   5.453   0.200   6.800 -1.3264  2.0172  2.8365
  152SAPE   H2Y16824   5.492   0.033   6.825  0.1998  1.3936 -1.9597
  152SAPE   C2316825   4.961   0.420   6.939  0.0881 -0.2281  0.1432
  152SAPE   H3R16826   4.938   0.319   6.980  1.6200  0.2905  2.4717
  152SAPE   H3S16827   4.871   0.467   6.894  1.3975  0.7077 -1.6153
  152SAPE   C2416828   5.008   0.522   7.050  0.2490  0.6527 -0.3829
  152SAPE   H4R16829   4.914   0.530   7.109 -1.2192 -1.5172 -2.3031
  152SAPE   H4S16830   5.039   0.613   6.994 -1.4401 -0.5326 -3.4843
  152SAPE   C2516831   5.126   0.466   7.120  0.6798  0.7963  0.4885
  152SAPE   H5R16832   5.205   0.420   7.058  0.5124  0.9719  0.1427
  152SAPE   C2616833   5.136   0.458   7.257  0.2484  0.2334  0.1590
  152SAPE   H6R16834   5.225   0.410   7.301  1.6049  2.2874 -0.1538
  152SAPE   C2716835   5.039   0.504   7.360  0.0463  0.4297  0.6692
  152SAPE   H7R16836   4.979   0.423   7.406 -1.8498  2.1775  1.4797
  152SAPE   H7S16837   4.960   0.571   7.320 -0.9318 -1.8398 -1.4612
  152SAPE   C2816838   5.118   0.573   7.463  0.9365 -0.3448  0.0282
  152SAPE   H8R16839   5.149   0.676   7.438  1.2960 -0.5843 -0.5161
  152SAPE   C2916840   5.170   0.523   7.577  0.2109  0.8255 -0.0147
  152SAPE   H9R16841   5.220   0.597   7.641 -1.4282  1.0763  1.0190
  152SAPE  C21016842   5.165   0.386   7.628  0.0873  1.4846 -0.8646
  152SAPE  H10R16843   5.143   0.312   7.548 -1.6722 -0.2056  1.0623
  152SAPE  H10S16844   5.074   0.380   7.692  0.0235  0.8873 -1.0023
  152SAPE  C21116845   5.289   0.345   7.704  0.8653  1.2774  0.5191
  152SAPE  H11R16846   5.360   0.296   7.636  1.4960  1.6068  0.9256
  152SAPE  C21216847   5.322   0.359   7.836 -0.0693 -0.8708  0.1257
  152SAPE  H12R16848   5.422   0.326   7.869  0.5414 -1.2359 -1.9415
  152SAPE  C21316849   5.236   0.413   7.945 -0.3258  0.4461  0.8762
  152SAPE  H13R16850   5.138   0.446   7.906 -0.7917 -0.8238  0.9299
  152SAPE  H13S16851   5.285   0.510   7.967  0.9880 -0.0320  0.1809
  152SAPE  C21416852   5.219   0.331   8.067  0.1033  0.5155  0.0386
  152SAPE  H14R16853   5.135   0.261   8.070  1.0253 -0.7732 -2.1958
  152SAPE  C21516854   5.309   0.322   8.164  0.1560 -0.7521  0.1206
  152SAPE  H15R16855   5.297   0.252   8.248 -1.8648 -0.8516 -0.2055
  152SAPE  C21616856   5.431   0.410   8.166 -0.5546  0.0418 -0.1678
  152SAPE  H16R16857   5.474   0.441   8.069  2.7001  1.2887  1.5163
  152SAPE  H16S16858   5.505   0.348   8.222  1.4273  0.2981 -2.3465
  152SAPE  C21716859   5.403   0.548   8.240 -0.0560 -0.1901  0.3166
  152SAPE  H17R16860   5.336   0.606   8.173  0.7476 -3.4842 -3.7217
  152SAPE  H17S16861   5.492   0.608   8.268  0.1446 -0.8883  1.2203
  152SAPE  C21816862   5.312   0.538   8.368 -0.5082  0.8615 -0.2561
  152SAPE  H18R16863   5.216   0.492   8.336  0.8625 -0.2675 -3.0793
  152SAPE  H18S16864   5.278   0.638   8.402 -3.0232  0.3129 -0.8952
  152SAPE  C21916865   5.373   0.471   8.497 -0.1376  0.0665  0.4875
  152SAPE  H19R16866   5.442   0.548   8.539 -1.6837  0.6821  2.0360
  152SAPE  H19S16867   5.418   0.379   8.454 -1.0071 -0.5217  0.8146
  152SAPE  C22016868   5.275   0.433   8.613  0.3679  0.1508  0.9728
  152SAPE  H20R16869   5.190   0.376   8.572  0.5835  1.2269 -1.0981
  152SAPE  H20S16870   5.246   0.529   8.660 -0.6693  0.5167 -0.3551
  152SAPE  H20T16871   5.327   0.369   8.688  0.5534  1.2512  1.8087
  152SAPE   C3316872   5.402   0.152   6.995 -0.4239 -0.3889 -0.0173
  152SAPE   H3X16873   5.307   0.207   7.011 -1.2116 -1.6982  0.0101
  152SAPE   H3Y16874   5.497   0.201   7.025 -1.8243  1.8604  1.0123
  152SAPE   C3416875   5.391   0.031   7.092  0.9463 -0.2056 -0.2214
  152SAPE   H4X16876   5.496  -0.002   7.109  0.8897 -0.9178 -1.2054
  152SAPE   H4Y16877   5.327  -0.043   7.040  0.1414  0.8364 -0.7623
  152SAPE   C3516878   5.343   0.066   7.234  0.1039  0.1258  0.3703
  152SAPE   H5X16879   5.273   0.152   7.229  0.1604  0.3358  2.3914
  152SAPE   H5Y16880   5.432   0.090   7.296  1.1755  0.7943 -1.3475
  152SAPE   C3616881   5.274  -0.052   7.294  0.4916 -0.0775 -0.1630
  152SAPE   H6X16882   5.311  -0.140   7.237 -0.2350 -0.7826  0.4409
  152SAPE   H6Y16883   5.167  -0.040   7.267  0.3521  2.0015  1.1470
  152SAPE   C3716884   5.287  -0.062   7.444  1.0785 -0.2610  0.1862
  152SAPE   H7X16885   5.320   0.037   7.484 -1.5408 -0.2402  2.5872
  152SAPE   H7Y16886   5.370  -0.129   7.475  1.1828 -0.4027 -0.3815
  152SAPE   C3816887   5.151  -0.113   7.510 -0.1052 -0.2955  0.1492
  152SAPE   H8X16888   5.128  -0.209   7.459  0.8208 -0.5287  0.1379
  152SAPE   H8Y16889   5.068  -0.041   7.495 -0.7304 -1.1661 -0.8026
  152SAPE   C3916890   5.165  -0.130   7.665  0.6447 -0.5598  0.0520
  152SAPE   H9X16891   5.240  -0.211   7.679  0.6713 -0.7740 -1.2194
  152SAPE   H9Y16892   5.070  -0.169   7.707 -0.6775  0.2095 -2.1181
  152SAPE  C31016893   5.212  -0.004   7.739  0.4840 -0.6565  0.7766
  152SAPE  H10X16894   5.139   0.071   7.703 -2.0362 -3.9988 -1.7924
  152SAPE  H10Y16895   5.310   0.032   7.703 -0.1096 -0.6461 -0.9208
  152SAPE  C31116896   5.215  -0.027   7.890 -0.9817  0.0878  1.2520
  152SAPE  H11X16897   5.262   0.056   7.946 -0.2824  0.7095 -0.1864
  152SAPE  H11Y16898   5.269  -0.124   7.902 -1.1383 -0.1720  0.0710
  152SAPE  C31216899   5.084  -0.060   7.952 -0.4701 -0.8001  0.0445
  152SAPE  H12X16900   5.017  -0.135   7.904 -0.8724 -0.3016 -0.1785
  152SAPE  H12Y16901   5.030   0.037   7.954  2.6070  1.2202 -3.4978
  152SAPE  C31316902   5.092  -0.125   8.101 -0.1223  0.5298  0.5740
  152SAPE  H13X16903   5.122  -0.232   8.097 -1.1763  0.1766  1.6130
  152SAPE  H13Y16904   4.990  -0.133   8.144 -0.1981  1.8482  0.6842
  152SAPE  C31416905   5.183  -0.043   8.200  0.0321 -0.1973 -0.0594
  152SAPE  H14X16906   5.130   0.054   8.208  1.3001  0.5051  0.0853
  152SAPE  H14Y16907   5.281  -0.028   8.150 -0.4959 -1.6266 -1.6200
  152SAPE  C31516908   5.198  -0.098   8.338 -0.1119  0.4956  0.1144
  152SAPE  H15X16909   5.242  -0.200   8.326 -1.0220 -0.0236  1.0535
  152SAPE  H15Y16910   5.093  -0.118   8.369 -0.3342  1.7285  0.1994
  152SAPE  C31616911   5.279  -0.013   8.433 -0.1796 -0.0968  0.6114
  152SAPE  H16X16912   5.218   0.080   8.439 -1.1504 -0.6818  0.0162
  152SAPE  H16Y16913   5.375   0.016   8.385  1.5260 -2.8718  2.1112
  152SAPE  C31716914   5.291  -0.072   8.572 -0.0527  0.4843  0.6174
  152SAPE  H17X16915   5.361  -0.006   8.628 -0.5424  1.2844  0.2923
  152SAPE  H17Y16916   5.334  -0.174   8.565 -0.0806  0.5010  0.1802
  152SAPE  C31816917   5.163  -0.065   8.656 -0.1719  0.4982 -0.0196
  152SAPE  H18X16918   5.078  -0.126   8.618 -1.4807  1.5115  1.1601
  152SAPE  H18Y16919   5.132   0.041   8.645  1.0969  0.7204 -1.9385
  152SAPE  H18Z16920   5.179  -0.100   8.760 -3.3646 -2.0364 -0.1907
  153SAPE     N16921   1.729   1.185   5.677 -0.2548 -0.0885  0.4300
  153SAPE   HN116922   1.763   1.095   5.638  1.4967  0.9169 -0.4682
  153SAPE   HN216923   1.685   1.244   5.603  0.3427  0.6573  0.6657
  153SAPE   HN316924   1.811   1.246   5.695 -0.4711  0.6988 -1.0780
  153SAPE   C1216925   1.649   1.169   5.801 -0.5889 -1.3157 -0.5358
  153SAPE  H12A16926   1.600   1.070   5.790 -2.3705 -0.4221 -0.9849
  153SAPE  H12B16927   1.571   1.248   5.806 -0.0673 -0.5829 -2.8349
  153SAPE   C1116928   1.742   1.172   5.927  0.6701 -0.3691  0.1545
  153SAPE  H11A16929   1.671   1.164   6.012 -1.1667 -1.0427 -1.3439
  153SAPE  H11B16930   1.796   1.267   5.943 -1.6906  0.9905  0.4375
  153SAPE     P16931   1.944   1.066   6.027 -0.2654  0.4075  0.4564
  153SAPE   O1316932   1.992   0.929   6.053 -0.5021 -0.1217  0.1739
  153SAPE   O1416933   2.044   1.167   5.973 -0.4685  0.4105 -0.1726
  153SAPE   O1216934   1.829   1.054   5.924  0.0279 -0.9857 -0.0705
  153SAPE   O1116935   1.877   1.126   6.162 -0.6035 -0.2901  0.4890
  153SAPE    C116936   1.926   1.253   6.212  0.2503  0.0815 -0.3353
  153SAPE    HA16937   1.940   1.322   6.126 -0.3696 -0.1088 -0.5930
  153SAPE    HB16938   1.858   1.293   6.291  0.3545  0.3822 -0.3967
  153SAPE    C216939   2.060   1.245   6.290 -0.2079  0.3243  0.7715
  153SAPE    HS16940   2.128   1.185   6.225 -1.1895  0.3922 -0.3377
  153SAPE   O2116941   2.043   1.180   6.415  0.5832  0.1767 -0.1373
  153SAPE   C2116942   2.156   1.141   6.487  0.3901 -0.1023  0.7036
  153SAPE   O2216943   2.271   1.162   6.450  0.4413 -0.4349 -0.2189
  153SAPE   C2216944   2.102   1.056   6.599 -0.3542 -0.2906 -0.6961
  153SAPE   H2R16945   2.036   0.978   6.556 -0.3651 -1.3864  1.1882
  153SAPE   H2S16946   2.190   0.995   6.629 -1.3643 -1.1838  0.5692
  153SAPE    C316947   2.108   1.393   6.302 -0.3205  0.6311 -0.3727
  153SAPE    HX16948   2.108   1.434   6.199  0.4230 -0.6124 -0.8848
  153SAPE    HY16949   2.211   1.405   6.341 -0.2282 -0.6812 -0.1678
  153SAPE   O3116950   2.014   1.460   6.383 -0.1457 -0.1486  0.3484
  153SAPE   C3116951   2.045   1.504   6.498  0.4400 -0.5604 -0.6162
  153SAPE   O3216952   2.162   1.492   6.536 -0.0438 -0.0699  0.1295
  153SAPE   C3216953   1.935   1.582   6.569 -0.3552 -0.3199  0.7695
  153SAPE   H2X16954   1.848   1.515   6.585  1.5516 -3.3268 -0.5492
  153SAPE   H2Y16955   1.911   1.675   6.513  1.4357  0.4440  1.2006
  153SAPE   C2316956   2.024   1.131   6.709  0.0027  0.1643 -0.4203
  153SAPE   H3R16957   1.930   1.074   6.698  0.2623 -0.3788  0.1444
  153SAPE   H3S16958   2.013   1.236   6.675  0.7898  0.5831  0.5584
  153SAPE   C2416959   2.083   1.126   6.855 -0.1395 -0.4726  0.3139
  153SAPE   H4R16960   2.010   1.181   6.918  0.1409  2.1947 -1.5075
  153SAPE   H4S16961   2.167   1.199   6.847 -1.0901  0.4827 -1.8814
  153SAPE   C2516962   2.126   0.989   6.909 -0.3181  0.2633 -0.8614
  153SAPE   H5R16963   2.116   0.904   6.839 -0.7791  0.3619 -0.9141
  153SAPE   C2616964   2.156   0.964   7.040  0.4556  0.5353  0.8123
  153SAPE   H6R16965   2.182   0.859   7.059  0.4561  0.0274 -1.6545
  153SAPE   C2716966   2.160   1.073   7.141  0.2730 -0.3467 -0.3126
  153SAPE   H7R16967   2.157   1.181   7.115  0.7757 -0.2532  0.0081
  153SAPE   H7S16968   2.254   1.062   7.199  0.0025  1.7652  0.6534
  153SAPE   C2816969   2.032   1.073   7.219 -0.1842 -0.2505 -0.0196
  153SAPE   H8R16970   1.951   1.117   7.159 -0.7992 -0.4384  0.6591
  153SAPE   C2916971   2.007   1.029   7.343 -0.1887  0.1645 -0.2685
  153SAPE   H9R16972   1.904   1.006   7.375  0.4856  0.9982  2.9139
  153SAPE  C21016973   2.111   0.967   7.434 -0.2288 -0.6405 -0.1952
  153SAPE  H10R16974   2.198   0.935   7.372  0.4264 -0.5979  0.6726
  153SAPE  H10S16975   2.069   0.877   7.483 -0.2257  0.3411  1.6998
  153SAPE  C21116976   2.161   1.066   7.537 -0.6387 -0.4883 -0.4340
  153SAPE  H11R16977   2.228   1.148   7.505 -1.2037  0.6258  1.1123
  153SAPE  C21216978   2.135   1.064   7.674 -1.0068 -1.2644 -0.2088
  153SAPE  H12R16979   2.182   1.140   7.738 -3.7045  0.7775 -0.5027
  153SAPE  C21316980   2.065   0.967   7.764  0.3077  0.0629  0.1494
  153SAPE  H13R16981   2.142   0.918   7.827  1.4275 -0.6327 -1.6915
  153SAPE  H13S16982   2.022   0.881   7.708 -1.3989  0.9903 -0.0503
  153SAPE  C21416983   1.953   1.043   7.832  0.2429 -0.1382 -1.0377
  153SAPE  H14R16984   1.900   1.120   7.775  0.6480  0.6319 -0.3898
  153SAPE  C21516985   1.904   1.028   7.954  0.6478  0.5895 -0.5182
  153SAPE  H15R16986   1.834   1.105   7.991  2.2031  1.0857  1.6191
  153SAPE  C21616987   1.957   0.917   8.051 -0.0064  0.2513 -0.5429
  153SAPE  H16R16988   2.065   0.932   8.072  0.2177  0.5642 -1.8117
  153SAPE  H16S16989   1.942   0.817   8.003 -2.5570 -0.3194  1.2725
  153SAPE  C21716990   1.887   0.916   8.181 -0.3990  0.5314  0.1992
  153SAPE  H17R16991   1.922   0.831   8.244  0.0354 -0.7464 -1.6725
  153SAPE  H17S16992   1.780   0.891   8.163 -0.4509  0.2105  0.9009
  153SAPE  C21816993   1.901   1.040   8.271 -0.8488 -0.5651 -0.2538
  153SAPE  H18R16994   1.861   1.133   8.223  1.6785 -0.2287 -1.9147
  153SAPE  H18S16995   2.008   1.068   8.285 -0.5113 -2.7561  2.2861
  153SAPE  C21916996   1.851   1.007   8.413  0.5496  0.0971  0.4864
  153SAPE  H19R16997   1.908   0.916   8.443 -0.9585 -0.6791  1.0623
  153SAPE  H19S16998   1.744   0.979   8.414  0.7278 -0.5881  1.3331
  153SAPE  C22016999   1.874   1.113   8.517 -0.0821 -0.3537 -0.0126
  153SAPE  H20R17000   1.844   1.087   8.621  0.1087  1.5780  0.5580
  153SAPE  H20S17001   1.806   1.200   8.506 -0.2327 -0.1510  2.0535
  153SAPE  H20T17002   1.980   1.147   8.522 -0.1310 -0.0166 -1.1434
  153SAPE   C3317003   1.972   1.636   6.710  0.2976 -0.2215  0.6395
  153SAPE   H3X17004   1.884   1.697   6.741  0.5067  0.6964 -0.5241
  153SAPE   H3Y17005   2.062   1.701   6.702  1.8048 -2.2592  0.1324
  153SAPE   C3417006   1.999   1.527   6.813  0.4778  0.2275 -0.2834
  153SAPE   H4X17007   2.082   1.461   6.778  0.2865 -1.0038  1.4480
  153SAPE   H4Y17008   1.914   1.455   6.818 -0.1734  1.0462  0.7662
  153SAPE   C3517009   2.031   1.594   6.946 -0.4427  0.0386 -0.0175
  153SAPE   H5X17010   1.938   1.645   6.978  0.4600  1.1035  1.0157
  153SAPE   H5Y17011   2.112   1.668   6.927  0.8596 -1.3299  0.0411
  153SAPE   C3617012   2.068   1.494   7.057 -0.4083  0.5450  0.7604
  153SAPE   H6X17013   2.167   1.451   7.033  0.2589  0.6279  3.0820
  153SAPE   H6Y17014   1.996   1.410   7.072 -1.5204  1.1662 -0.7982
  153SAPE   C3717015   2.061   1.564   7.191  0.1232  0.5586  0.2053
  153SAPE   H7X17016   1.970   1.626   7.205 -1.5754 -1.4031 -1.5680
  153SAPE   H7Y17017   2.144   1.639   7.186 -0.0350  0.6634 -1.7761
  153SAPE   C3817018   2.083   1.467   7.301  0.2734  0.3106 -0.3793
  153SAPE   H8X17019   2.173   1.403   7.291  0.5339  0.5992  0.0911
  153SAPE   H8Y17020   2.000   1.394   7.308  1.7973 -1.3333  1.8666
  153SAPE   C3917021   2.085   1.533   7.440 -0.3534  0.5870  0.2330
  153SAPE   H9X17022   1.988   1.584   7.457 -1.5076 -1.6195  0.5851
  153SAPE   H9Y17023   2.157   1.618   7.430 -1.6951  1.8723  1.2265
  153SAPE  C31017024   2.124   1.454   7.565 -0.1296 -1.2395  0.8902
  153SAPE  H10X17025   2.226   1.417   7.540 -0.2573 -0.5448 -0.7573
  153SAPE  H10Y17026   2.048   1.376   7.587  1.1651 -2.7766  0.1767
  153SAPE  C31117027   2.124   1.544   7.695  0.5048  0.7197  0.0013
  153SAPE  H11X17028   2.020   1.582   7.705  0.2021 -0.2909  0.8348
  153SAPE  H11Y17029   2.182   1.636   7.672 -0.5588  1.2550 -0.6495
  153SAPE  C31217030   2.154   1.467   7.826  0.8346  0.7994  0.0636
  153SAPE  H12X17031   2.112   1.366   7.807  0.7563  1.2648 -2.6568
  153SAPE  H12Y17032   2.093   1.504   7.911  0.1556 -2.4140  1.1013
  153SAPE  C31317033   2.299   1.451   7.861 -0.4943  0.2758  0.0163
  153SAPE  H13X17034   2.350   1.548   7.880 -0.5821  0.2808  0.2282
  153SAPE  H13Y17035   2.352   1.409   7.773  0.4166  1.0612  0.1738
  153SAPE  C31417036   2.338   1.364   7.982  0.8029 -0.4532  0.0062
  153SAPE  H14X17037   2.449   1.368   7.983  0.8627 -0.4466 -2.0897
  153SAPE  H14Y17038   2.308   1.261   7.952  0.9951 -0.9341  1.3847
  153SAPE  C31517039   2.294   1.404   8.118  0.6528 -0.3823 -0.2691
  153SAPE  H15X17040   2.184   1.388   8.113  0.5623  0.5150 -2.1779
  153SAPE  H15Y17041   2.301   1.514   8.124 -0.0715 -0.3816  0.8073
  153SAPE  C31617042   2.351   1.318   8.230 -0.2555  0.1395 -0.1110
  153SAPE  H16X17043   2.315   1.357   8.327  0.7123 -0.0285  0.3303
  153SAPE  H16Y17044   2.460   1.323   8.250 -0.6596  0.1694  2.4685
  153SAPE  C31717045   2.317   1.172   8.209 -0.3777  0.0327 -0.1591
  153SAPE  H17X17046   2.367   1.115   8.129  2.8504  1.6717  0.5185
  153SAPE  H17Y17047   2.209   1.181   8.184 -0.9941 -1.1353  1.8390
  153SAPE  C31817048   2.342   1.098   8.346  0.2210  0.3290 -0.7716
  153SAPE  H18X17049   2.332   0.989   8.327  1.1748  0.0329  0.2699
  153SAPE  H18Y17050   2.261   1.125   8.417  1.3942  1.7690  0.0811
  153SAPE  H18Z17051   2.440   1.116   8.397 -0.2281 -0.9116  0.6043
  154SAPE     N17052   1.497   1.162   6.277 -0.3264 -0.1814 -0.6545
  154SAPE   HN117053   1.469   1.095   6.203 -1.8660 -0.2547 -0.0416
  154SAPE   HN217054   1.498   1.255   6.231  0.2047  0.3244  0.3311
  154SAPE   HN317055   1.596   1.148   6.307  0.2915  0.3699 -2.3103
  154SAPE   C1217056   1.399   1.173   6.392 -0.2250 -0.0100 -0.7090
  154SAPE  H12A17057   1.308   1.212   6.341 -0.0765 -1.3724 -2.0761
  154SAPE  H12B17058   1.436   1.246   6.467 -1.0806  0.4962 -0.7607
  154SAPE   C1117059   1.375   1.034   6.459  0.1157  0.3303 -0.3528
  154SAPE  H11A17060   1.295   1.046   6.535 -0.5026 -0.4360 -0.8620
  154SAPE  H11B17061   1.465   0.995   6.512 -0.9699 -0.3950  1.0427
  154SAPE     P17062   1.172   0.931   6.333 -0.0998  0.1315 -0.3766
  154SAPE   O1317063   1.118   1.063   6.310  0.2085 -0.0753 -0.2050
  154SAPE   O1417064   1.158   0.834   6.226  0.5331 -0.0292 -0.3455
  154SAPE   O1217065   1.329   0.939   6.364  0.3313 -0.2584  0.4599
  154SAPE   O1117066   1.120   0.867   6.468 -0.4004  0.0022  0.4556
  154SAPE    C117067   0.992   0.901   6.528 -0.4582 -0.2062 -0.2487
  154SAPE    HA17068   0.941   0.983   6.473 -0.5548  0.8640  1.3898
  154SAPE    HB17069   0.933   0.806   6.531  0.4005 -0.7855 -1.1576
  154SAPE    C217070   1.007   0.950   6.670  0.3824  0.1631  0.8151
  154SAPE    HS17071   1.097   1.015   6.671  0.6716 -0.1848 -0.5897
  154SAPE   O2117072   1.010   0.829   6.755  0.5115  0.0732 -0.2110
  154SAPE   C2117073   1.117   0.812   6.839 -0.4270 -0.7934  0.0137
  154SAPE   O2217074   1.209   0.891   6.841 -0.0854  0.4052 -0.1571
  154SAPE   C2217075   1.102   0.689   6.912 -0.4347  0.2560 -0.6020
  154SAPE   H2R17076   0.998   0.688   6.950 -0.1188 -0.6108  0.2883
  154SAPE   H2S17077   1.116   0.600   6.847 -0.5785 -0.4884  0.3679
  154SAPE    C317078   0.883   1.040   6.719 -0.4042  0.8724  0.3304
  154SAPE    HX17079   0.796   0.971   6.731  1.0188 -1.9506 -3.5735
  154SAPE    HY17080   0.868   1.111   6.635 -0.1123  0.5392 -0.0091
  154SAPE   O3117081   0.907   1.107   6.845 -0.4340  0.1083 -0.4307
  154SAPE   C3117082   0.978   1.216   6.838  0.3267 -0.6867  0.3521
  154SAPE   O3217083   1.051   1.256   6.748 -0.1193 -0.1464 -0.3042
  154SAPE   C3217084   0.941   1.294   6.970 -1.4199  0.5298  0.0202
  154SAPE   H2X17085   0.852   1.246   7.016 -1.2891 -0.4074 -0.6740
  154SAPE   H2Y17086   0.896   1.389   6.935 -0.7220 -0.1229 -2.9162
  154SAPE   C2317087   1.207   0.681   7.024  0.0042  0.7365 -0.4972
  154SAPE   H3R17088   1.218   0.780   7.073 -0.0911 -0.8153  2.9183
  154SAPE   H3S17089   1.306   0.672   6.974 -0.6947 -1.0778 -1.6637
  154SAPE   C2417090   1.164   0.571   7.127 -0.3530  0.4043  0.0696
  154SAPE   H4R17091   1.183   0.469   7.087 -1.8532 -0.9637  2.5801
  154SAPE   H4S17092   1.057   0.575   7.155  0.0576  3.0133  1.6907
  154SAPE   C2517093   1.250   0.579   7.252  0.4586 -0.1822  0.8741
  154SAPE   H5R17094   1.355   0.550   7.238  0.3903 -0.3719  0.7507
  154SAPE   C2617095   1.207   0.619   7.373 -0.3376 -0.0421 -0.2298
  154SAPE   H6R17096   1.276   0.601   7.456 -0.2353 -2.4022 -0.7648
  154SAPE   C2717097   1.076   0.673   7.426 -0.3002  0.2528 -0.3236
  154SAPE   H7R17098   1.025   0.727   7.343  2.3373  1.8168 -1.0252
  154SAPE   H7S17099   1.090   0.748   7.506 -0.2706 -2.0744  1.9678
  154SAPE   C2817100   0.994   0.548   7.473 -0.2016 -0.3127  0.1661
  154SAPE   H8R17101   0.923   0.508   7.399  0.3662  0.8636 -1.0619
  154SAPE   C2917102   0.989   0.497   7.595  0.9368 -0.3533  0.0350
  154SAPE   H9R17103   0.913   0.420   7.611 -1.0788  1.2616 -1.2066
  154SAPE  C21017104   1.077   0.553   7.705  0.3967 -0.7756  1.4995
  154SAPE  H10R17105   1.063   0.663   7.710 -0.8458 -0.7774 -0.8171
  154SAPE  H10S17106   1.179   0.538   7.662 -0.2725 -0.7859 -0.1229
  154SAPE  C21117107   1.050   0.491   7.839  0.4763 -0.1051  0.0650
  154SAPE  H11R17108   1.119   0.410   7.865  2.2080  1.3670  0.2153
  154SAPE  C21217109   0.971   0.538   7.938  0.8665 -0.1799  0.1546
  154SAPE  H12R17110   0.958   0.470   8.024  1.2455 -0.4214  0.0231
  154SAPE  C21317111   0.879   0.657   7.926  0.6181 -0.3707  0.3562
  154SAPE  H13R17112   0.773   0.626   7.923 -0.6181  3.0769  2.4840
  154SAPE  H13S17113   0.904   0.712   7.833 -0.0436  1.5289  1.2346
  154SAPE  C21417114   0.912   0.747   8.042  0.2260 -0.2068 -0.9706
  154SAPE  H14R17115   1.019   0.775   8.050 -0.0509  0.3136  1.8460
  154SAPE  C21517116   0.833   0.776   8.147  0.5141 -0.0091  0.0263
  154SAPE  H15R17117   0.866   0.840   8.230 -2.0756  0.8325  0.4933
  154SAPE  C21617118   0.692   0.727   8.183  0.3731  1.3580  0.6825
  154SAPE  H16R17119   0.630   0.678   8.104  0.3451  1.6647  0.5129
  154SAPE  H16S17120   0.625   0.813   8.204 -4.0645 -1.8073  0.8042
  154SAPE  C21717121   0.710   0.632   8.308 -0.0679  0.4697 -0.4415
  154SAPE  H17R17122   0.747   0.691   8.395 -2.4028  0.7429  0.4316
  154SAPE  H17S17123   0.777   0.546   8.285 -1.6185 -0.5432 -1.3858
  154SAPE  C21817124   0.572   0.561   8.345  0.0688  0.1562  0.0134
  154SAPE  H18R17125   0.514   0.549   8.251  0.7650 -1.0316 -0.2848
  154SAPE  H18S17126   0.515   0.629   8.413  2.7282  2.2314  0.3473
  154SAPE  C21917127   0.593   0.427   8.417  0.3474  0.1220 -0.1909
  154SAPE  H19R17128   0.665   0.443   8.500 -2.4950 -1.5336  2.8468
  154SAPE  H19S17129   0.639   0.343   8.360 -1.6585 -2.5735  1.8629
  154SAPE  C22017130   0.459   0.367   8.480 -0.4063 -0.3287  0.4386
  154SAPE  H20R17131   0.392   0.355   8.393  0.9879 -1.2811 -0.5495
  154SAPE  H20S17132   0.414   0.434   8.556 -0.1352 -0.1189  0.4169
  154SAPE  H20T17133   0.475   0.266   8.523  0.8408  0.0748  0.9657
  154SAPE   C3317134   1.053   1.294   7.076  0.7091 -0.1663 -0.2463
  154SAPE   H3X17135   1.123   1.379   7.060 -0.7293  0.9765 -0.6907
  154SAPE   H3Y17136   1.110   1.199   7.072 -2.3231 -2.1476  0.1687
  154SAPE   C3417137   0.993   1.299   7.217 -0.8355 -0.3468 -0.0878
  154SAPE   H4X17138   0.903   1.234   7.222 -0.1441 -1.2568  1.6888
  154SAPE   H4Y17139   0.968   1.406   7.234  0.2787  0.2064 -1.6604
  154SAPE   C3517140   1.098   1.247   7.322  0.1456  0.0469 -0.0786
  154SAPE   H5X17141   1.078   1.298   7.418 -1.0921 -1.1240  0.3127
  154SAPE   H5Y17142   1.203   1.260   7.286  0.2526 -2.0053 -0.6457
  154SAPE   C3617143   1.080   1.096   7.325 -0.3578  0.2028  0.5530
  154SAPE   H6X17144   1.165   1.048   7.380 -1.0772 -0.1728  1.3568
  154SAPE   H6Y17145   1.081   1.048   7.224 -2.9903  0.5749  0.2884
  154SAPE   C3717146   0.970   1.039   7.406  0.0288 -0.7407 -0.5421
  154SAPE   H7X17147   0.988   0.932   7.428 -2.5985 -1.3689 -1.1506
  154SAPE   H7Y17148   0.876   1.055   7.350  0.7411  1.1359 -1.2980
  154SAPE   C3817149   0.950   1.104   7.552 -0.8680  0.8716  0.1527
  154SAPE   H8X17150   0.892   1.195   7.526  0.4828  1.7352  0.0767
  154SAPE   H8Y17151   1.045   1.141   7.595 -1.4437  2.0864  0.4226
  154SAPE   C3917152   0.864   1.010   7.643  0.5974 -0.1854  0.3695
  154SAPE   H9X17153   0.933   0.957   7.712  0.0997 -1.4763 -0.0957
  154SAPE   H9Y17154   0.805   0.937   7.584 -1.4867  1.3317  0.4694
  154SAPE  C31017155   0.762   1.093   7.725 -0.0229 -0.0602  0.5051
  154SAPE  H10X17156   0.695   1.156   7.663  1.0253  2.2401  1.5424
  154SAPE  H10Y17157   0.818   1.176   7.775 -0.6208 -0.5281  1.9972
  154SAPE  C31117158   0.687   0.998   7.823  0.1821 -0.0958 -0.6155
  154SAPE  H11X17159   0.751   0.932   7.885  0.8388  1.5107  0.4728
  154SAPE  H11Y17160   0.614   0.934   7.769 -0.3197 -0.4558  0.4653
  154SAPE  C31217161   0.616   1.073   7.945 -0.7042  0.2754 -0.0392
  154SAPE  H12X17162   0.559   0.998   8.004 -0.8107 -0.5853 -1.2069
  154SAPE  H12Y17163   0.543   1.141   7.895 -2.3088 -1.2515  0.1192
  154SAPE  C31317164   0.714   1.152   8.040 -1.1761  0.7620 -0.2961
  154SAPE  H13X17165   0.772   1.220   7.973  0.7252  0.4144  0.9209
  154SAPE  H13Y17166   0.788   1.080   8.081 -1.9128  1.6858  2.9097
  154SAPE  C31417167   0.649   1.200   8.175  0.1515  0.4383  0.0632
  154SAPE  H14X17168   0.579   1.123   8.213 -1.6354  2.1512  0.4305
  154SAPE  H14Y17169   0.590   1.292   8.154 -0.4686  0.3974  1.4489
  154SAPE  C31517170   0.752   1.238   8.284  0.0223 -0.2248 -0.0021
  154SAPE  H15X17171   0.838   1.297   8.246 -0.5531  0.9487  0.4605
  154SAPE  H15Y17172   0.780   1.151   8.348 -1.6733 -0.8409 -0.0519
  154SAPE  C31617173   0.690   1.351   8.372 -0.0915 -1.3950 -0.1087
  154SAPE  H16X17174   0.592   1.311   8.408 -0.4691 -0.1111  0.3620
  154SAPE  H16Y17175   0.657   1.439   8.312 -0.5752 -1.0752  0.5949
  154SAPE  C31717176   0.774   1.390   8.492 -0.5050  0.2364  0.1932
  154SAPE  H17X17177   0.736   1.482   8.540 -2.3556 -0.4210  0.0731
  154SAPE  H17Y17178   0.875   1.417   8.454 -0.7969 -0.2906 -0.9995
  154SAPE  C31817179   0.781   1.279   8.600  0.0259 -0.1598  0.0038
  154SAPE  H18X17180   0.839   1.317   8.686  0.4671 -0.2751 -0.2387
  154SAPE  H18Y17181   0.823   1.184   8.561  0.2859  0.6710 -1.8613
  154SAPE  H18Z17182   0.682   1.248   8.640  1.4965 -3.8980  1.1187
  155SAPE     N17183   0.407   1.158   6.363  0.5194  0.0755 -0.2555
  155SAPE   HN117184   0.393   1.059   6.334 -2.4347  0.2051  0.3829
  155SAPE   HN217185   0.479   1.203   6.303  1.4681  0.0709  0.8426
  155SAPE   HN317186   0.444   1.164   6.460 -0.3702 -1.0069  0.1696
  155SAPE   C1217187   0.276   1.218   6.368  0.1160 -0.1248  0.1144
  155SAPE  H12A17188   0.261   1.255   6.264  3.3512 -1.4862 -0.9916
  155SAPE  H12B17189   0.283   1.294   6.448  3.2525  0.0154 -0.1585
  155SAPE   C1117190   0.177   1.112   6.414  1.2435  0.3992 -0.6254
  155SAPE  H11A17191   0.087   1.164   6.454  2.0388  0.0449  1.7577
  155SAPE  H11B17192   0.210   1.053   6.502 -0.9183  0.3183  0.1996
  155SAPE     P17193   0.212   0.893   6.272  0.2263 -0.2404  0.2322
  155SAPE   O1317194   0.150   0.830   6.154 -0.1617  0.1721  0.1884
  155SAPE   O1417195   0.354   0.925   6.255 -0.8115 -0.3544 -0.5665
  155SAPE   O1217196   0.136   1.025   6.311 -0.4337  0.8201  0.3515
  155SAPE   O1117197   0.191   0.807   6.406  0.6884 -0.0761 -0.4513
  155SAPE    C117198   0.053   0.779   6.434  0.1734  0.0671 -0.2933
  155SAPE    HA17199  -0.024   0.831   6.374 -0.0147  0.4739  0.2905
  155SAPE    HB17200   0.028   0.671   6.434  0.2375 -0.0106  1.9608
  155SAPE    C217201   0.018   0.817   6.572  0.7996  0.3310 -0.0333
  155SAPE    HS17202   0.077   0.906   6.604  1.4597 -0.9774  2.6860
  155SAPE   O2117203   0.047   0.705   6.652 -0.2666 -0.5378  0.1760
  155SAPE   C2117204   0.122   0.724   6.753  0.4414 -1.0881 -0.0531
  155SAPE   O2217205   0.173   0.828   6.796  0.1057 -0.0597  0.1329
  155SAPE   C2217206   0.134   0.588   6.825 -0.2506  0.1113 -0.0830
  155SAPE   H2R17207   0.137   0.512   6.744 -0.1601 -0.7395  0.6956
  155SAPE   H2S17208   0.238   0.590   6.863  0.7372  0.8351 -2.6317
  155SAPE    C317209  -0.136   0.854   6.592  0.2230 -0.2830 -0.8139
  155SAPE    HX17210  -0.194   0.759   6.584 -0.2978  0.1971 -3.5551
  155SAPE    HY17211  -0.163   0.914   6.503  2.0400 -0.5409 -1.5692
  155SAPE   O3117212  -0.159   0.918   6.724  0.1098  0.2976 -0.0566
  155SAPE   C3117213  -0.167   1.041   6.737  0.4130  0.6791 -0.2719
  155SAPE   O3217214  -0.167   1.128   6.653  0.7974 -0.2865 -0.1485
  155SAPE   C3217215  -0.176   1.072   6.888 -0.0409  0.3770  0.0734
  155SAPE   H2X17216  -0.170   0.979   6.949  1.3955 -0.4665 -1.2782
  155SAPE   H2Y17217  -0.282   1.104   6.899  0.0185  0.7800 -0.5015
  155SAPE   C2317218   0.026   0.560   6.928 -0.2278  0.2975  0.0493
  155SAPE   H3R17219  -0.073   0.561   6.878 -0.1815 -2.3776 -0.2393
  155SAPE   H3S17220   0.033   0.635   7.009  4.1576  0.2825 -0.0729
  155SAPE   C2417221   0.041   0.416   6.984 -0.0611 -0.2215  0.4758
  155SAPE   H4R17222   0.033   0.354   6.892 -1.3584  0.4183  0.1350
  155SAPE   H4S17223  -0.045   0.397   7.051 -0.1725  1.2350  0.7663
  155SAPE   C2517224   0.171   0.403   7.064  0.4738  1.2396  0.0444
  155SAPE   H5R17225   0.258   0.429   7.001  0.3925  2.5536  0.4476
  155SAPE   C2617226   0.181   0.381   7.196 -0.0283 -0.8751  0.4474
  155SAPE   H6R17227   0.286   0.358   7.217 -0.1180 -0.3324  1.5926
  155SAPE   C2717228   0.076   0.358   7.304  0.2059  0.2813 -0.9122
  155SAPE   H7R17229   0.053   0.250   7.316  0.2968  0.5265  2.5042
  155SAPE   H7S17230  -0.019   0.410   7.279 -0.5152 -0.3740  0.3532
  155SAPE   C2817231   0.110   0.417   7.439 -0.0738  0.3025  0.0515
  155SAPE   H8R17232   0.189   0.493   7.448 -2.1996  2.3518  2.8657
  155SAPE   C2917233   0.050   0.389   7.554  0.0199  0.4315 -0.7139
  155SAPE   H9R17234   0.089   0.435   7.646 -2.3309  0.3618  0.4085
  155SAPE  C21017235  -0.071   0.302   7.579 -1.1506 -0.0599 -0.0335
  155SAPE  H10R17236  -0.072   0.253   7.679 -1.4771 -0.6398 -0.3194
  155SAPE  H10S17237  -0.066   0.221   7.504  1.2729 -1.5051  1.5376
  155SAPE  C21117238  -0.191   0.387   7.547 -0.3445  0.5603  0.2681
  155SAPE  H11R17239  -0.180   0.456   7.462 -0.8286 -1.2234 -1.3002
  155SAPE  C21217240  -0.306   0.399   7.617  0.0259 -0.5823  0.2705
  155SAPE  H12R17241  -0.387   0.459   7.575  0.5523 -0.3627 -0.4446
  155SAPE  C21317242  -0.340   0.328   7.747 -0.5439  0.4402  0.4456
  155SAPE  H13R17243  -0.307   0.223   7.732  1.5028  0.9567  0.9149
  155SAPE  H13S17244  -0.449   0.332   7.765 -0.9440  1.4897 -1.8604
  155SAPE  C21417245  -0.273   0.400   7.859 -0.5689 -0.1561 -0.4979
  155SAPE  H14R17246  -0.209   0.485   7.831 -0.7419 -0.1690 -0.9434
  155SAPE  C21517247  -0.282   0.371   7.986 -0.1533  0.1762 -0.0640
  155SAPE  H15R17248  -0.237   0.446   8.052  0.3287  0.1979 -0.4168
  155SAPE  C21617249  -0.358   0.254   8.043  0.4726 -0.4014 -0.3093
  155SAPE  H16R17250  -0.290   0.167   8.055  0.4176 -0.4019 -0.0036
  155SAPE  H16S17251  -0.432   0.224   7.966 -0.0767 -0.1416  0.1151
  155SAPE  C21717252  -0.454   0.262   8.166  0.1348  0.7000 -0.0263
  155SAPE  H17R17253  -0.504   0.163   8.167  0.5929  0.4690  0.7051
  155SAPE  H17S17254  -0.538   0.331   8.144 -1.6670 -1.5353 -0.5330
  155SAPE  C21817255  -0.392   0.300   8.298 -0.2626 -0.0855  0.4328
  155SAPE  H18R17256  -0.464   0.275   8.379 -1.7670 -0.4748 -0.9680
  155SAPE  H18S17257  -0.377   0.409   8.313 -2.7224  0.6548 -1.7118
  155SAPE  C21917258  -0.257   0.226   8.330 -0.1123 -0.5836 -0.8261
  155SAPE  H19R17259  -0.189   0.272   8.255 -0.7819 -0.3275 -1.2850
  155SAPE  H19S17260  -0.264   0.116   8.316 -2.4722 -0.4998 -0.6493
  155SAPE  C22017261  -0.196   0.246   8.473  0.3000 -0.0576  0.5003
  155SAPE  H20R17262  -0.250   0.197   8.557  2.1598  1.2824  2.5759
  155SAPE  H20S17263  -0.203   0.356   8.484 -1.4164  0.1584 -1.9114
  155SAPE  H20T17264  -0.093   0.206   8.482  0.5968  0.8341  1.1627
  155SAPE   C3317265  -0.073   1.167   6.946  0.1464  0.0339 -0.3402
  155SAPE   H3X17266  -0.112   1.271   6.936 -2.4148 -0.6108  1.8307
  155SAPE   H3Y17267   0.019   1.157   6.885  0.0090 -0.0967 -0.5231
  155SAPE   C3417268  -0.043   1.128   7.095 -0.2759 -0.2841 -0.2404
  155SAPE   H4X17269   0.058   1.172   7.114 -0.7715  1.2008 -0.8986
  155SAPE   H4Y17270  -0.034   1.018   7.107 -0.7142 -0.4059 -0.9884
  155SAPE   C3517271  -0.142   1.176   7.204 -0.6070  0.5464 -0.0709
  155SAPE   H5X17272  -0.247   1.144   7.182 -0.2360 -0.5156 -0.3639
  155SAPE   H5Y17273  -0.143   1.287   7.198 -1.3893  0.8937  3.8288
  155SAPE   C3617274  -0.094   1.132   7.352  0.9864 -0.6002  0.5598
  155SAPE   H6X17275   0.016   1.139   7.359  1.0329  0.8829 -0.9638
  155SAPE   H6Y17276  -0.117   1.023   7.353  0.1141 -0.4542 -0.7974
  155SAPE   C3717277  -0.168   1.205   7.463 -0.4810 -0.0810 -0.2218
  155SAPE   H7X17278  -0.278   1.206   7.451 -0.2691 -0.5544 -2.8512
  155SAPE   H7Y17279  -0.113   1.301   7.470  1.0635 -1.0498  1.6934
  155SAPE   C3817280  -0.137   1.136   7.598  0.7616  0.5991 -0.5388
  155SAPE   H8X17281  -0.029   1.112   7.589  0.9942  0.6468  1.5530
  155SAPE   H8Y17282  -0.199   1.044   7.592 -0.1547  0.8183  3.1793
  155SAPE   C3917283  -0.167   1.219   7.727 -0.3507 -0.0842 -0.2404
  155SAPE   H9X17284  -0.269   1.263   7.724  0.3633  1.6617 -0.2183
  155SAPE   H9Y17285  -0.089   1.298   7.734  0.1638 -0.7031  2.1377
  155SAPE  C31017286  -0.155   1.126   7.846  0.0503 -0.1262  0.5112
  155SAPE  H10X17287  -0.056   1.074   7.845  0.0596 -0.1032  0.3456
  155SAPE  H10Y17288  -0.234   1.048   7.841  0.5662 -0.5943 -0.6460
  155SAPE  C31117289  -0.175   1.204   7.983  0.1564  0.2694 -0.2299
  155SAPE  H11X17290  -0.279   1.241   7.988  1.1231  2.9328  2.5754
  155SAPE  H11Y17291  -0.114   1.296   7.977  1.5990 -0.5634  0.9367
  155SAPE  C31217292  -0.138   1.135   8.115  1.1151 -0.2354  0.7204
  155SAPE  H12X17293  -0.032   1.103   8.113  0.6912 -2.0639  2.9613
  155SAPE  H12Y17294  -0.204   1.047   8.127  2.6059 -1.4912  0.0836
  155SAPE  C31317295  -0.169   1.221   8.238 -0.3062  0.2131 -0.0370
  155SAPE  H13X17296  -0.276   1.245   8.252 -0.2809  0.1245  0.3081
  155SAPE  H13Y17297  -0.117   1.319   8.239  0.6795 -0.2773 -0.8559
  155SAPE  C31417298  -0.121   1.149   8.371  0.0784 -0.4677  0.1363
  155SAPE  H14X17299  -0.013   1.125   8.361 -0.1388 -1.4556  0.0087
  155SAPE  H14Y17300  -0.173   1.051   8.374 -0.1217 -0.4150 -1.0307
  155SAPE  C31517301  -0.134   1.237   8.496 -0.5333  0.4415  0.1651
  155SAPE  H15X17302  -0.240   1.270   8.503 -0.6066  0.1969  0.2428
  155SAPE  H15Y17303  -0.072   1.326   8.473  0.9034 -0.4060  0.6416
  155SAPE  C31617304  -0.102   1.155   8.624  0.0454  0.2628 -0.2564
  155SAPE  H16X17305   0.001   1.114   8.619 -0.3344 -0.6105 -1.3038
  155SAPE  H16Y17306  -0.179   1.075   8.634 -1.3081  1.3860 -1.1927
  155SAPE  C31717307  -0.118   1.243   8.750 -0.1901 -0.3316 -0.4216
  155SAPE  H17X17308  -0.142   1.180   8.838  0.4620 -1.4732 -1.0324
  155SAPE  H17Y17309  -0.201   1.315   8.735  0.7294  0.9570  0.4680
  155SAPE  C31817310   0.012   1.318   8.777  0.5352 -0.2306 -0.3114
  155SAPE  H18X17311   0.016   1.392   8.694  0.4289 -0.0431 -0.1520
  155SAPE  H18Y17312   0.099   1.249   8.777  0.4017 -0.3986 -0.1205
  155SAPE  H18Z17313  -0.000   1.366   8.877 -0.2520 -4.1326  1.6671
  156SAPE     N17314   4.586   2.735   6.245 -0.4030  0.6070  0.4664
  156SAPE   HN117315   4.534   2.688   6.322 -0.9400  1.4805  0.6603
  156SAPE   HN217316   4.630   2.658   6.190 -1.2075  1.5537 -1.6407
  156SAPE   HN317317   4.668   2.785   6.285  0.5047 -0.1351 -0.4055
  156SAPE   C1217318   4.497   2.823   6.169  0.7310 -0.0024 -0.9237
  156SAPE  H12A17319   4.449   2.776   6.081 -1.3381  2.4970 -1.2698
  156SAPE  H12B17320   4.557   2.901   6.117 -0.1969 -0.1357 -2.2496
  156SAPE   C1117321   4.394   2.878   6.265 -0.0623 -0.3003 -0.5554
  156SAPE  H11A17322   4.344   2.965   6.217  0.4950  1.3955  1.7746
  156SAPE  H11B17323   4.447   2.913   6.356  0.5816  0.9901 -1.3914
  156SAPE     P17324   4.275   2.730   6.443 -0.4288 -0.0860 -0.1598
  156SAPE   O1317325   4.246   2.840   6.532  0.1162  0.3663 -0.6606
  156SAPE   O1417326   4.173   2.623   6.442 -0.1761  0.2700  0.4172
  156SAPE   O1217327   4.295   2.782   6.295  0.5433  0.2875 -0.0910
  156SAPE   O1117328   4.417   2.667   6.473  0.5117  0.6064  0.8886
  156SAPE    C117329   4.429   2.525   6.499  0.0559 -0.1273  0.0413
  156SAPE    HA17330   4.370   2.460   6.430  0.4366 -0.6048  0.1667
  156SAPE    HB17331   4.534   2.503   6.472  0.2924 -0.2152  1.0209
  156SAPE    C217332   4.386   2.486   6.635 -0.9562 -0.6311 -0.9353
  156SAPE    HS17333   4.275   2.487   6.636 -0.9815  0.3531 -2.3909
  156SAPE   O2117334   4.450   2.579   6.735  0.7931  0.0963  0.0619
  156SAPE   C2117335   4.380   2.585   6.845 -0.1461 -0.4323  0.1831
  156SAPE   O2217336   4.278   2.521   6.866 -0.1076  0.3992 -0.4770
  156SAPE   C2217337   4.456   2.673   6.950  0.3489 -0.1319  0.8023
  156SAPE   H2R17338   4.564   2.649   6.940 -0.0710 -1.9645  0.3060
  156SAPE   H2S17339   4.431   2.780   6.935  0.6186 -0.0423  0.9675
  156SAPE    C317340   4.442   2.345   6.666 -0.4667 -0.3032  0.0345
  156SAPE    HX17341   4.553   2.343   6.660 -0.4334 -3.1531 -0.1191
  156SAPE    HY17342   4.390   2.280   6.591 -3.5018  0.7525  1.0855
  156SAPE   O3117343   4.410   2.295   6.795  0.3105 -0.5150 -0.3450
  156SAPE   C3117344   4.301   2.222   6.812  0.5213 -0.4118 -0.6024
  156SAPE   O3217345   4.231   2.183   6.727  0.2783  0.2784 -0.5016
  156SAPE   C3217346   4.267   2.217   6.963 -0.4423 -0.3771  0.0813
  156SAPE   H2X17347   4.234   2.314   7.007  0.2629 -0.8558  1.7081
  156SAPE   H2Y17348   4.368   2.201   7.006  0.8033  1.1548 -2.0570
  156SAPE   C2317349   4.404   2.654   7.096 -0.8690 -0.6783  0.2562
  156SAPE   H3R17350   4.426   2.549   7.123  1.6799 -0.2430  0.0496
  156SAPE   H3S17351   4.293   2.654   7.105 -0.7495 -1.2356  1.9294
  156SAPE   C2417352   4.457   2.756   7.204 -0.0127  0.8002  0.0155
  156SAPE   H4R17353   4.565   2.770   7.183  0.2197 -0.5966  0.1908
  156SAPE   H4S17354   4.458   2.700   7.300  1.5620  1.6056  0.5115
  156SAPE   C2517355   4.384   2.887   7.215  0.5056  0.4362  0.1788
  156SAPE   H5R17356   4.350   2.933   7.121  1.7662 -1.3744 -1.2477
  156SAPE   C2617357   4.335   2.933   7.329 -0.1546  0.1293 -0.1589
  156SAPE   H6R17358   4.270   3.021   7.329  0.0313  0.2976 -1.6430
  156SAPE   C2717359   4.354   2.875   7.469  0.0546 -0.0912 -0.9476
  156SAPE   H7R17360   4.463   2.881   7.488  0.0544  0.8283 -1.1811
  156SAPE   H7S17361   4.322   2.768   7.468  0.7426 -0.3143 -2.2929
  156SAPE   C2817362   4.290   2.953   7.583 -0.7201 -0.1664  0.5789
  156SAPE   H8R17363   4.223   3.034   7.550  0.1751  0.8444  1.1860
  156SAPE   C2917364   4.297   2.919   7.713  0.8836  0.0409 -0.6153
  156SAPE   H9R17365   4.261   2.991   7.788  3.0964 -0.8808  1.4439
  156SAPE  C21017366   4.374   2.806   7.775  0.6119  0.2421 -0.6682
  156SAPE  H10R17367   4.439   2.837   7.859 -1.0773 -0.6493  1.0513
  156SAPE  H10S17368   4.428   2.752   7.695 -0.4460  0.6972 -1.7329
  156SAPE  C21117369   4.256   2.718   7.831  0.0914 -0.4583 -0.3191
  156SAPE  H11R17370   4.190   2.689   7.748  1.0260  0.7221 -1.5130
  156SAPE  C21217371   4.230   2.680   7.953  0.2674 -0.2818 -0.1265
  156SAPE  H12R17372   4.143   2.613   7.958 -0.2045  0.0804 -2.4583
  156SAPE  C21317373   4.301   2.721   8.077 -0.0210 -0.6340 -0.4841
  156SAPE  H13R17374   4.237   2.800   8.121 -0.1396 -1.8430  1.6816
  156SAPE  H13S17375   4.403   2.756   8.050  0.5030 -3.6915 -3.0882
  156SAPE  C21417376   4.326   2.603   8.169  0.6624 -0.4894 -1.0291
  156SAPE  H14R17377   4.339   2.501   8.129  1.9635  0.0352 -2.0134
  156SAPE  C21517378   4.321   2.625   8.305 -0.0457  0.1101  0.4371
  156SAPE  H15R17379   4.354   2.555   8.383 -0.5833 -1.3400 -0.5975
  156SAPE  C21617380   4.293   2.750   8.383 -0.1716 -0.5751  0.3355
  156SAPE  H16R17381   4.184   2.761   8.401 -0.4745 -1.8091 -0.6091
  156SAPE  H16S17382   4.315   2.837   8.318 -0.1239 -0.5265  0.4159
  156SAPE  C21717383   4.393   2.764   8.502  0.2747 -0.3460  0.9229
  156SAPE  H17R17384   4.496   2.772   8.462  0.4422 -1.0729  1.1987
  156SAPE  H17S17385   4.393   2.685   8.580 -3.6545  0.5284  2.0594
  156SAPE  C21817386   4.369   2.891   8.582  0.1077  0.0631 -0.8447
  156SAPE  H18R17387   4.332   2.971   8.514 -3.1247  0.7139  1.4500
  156SAPE  H18S17388   4.458   2.935   8.633 -0.3856  2.0093 -1.5791
  156SAPE  C21917389   4.264   2.873   8.694 -0.6088 -0.1399 -0.0909
  156SAPE  H19R17390   4.299   2.788   8.757  1.5889 -0.2854 -1.3964
  156SAPE  H19S17391   4.166   2.841   8.653 -0.6068 -2.3686  1.4491
  156SAPE  C22017392   4.235   2.995   8.786  0.2662  0.0518 -0.6924
  156SAPE  H20R17393   4.328   3.048   8.815 -0.5846  2.3515 -1.8686
  156SAPE  H20S17394   4.162   2.967   8.865  0.7194 -2.4332 -1.0801
  156SAPE  H20T17395   4.188   3.079   8.731  1.1299  1.4123  0.5575
  156SAPE   C3317396   4.164   2.109   6.994 -0.0240  0.1447 -0.6351
  156SAPE   H3X17397   4.197   2.009   6.958  0.1347 -0.2976  0.6478
  156SAPE   H3Y17398   4.061   2.128   6.958 -0.8826  0.1033  1.6276
  156SAPE   C3417399   4.154   2.107   7.149 -0.5605  0.1693  0.6242
  156SAPE   H4X17400   4.051   2.090   7.186 -1.4511  1.2671 -1.2671
  156SAPE   H4Y17401   4.188   2.208   7.180  2.4377 -0.5560  0.0590
  156SAPE   C3517402   4.243   2.003   7.221 -0.1485 -0.2820 -0.1450
  156SAPE   H5X17403   4.349   2.014   7.191 -0.4191 -0.2242 -1.1057
  156SAPE   H5Y17404   4.207   1.903   7.189  0.2530 -0.5037  0.0890
  156SAPE   C3617405   4.234   2.003   7.377 -0.2637  0.7874 -0.0434
  156SAPE   H6X17406   4.136   1.968   7.414 -0.5863 -0.9106 -2.3334
  156SAPE   H6Y17407   4.253   2.107   7.414 -0.3734  0.8374 -0.1289
  156SAPE   C3717408   4.342   1.908   7.428 -0.4391 -0.3393 -0.3750
  156SAPE   H7X17409   4.446   1.929   7.395  0.1009  1.6993  2.3162
  156SAPE   H7Y17410   4.305   1.807   7.400 -1.6493  0.3772 -1.4968
  156SAPE   C3817411   4.363   1.915   7.585 -0.0837 -1.1300  0.5585
  156SAPE   H8X17412   4.412   2.010   7.616 -1.5133 -0.6736  1.4799
  156SAPE   H8Y17413   4.429   1.832   7.618  0.3244 -0.8468  0.4610
  156SAPE   C3917414   4.228   1.905   7.656  0.4334  0.1480  0.0828
  156SAPE   H9X17415   4.158   1.836   7.605  1.3761 -1.5357  0.9892
  156SAPE   H9Y17416   4.179   2.005   7.652 -1.5868 -0.7207  1.6502
  156SAPE  C31017417   4.241   1.871   7.801  0.3461 -0.1666  0.1635
  156SAPE  H10X17418   4.146   1.885   7.857 -0.1816  1.9036 -1.1375
  156SAPE  H10Y17419   4.325   1.932   7.842  0.8495 -0.0705 -0.9671
  156SAPE  C31117420   4.275   1.726   7.810  0.0153 -0.6249  0.5438
  156SAPE  H11X17421   4.375   1.723   7.762 -0.9462 -0.6513 -1.5849
  156SAPE  H11Y17422   4.206   1.651   7.766 -0.3716  0.3659 -0.5740
  156SAPE  C31217423   4.280   1.676   7.956 -0.9150  0.9699  1.1212
  156SAPE  H12X17424   4.349   1.746   8.007 -0.2090  0.1923  1.2683
  156SAPE  H12Y17425   4.339   1.582   7.955 -0.3323  1.3279  1.5486
  156SAPE  C31317426   4.147   1.666   8.035 -0.5948  0.6422  0.5326
  156SAPE  H13X17427   4.074   1.612   7.970  0.3928 -1.0986  0.8098
  156SAPE  H13Y17428   4.096   1.764   8.034 -0.0299  0.9803 -2.0518
  156SAPE  C31417429   4.159   1.600   8.173 -0.2066 -0.0682 -0.1730
  156SAPE  H14X17430   4.189   1.493   8.165 -0.1556  0.0567 -2.3503
  156SAPE  H14Y17431   4.054   1.589   8.208  0.4190 -4.1601  0.9328
  156SAPE  C31517432   4.261   1.654   8.273 -0.3780  0.1211  0.2559
  156SAPE  H15X17433   4.354   1.700   8.232 -1.3590  1.7628 -0.2627
  156SAPE  H15Y17434   4.290   1.573   8.342  0.1887  0.2744  0.2016
  156SAPE  C31617435   4.190   1.768   8.339  0.2250 -0.2960 -0.4830
  156SAPE  H16X17436   4.083   1.747   8.362 -0.9019  1.9436 -3.0321
  156SAPE  H16Y17437   4.173   1.846   8.261 -0.3683  0.5832  0.5028
  156SAPE  C31717438   4.270   1.822   8.455 -0.5911  0.0685 -0.1303
  156SAPE  H17X17439   4.278   1.728   8.513 -0.2957  0.4153  0.4019
  156SAPE  H17Y17440   4.208   1.896   8.509 -0.6669  0.3711 -0.6247
  156SAPE  C31817441   4.407   1.880   8.410 -0.4313 -0.8562 -0.8582
  156SAPE  H18X17442   4.473   1.795   8.383 -0.9327 -0.9916 -1.7142
  156SAPE  H18Y17443   4.456   1.918   8.502 -0.7633 -1.1478 -0.5595
  156SAPE  H18Z17444   4.398   1.947   8.321 -1.1421 -0.3256 -0.3931
  157SAPE     N17445   1.406   5.711   6.136  0.0689  0.2009  0.6885
  157SAPE   HN117446   1.469   5.679   6.059  0.0465 -1.4304  1.3004
  157SAPE   HN217447   1.355   5.624   6.164  0.9010 -0.3910  0.4147
  157SAPE   HN317448   1.344   5.779   6.088  0.6157 -0.3477 -0.8733
  157SAPE   C1217449   1.473   5.754   6.252  0.3720 -0.0412 -0.7510
  157SAPE  H12A17450   1.572   5.797   6.227  0.3832 -0.1676 -0.9225
  157SAPE  H12B17451   1.489   5.666   6.318  0.0019  1.0791  0.9091
  157SAPE   C1117452   1.384   5.854   6.339  0.1551  0.0219  0.3253
  157SAPE  H11A17453   1.455   5.878   6.422 -1.6443 -1.8041  2.5356
  157SAPE  H11B17454   1.291   5.805   6.376 -0.6072  1.0773 -0.1353
  157SAPE     P17455   1.451   6.095   6.256  0.3867 -0.3930  0.3318
  157SAPE   O1317456   1.579   6.042   6.208  0.1719 -0.1596 -0.8246
  157SAPE   O1417457   1.397   6.204   6.178  0.6596 -0.5005 -0.2404
  157SAPE   O1217458   1.350   5.975   6.265  0.4848 -0.3061  0.5379
  157SAPE   O1117459   1.464   6.141   6.407  0.3898  0.3945 -0.4245
  157SAPE    C117460   1.341   6.154   6.478  0.0640 -0.3975 -0.3379
  157SAPE    HA17461   1.316   6.263   6.481  1.7509  0.0239 -0.2655
  157SAPE    HB17462   1.258   6.094   6.436  0.0229 -0.4785 -0.1440
  157SAPE    C217463   1.359   6.129   6.632  0.4430  0.0898 -0.2037
  157SAPE    HS17464   1.332   6.024   6.658  0.9097 -0.1541 -0.6886
  157SAPE   O2117465   1.272   6.222   6.701 -0.3501 -0.5782 -0.0312
  157SAPE   C2117466   1.148   6.191   6.696 -0.5694  0.4098 -0.4235
  157SAPE   O2217467   1.105   6.082   6.662 -0.6044  0.6014  0.2546
  157SAPE   C2217468   1.068   6.304   6.750  0.8849  0.2101 -0.6010
  157SAPE   H2R17469   1.118   6.340   6.842 -1.4846 -0.2543  0.9600
  157SAPE   H2S17470   1.055   6.388   6.679 -0.9783  0.0712 -0.4728
  157SAPE    C317471   1.502   6.157   6.695  1.2506 -0.1443 -0.3972
  157SAPE    HX17472   1.528   6.261   6.668  1.5493 -0.0495  0.2336
  157SAPE    HY17473   1.571   6.084   6.646 -0.1997 -3.1077  1.6169
  157SAPE   O3117474   1.506   6.140   6.836 -0.6600 -0.1132 -0.3333
  157SAPE   C3117475   1.513   6.013   6.879  0.1964  0.7655 -0.4822
  157SAPE   O3217476   1.543   5.916   6.809 -1.0806 -0.0301  0.7754
  157SAPE   C3217477   1.499   6.009   7.028 -0.3521 -0.1322 -0.0962
  157SAPE   H2X17478   1.390   5.999   7.045 -0.0661  0.4678  2.5385
  157SAPE   H2Y17479   1.542   6.102   7.071  0.7149  0.0340 -1.4496
  157SAPE   C2317480   0.928   6.257   6.810 -0.5231  0.2938  0.3548
  157SAPE   H3R17481   0.869   6.184   6.751 -2.4745  1.0806  1.2528
  157SAPE   H3S17482   0.860   6.343   6.824 -0.5705  0.4554 -0.7782
  157SAPE   C2417483   0.931   6.198   6.952 -0.4388 -0.1055  0.1783
  157SAPE   H4R17484   0.986   6.102   6.941  0.5000  0.4824 -0.3002
  157SAPE   H4S17485   0.828   6.172   6.986 -1.2732 -0.2204 -2.2215
  157SAPE   C2517486   0.995   6.281   7.060  0.3002  0.3146 -0.1787
  157SAPE   H5R17487   0.983   6.390   7.054  1.1208  0.3427 -2.2022
  157SAPE   C2617488   1.074   6.247   7.165  0.4155  0.7639 -0.2852
  157SAPE   H6R17489   1.116   6.325   7.229 -0.7691  1.1045  0.1107
  157SAPE   C2717490   1.126   6.112   7.202 -1.2997  0.3432  0.3774
  157SAPE   H7R17491   1.206   6.115   7.279 -0.7785  3.0166 -0.2014
  157SAPE   H7S17492   1.161   6.051   7.116 -0.7020  0.7983  0.2985
  157SAPE   C2817493   1.011   6.041   7.272 -0.1316  0.3815 -0.1981
  157SAPE   H8R17494   0.911   6.062   7.231 -0.5596  0.1697  0.7243
  157SAPE   C2917495   1.009   5.955   7.376 -0.3084 -0.9072 -0.1745
  157SAPE   H9R17496   0.912   5.915   7.407 -1.0970  0.7939 -0.3422
  157SAPE  C21017497   1.129   5.897   7.458  0.7841  0.1375 -0.2971
  157SAPE  H10R17498   1.225   5.944   7.431 -0.4474  2.9675 -0.0746
  157SAPE  H10S17499   1.137   5.787   7.440 -1.5939 -0.3493  1.0809
  157SAPE  C21117500   1.101   5.922   7.606 -0.1833 -0.1675  0.2675
  157SAPE  H11R17501   1.110   6.028   7.632  0.9632  0.1350 -1.2407
  157SAPE  C21217502   1.068   5.833   7.699  0.1022 -0.1187 -0.4432
  157SAPE  H12R17503   1.059   5.873   7.801  0.3019 -1.7999  0.2747
  157SAPE  C21317504   1.049   5.686   7.684  0.1073 -0.0914  0.5336
  157SAPE  H13R17505   1.130   5.642   7.622 -0.2475  0.1772 -0.1373
  157SAPE  H13S17506   0.963   5.671   7.615  0.0718  1.0925  0.2989
  157SAPE  C21417507   1.027   5.612   7.810 -0.1089 -0.1407  1.0282
  157SAPE  H14R17508   1.119   5.611   7.871  1.8427  1.4407 -1.6644
  157SAPE  C21517509   0.907   5.568   7.855 -0.8053 -0.3046 -0.3429
  157SAPE  H15R17510   0.902   5.524   7.956 -0.1335 -0.0075 -0.1775
  157SAPE  C21617511   0.769   5.568   7.785  0.4367  0.0501 -0.6129
  157SAPE  H16R17512   0.709   5.474   7.785  0.2797  0.1218  0.8883
  157SAPE  H16S17513   0.789   5.596   7.680  0.1533  0.8358 -0.4673
  157SAPE  C21717514   0.672   5.678   7.841 -0.0506 -0.1036  0.1485
  157SAPE  H17R17515   0.745   5.759   7.861  0.9836 -0.9964  0.0687
  157SAPE  H17S17516   0.635   5.642   7.939  0.1222 -2.3246 -0.5570
  157SAPE  C21817517   0.565   5.730   7.750 -0.1315  0.3444 -1.0821
  157SAPE  H18R17518   0.600   5.756   7.648  0.9779 -2.1188 -1.4216
  157SAPE  H18S17519   0.531   5.830   7.782  0.3140  0.8922 -2.2589
  157SAPE  C21917520   0.454   5.621   7.747 -0.5157 -0.3000  0.1355
  157SAPE  H19R17521   0.437   5.577   7.847  0.9057 -1.6775 -0.1962
  157SAPE  H19S17522   0.490   5.538   7.682 -0.2325  0.1334 -0.2724
  157SAPE  C22017523   0.330   5.665   7.669 -0.5656 -0.1113  0.1494
  157SAPE  H20R17524   0.276   5.749   7.718 -0.2412 -0.9437  2.0368
  157SAPE  H20S17525   0.266   5.575   7.661 -3.1681  1.6159  0.5780
  157SAPE  H20T17526   0.359   5.694   7.566  1.2087  1.4497  1.0145
  157SAPE   C3317527   1.584   5.892   7.094  0.2196  0.4852 -0.2820
  157SAPE   H3X17528   1.690   5.913   7.071 -0.3185  2.9808 -0.8412
  157SAPE   H3Y17529   1.554   5.800   7.040  3.6792 -1.3255  0.5963
  157SAPE   C3417530   1.572   5.881   7.245 -0.2361  0.6874 -0.0104
  157SAPE   H4X17531   1.640   5.803   7.284 -1.3859  0.8713  2.5388
  157SAPE   H4Y17532   1.475   5.859   7.295  0.3494  1.8914  1.7649
  157SAPE   C3517533   1.623   6.008   7.319 -1.0280 -0.4316  0.3650
  157SAPE   H5X17534   1.548   6.089   7.326 -0.1216  0.9498 -3.4469
  157SAPE   H5Y17535   1.707   6.052   7.261  0.2885 -2.5037  0.5847
  157SAPE   C3617536   1.673   5.984   7.464 -0.8291  0.2253 -0.1078
  157SAPE   H6X17537   1.761   6.045   7.494 -0.2228  0.1303 -1.5943
  157SAPE   H6Y17538   1.699   5.878   7.482 -0.1061 -0.4664 -4.1863
  157SAPE   C3717539   1.557   6.027   7.557 -0.0451  0.2345 -0.4448
  157SAPE   H7X17540   1.467   5.969   7.531  0.1430  0.1273 -0.8707
  157SAPE   H7Y17541   1.543   6.135   7.532  0.6821  0.2396 -0.8796
  157SAPE   C3817542   1.577   5.997   7.705  0.2396 -0.0706  0.0142
  157SAPE   H8X17543   1.616   6.090   7.753  1.6436 -0.6789  0.1060
  157SAPE   H8Y17544   1.639   5.908   7.725 -0.5816 -0.4686  0.8688
  157SAPE   C3917545   1.447   5.949   7.764  0.5522  0.1054  0.2883
  157SAPE   H9X17546   1.391   5.875   7.702 -0.7383  0.8501  0.5157
  157SAPE   H9Y17547   1.373   6.031   7.770  0.5465  0.2198 -1.0753
  157SAPE  C31017548   1.461   5.880   7.902 -0.1417 -0.3209  0.0123
  157SAPE  H10X17549   1.494   5.960   7.972 -2.2472  0.2789  0.3675
  157SAPE  H10Y17550   1.531   5.795   7.885  0.5623  0.1649  0.4150
  157SAPE  C31117551   1.331   5.821   7.963  0.1560  0.5120  0.2167
  157SAPE  H11X17552   1.361   5.747   8.040  1.3306 -1.7546 -2.2719
  157SAPE  H11Y17553   1.280   5.768   7.880  1.7248  1.4336 -1.4101
  157SAPE  C31217554   1.229   5.928   8.024 -0.7882 -0.6860  0.7389
  157SAPE  H12X17555   1.148   5.857   8.051 -1.0279 -0.2620  1.1622
  157SAPE  H12Y17556   1.200   5.998   7.944  2.0157  1.0014  1.0421
  157SAPE  C31317557   1.281   6.005   8.151 -0.2112 -0.1470  0.1199
  157SAPE  H13X17558   1.336   6.098   8.124  0.3674 -0.5743 -0.2122
  157SAPE  H13Y17559   1.355   5.937   8.197  1.0934  0.6989 -0.6242
  157SAPE  C31417560   1.177   6.024   8.262  0.1908  0.0657  0.1204
  157SAPE  H14X17561   1.133   5.927   8.292 -0.5207  1.1082  2.6430
  157SAPE  H14Y17562   1.095   6.090   8.225  0.2196 -0.1022 -0.2565
  157SAPE  C31517563   1.243   6.069   8.395 -0.7579 -0.8644  0.3645
  157SAPE  H15X17564   1.305   6.160   8.380  2.7083 -2.8535  1.3802
  157SAPE  H15Y17565   1.314   5.992   8.433 -1.0380 -2.3147 -1.8597
  157SAPE  C31617566   1.137   6.106   8.504 -0.0979  0.2395  0.5220
  157SAPE  H16X17567   1.072   6.020   8.529 -0.0575 -0.3252 -1.2128
  157SAPE  H16Y17568   1.078   6.192   8.464  0.4237 -0.3497 -1.6287
  157SAPE  C31717569   1.217   6.143   8.627  0.0711  0.5962  0.7332
  157SAPE  H17X17570   1.279   6.219   8.576  0.7713 -0.5423 -0.1691
  157SAPE  H17Y17571   1.282   6.062   8.666  0.0626  0.7210  1.0038
  157SAPE  C31817572   1.133   6.208   8.739  0.8156 -0.4478 -0.0837
  157SAPE  H18X17573   1.053   6.276   8.703 -0.0536 -0.6064  1.4868
  157SAPE  H18Y17574   1.195   6.260   8.815  0.3639 -0.0015 -0.0147
  157SAPE  H18Z17575   1.079   6.126   8.789 -0.8070  1.3200  1.1933
  158SAPE     N17576   3.303   6.446   5.792 -0.1859  0.2392 -0.8201
  158SAPE   HN117577   3.286   6.354   5.837 -1.3998  0.9843  0.3329
  158SAPE   HN217578   3.215   6.472   5.743  0.2583  0.6227 -1.4359
  158SAPE   HN317579   3.373   6.414   5.722  1.5613 -2.6450  1.9953
  158SAPE   C1217580   3.351   6.549   5.893 -0.4672  0.0659  0.8428
  158SAPE  H12A17581   3.276   6.625   5.921  0.3715  0.1757  2.9432
  158SAPE  H12B17582   3.434   6.601   5.841 -0.2104 -0.4155  0.7586
  158SAPE   C1117583   3.399   6.470   6.017 -0.0556  0.1856 -0.3152
  158SAPE  H11A17584   3.479   6.395   5.996  0.8883  0.7401  1.1997
  158SAPE  H11B17585   3.306   6.429   6.061  1.3320 -1.2720  1.4270
  158SAPE     P17586   3.600   6.567   6.162 -0.3308 -0.2238  0.1539
  158SAPE   O1317587   3.674   6.483   6.063  0.1293 -0.4525  0.1813
  158SAPE   O1417588   3.646   6.707   6.171  0.2763 -0.4631 -0.3481
  158SAPE   O1217589   3.450   6.565   6.118 -0.6134  0.2029  0.7392
  158SAPE   O1117590   3.602   6.503   6.307  0.1499 -0.3647  0.1572
  158SAPE    C117591   3.502   6.539   6.398 -0.3389  0.4677 -0.5026
  158SAPE    HA17592   3.403   6.539   6.347 -0.6134 -0.4275  0.0143
  158SAPE    HB17593   3.506   6.460   6.476 -0.5008 -0.4714 -1.4287
  158SAPE    C217594   3.511   6.675   6.479  0.4061  0.4697  0.7252
  158SAPE    HS17595   3.505   6.748   6.395 -0.1696  0.5341  0.8213
  158SAPE   O2117596   3.630   6.681   6.556  0.0460  0.5049  0.7987
  158SAPE   C2117597   3.689   6.796   6.581 -0.0131  0.1886 -0.8125
  158SAPE   O2217598   3.646   6.904   6.553 -0.1965 -0.2898 -0.7894
  158SAPE   C2217599   3.817   6.765   6.666 -0.1645  0.1893  0.0199
  158SAPE   H2R17600   3.782   6.722   6.762 -1.3290 -0.6724 -0.7614
  158SAPE   H2S17601   3.879   6.699   6.601 -1.2237 -1.2439  0.4182
  158SAPE    C317602   3.382   6.702   6.564 -0.0138 -0.0606  0.2485
  158SAPE    HX17603   3.290   6.717   6.503 -0.1010 -2.2980 -0.2467
  158SAPE    HY17604   3.394   6.802   6.611 -3.4529  0.6031 -0.0307
  158SAPE   O3117605   3.370   6.592   6.666  0.4426 -0.9120 -0.2658
  158SAPE   C3117606   3.407   6.614   6.785  0.8248 -0.2050 -0.0802
  158SAPE   O3217607   3.437   6.725   6.832  0.0513 -0.0869  0.1963
  158SAPE   C3217608   3.387   6.489   6.874  0.3834  0.6561  0.9547
  158SAPE   H2X17609   3.424   6.402   6.816  0.9277  1.2494  0.4062
  158SAPE   H2Y17610   3.279   6.471   6.892  0.6309 -0.9043  1.0169
  158SAPE   C2317611   3.903   6.892   6.680 -0.1036  0.7908  0.5507
  158SAPE   H3R17612   3.855   6.976   6.736  0.7478  2.0788 -0.5785
  158SAPE   H3S17613   3.919   6.928   6.576 -1.7682  1.8910  0.6313
  158SAPE   C2417614   4.038   6.854   6.738  0.9798  0.3548  0.3494
  158SAPE   H4R17615   4.078   6.770   6.676 -0.6139  0.1955 -0.5216
  158SAPE   H4S17616   4.004   6.816   6.836 -0.6002 -0.2825 -0.4065
  158SAPE   C2517617   4.136   6.962   6.750  0.5444 -0.6517 -0.0598
  158SAPE   H5R17618   4.150   7.033   6.667  1.6175 -0.1692  0.5085
  158SAPE   C2617619   4.197   6.998   6.863 -0.5862 -0.3789 -0.4539
  158SAPE   H6R17620   4.281   7.070   6.864 -0.0198 -0.8934  3.0581
  158SAPE   C2717621   4.191   6.931   6.994 -0.1414 -0.0532  0.3057
  158SAPE   H7R17622   4.220   6.824   6.983 -0.2336 -0.3351  2.3412
  158SAPE   H7S17623   4.084   6.932   7.023 -0.2736  0.1034 -0.1777
  158SAPE   C2817624   4.270   7.002   7.100  0.2557  0.0291 -0.7324
  158SAPE   H8R17625   4.327   7.092   7.073 -1.1648  0.9989 -0.6457
  158SAPE   C2917626   4.286   6.944   7.220  0.0274 -0.0883  0.5350
  158SAPE   H9R17627   4.334   6.998   7.303 -0.8474 -2.0505  2.4471
  158SAPE  C21017628   4.230   6.807   7.275  0.0279  0.0885 -0.2156
  158SAPE  H10R17629   4.309   6.729   7.284 -0.4336 -0.4405 -0.7113
  158SAPE  H10S17630   4.158   6.753   7.209 -0.1673 -0.6562  0.5913
  158SAPE  C21117631   4.167   6.822   7.412  0.3555 -0.5451 -0.2441
  158SAPE  H11R17632   4.185   6.921   7.456  1.6943  0.3661 -2.6326
  158SAPE  C21217633   4.097   6.735   7.492 -0.8544  0.2675  0.3499
  158SAPE  H12R17634   4.086   6.758   7.599 -0.4150  0.1556  0.4192
  158SAPE  C21317635   4.058   6.594   7.455  0.4736  0.2487  0.4414
  158SAPE  H13R17636   4.120   6.528   7.520 -0.2739  1.6024  2.6313
  158SAPE  H13S17637   4.079   6.565   7.349 -1.6626  0.6850 -0.1336
  158SAPE  C21417638   3.909   6.572   7.487  0.1973  0.5194 -0.1623
  158SAPE  H14R17639   3.877   6.556   7.590 -0.3720  1.5792 -0.1585
  158SAPE  C21517640   3.816   6.558   7.392 -0.3234 -0.8073 -0.2404
  158SAPE  H15R17641   3.711   6.554   7.427 -0.4269 -0.2706 -0.4837
  158SAPE  C21617642   3.845   6.546   7.245 -0.3140  0.0624  0.5291
  158SAPE  H16R17643   3.751   6.510   7.197  0.9880  2.7744 -4.7948
  158SAPE  H16S17644   3.915   6.465   7.216  0.4051  0.8429  0.0267
  158SAPE  C21717645   3.861   6.681   7.184 -0.1760  0.2364 -0.4288
  158SAPE  H17R17646   3.899   6.673   7.080 -1.1971 -3.7633 -0.6434
  158SAPE  H17S17647   3.941   6.743   7.230  1.0458 -1.0866 -0.7094
  158SAPE  C21817648   3.724   6.765   7.166 -0.0710 -0.0232 -0.1971
  158SAPE  H18R17649   3.701   6.777   7.274 -0.8393 -1.4861 -0.1708
  158SAPE  H18S17650   3.661   6.703   7.098  4.0787 -1.8851 -2.7678
  158SAPE  C21917651   3.751   6.897   7.093  0.2737 -0.0901  0.3170
  158SAPE  H19R17652   3.765   6.876   6.985  0.6209  2.3743 -0.1881
  158SAPE  H19S17653   3.847   6.944   7.123 -1.1601  2.5501  1.1482
  158SAPE  C22017654   3.633   7.002   7.114  0.3464 -0.7828 -0.3963
  158SAPE  H20R17655   3.661   7.107   7.090  2.1825 -0.5978  2.1855
  158SAPE  H20S17656   3.614   6.993   7.223 -1.5527 -1.3517 -0.7401
  158SAPE  H20T17657   3.546   6.975   7.050 -0.6689  1.5856 -0.1292
  158SAPE   C3317658   3.463   6.509   7.013  0.2100  0.1783 -0.5625
  158SAPE   H3X17659   3.476   6.616   7.038 -0.0270  0.1144 -0.1614
  158SAPE   H3Y17660   3.568   6.473   7.016 -0.4813 -2.0558  2.9006
  158SAPE   C3417661   3.390   6.442   7.133 -0.7404  0.4022 -0.2825
  158SAPE   H4X17662   3.470   6.408   7.203 -1.6973 -0.5604  0.3946
  158SAPE   H4Y17663   3.326   6.359   7.095  0.6810 -0.2429 -1.3392
  158SAPE   C3517664   3.291   6.539   7.199  0.2677 -0.3520  0.3755
  158SAPE   H5X17665   3.215   6.568   7.123 -0.4863  1.6053  1.7946
  158SAPE   H5Y17666   3.343   6.630   7.236  1.3940 -1.1910  0.9213
  158SAPE   C3617667   3.220   6.467   7.319  0.1000 -0.1625 -0.2389
  158SAPE   H6X17668   3.190   6.367   7.283  0.4637 -0.3044 -0.1541
  158SAPE   H6Y17669   3.121   6.517   7.326 -0.1269 -0.4713 -1.2098
  158SAPE   C3717670   3.292   6.466   7.459 -0.4018  0.0654  0.5841
  158SAPE   H7X17671   3.400   6.451   7.441 -0.7647 -2.6582  0.2121
  158SAPE   H7Y17672   3.295   6.567   7.504 -2.0639  0.3796  0.0733
  158SAPE   C3817673   3.232   6.366   7.557 -0.0144  0.9181  0.0118
  158SAPE   H8X17674   3.275   6.266   7.534 -1.6610  0.3078 -0.5125
  158SAPE   H8Y17675   3.122   6.358   7.550 -0.1394  2.0799  0.3406
  158SAPE   C3917676   3.274   6.384   7.702 -0.1096 -0.7411  0.6466
  158SAPE   H9X17677   3.251   6.486   7.739 -1.1057 -0.7722  0.1351
  158SAPE   H9Y17678   3.385   6.381   7.706  0.0829  3.0108  1.9935
  158SAPE  C31017679   3.221   6.280   7.800 -0.3155  0.2761 -0.6874
  158SAPE  H10X17680   3.246   6.186   7.748 -0.4943  0.3453 -0.9010
  158SAPE  H10Y17681   3.111   6.281   7.820 -0.3685 -1.3792 -0.8118
  158SAPE  C31117682   3.310   6.275   7.932 -0.1219  0.3272  0.2514
  158SAPE  H11X17683   3.295   6.375   7.978  1.1075  0.5123  0.2855
  158SAPE  H11Y17684   3.419   6.258   7.914  0.1168  1.5859  0.4267
  158SAPE  C31217685   3.264   6.151   8.024 -0.6563 -0.5144  0.4561
  158SAPE  H12X17686   3.281   6.056   7.970  0.6689  0.8702 -1.7529
  158SAPE  H12Y17687   3.155   6.161   8.042 -1.0528 -3.1302 -0.1354
  158SAPE  C31317688   3.335   6.148   8.160  0.1541  0.4664 -0.6915
  158SAPE  H13X17689   3.325   6.244   8.214 -0.1757  0.6963 -1.1601
  158SAPE  H13Y17690   3.442   6.130   8.136  0.3943 -1.9628  1.6134
  158SAPE  C31417691   3.276   6.034   8.246  0.2616 -0.8174  0.3600
  158SAPE  H14X17692   3.278   5.943   8.183 -0.8276  0.7244 -2.0653
  158SAPE  H14Y17693   3.171   6.061   8.269  0.6820  0.6663  0.6888
  158SAPE  C31517694   3.353   6.012   8.373 -0.2767  0.1306 -0.0515
  158SAPE  H15X17695   3.460   5.992   8.351 -0.6621 -2.7320  0.2845
  158SAPE  H15Y17696   3.323   5.923   8.433  1.8600 -0.4519  0.2695
  158SAPE  C31617697   3.340   6.133   8.472  0.1583 -0.8860  0.3835
  158SAPE  H16X17698   3.233   6.148   8.496  0.0944 -1.8792  0.7555
  158SAPE  H16Y17699   3.380   6.224   8.422 -0.7269 -1.8859 -2.3845
  158SAPE  C31717700   3.417   6.097   8.604 -0.5881  0.3079 -0.4404
  158SAPE  H17X17701   3.527   6.087   8.594  0.0651  0.6939  4.2469
  158SAPE  H17Y17702   3.375   6.001   8.642 -1.2890 -0.3786 -2.7898
  158SAPE  C31817703   3.404   6.214   8.700 -0.5642  0.1469 -0.3036
  158SAPE  H18X17704   3.484   6.213   8.777  0.8120  0.5238 -1.6573
  158SAPE  H18Y17705   3.303   6.217   8.746  0.3612  1.3348  1.7922
  158SAPE  H18Z17706   3.418   6.308   8.642 -0.2284  1.4570  1.7996
  159SAPE     N17707   4.625   3.618   6.497  0.5109 -0.2373 -0.4855
  159SAPE   HN117708   4.632   3.605   6.600  1.4066  0.4832 -0.4392
  159SAPE   HN217709   4.623   3.527   6.448  2.8234 -0.6332  0.0198
  159SAPE   HN317710   4.708   3.670   6.463  0.3507  0.0157 -0.4902
  159SAPE   C1217711   4.500   3.692   6.484 -0.1771 -0.2638  0.2136
  159SAPE  H12A17712   4.491   3.736   6.382 -3.5959 -1.9145 -0.3456
  159SAPE  H12B17713   4.498   3.771   6.563 -0.5499  0.6240 -0.6547
  159SAPE   C1117714   4.385   3.597   6.511 -0.8385  0.0080 -0.0373
  159SAPE  H11A17715   4.290   3.653   6.501 -1.2633 -0.6282  0.3814
  159SAPE  H11B17716   4.402   3.558   6.614  0.5021  1.1329  0.1918
  159SAPE     P17717   4.245   3.431   6.361 -0.0253  0.2331 -0.7785
  159SAPE   O1317718   4.193   3.529   6.258  0.0952  0.7466 -0.4687
  159SAPE   O1417719   4.258   3.293   6.316  0.2202 -0.3683  0.4002
  159SAPE   O1217720   4.386   3.486   6.420 -0.6166  0.0211  0.3819
  159SAPE   O1117721   4.143   3.442   6.481 -0.4418 -0.0803  0.0229
  159SAPE    C117722   4.154   3.384   6.609 -0.2450  0.2485 -0.2329
  159SAPE    HA17723   4.091   3.293   6.621  2.0551 -1.1960  1.9750
  159SAPE    HB17724   4.261   3.362   6.628 -0.3208  1.1429  1.4128
  159SAPE    C217725   4.095   3.479   6.709 -0.4747 -0.5025  0.0528
  159SAPE    HS17726   4.140   3.575   6.676 -1.0303  0.4723  1.9287
  159SAPE   O2117727   4.125   3.448   6.845 -0.2709 -0.4933  0.0027
  159SAPE   C2117728   4.249   3.448   6.883 -0.4950 -0.2591  0.0832
  159SAPE   O2217729   4.347   3.491   6.825 -0.1582 -0.3600  0.1373
  159SAPE   C2217730   4.265   3.395   7.028  0.1295  0.1822 -0.1105
  159SAPE   H2R17731   4.223   3.458   7.109 -0.6231 -2.4457  1.6591
  159SAPE   H2S17732   4.216   3.296   7.034 -0.3306  0.3372 -1.1434
  159SAPE    C317733   3.938   3.504   6.695  0.1544 -0.7480  0.2293
  159SAPE    HX17734   3.897   3.438   6.615  0.8100  1.3185 -1.9381
  159SAPE    HY17735   3.931   3.608   6.657 -0.0600 -0.6929  0.4182
  159SAPE   O3117736   3.865   3.502   6.818  0.3411  0.6416  0.3643
  159SAPE   C3117737   3.872   3.605   6.896  0.0737 -0.0079  1.0150
  159SAPE   O3217738   3.937   3.705   6.874  0.0128 -0.1730  0.2067
  159SAPE   C3217739   3.768   3.598   7.004 -0.0557  0.0544 -0.1506
  159SAPE   H2X17740   3.736   3.492   7.002 -2.0001  0.5455  1.2723
  159SAPE   H2Y17741   3.678   3.657   6.975 -1.8498 -2.4546  0.0220
  159SAPE   C2317742   4.414   3.372   7.071 -0.6221  0.2760  0.8387
  159SAPE   H3R17743   4.479   3.459   7.045 -1.5397  1.0068  0.9653
  159SAPE   H3S17744   4.463   3.289   7.015 -1.6584 -1.1446  1.9772
  159SAPE   C2417745   4.447   3.349   7.218  0.4737  0.0201  0.2155
  159SAPE   H4R17746   4.383   3.262   7.243 -0.1539  0.3595 -0.1756
  159SAPE   H4S17747   4.405   3.436   7.273 -1.2968 -0.9485  0.4986
  159SAPE   C2517748   4.594   3.323   7.250 -0.2063  0.0753  0.2031
  159SAPE   H5R17749   4.663   3.372   7.180 -2.0771  0.2066 -1.6363
  159SAPE   C2617750   4.651   3.257   7.352  0.3176  0.8552  0.4605
  159SAPE   H6R17751   4.758   3.278   7.361  0.4908  0.3064 -0.2557
  159SAPE   C2717752   4.587   3.183   7.461  1.0127  0.6167 -0.2692
  159SAPE   H7R17753   4.619   3.077   7.457 -0.0773  0.2837 -0.4132
  159SAPE   H7S17754   4.481   3.162   7.438  0.4494  3.2306 -0.3852
  159SAPE   C2817755   4.594   3.262   7.593  0.2443 -0.0388 -0.4059
  159SAPE   H8R17756   4.559   3.365   7.580 -1.1960 -0.5999 -1.1674
  159SAPE   C2917757   4.621   3.215   7.716  0.4967 -0.4389  0.1310
  159SAPE   H9R17758   4.610   3.281   7.803  1.3080  1.4069 -1.1264
  159SAPE  C21017759   4.659   3.071   7.740  0.1741  0.1211 -0.3220
  159SAPE  H10R17760   4.723   3.054   7.651  2.5591  1.7876  0.9481
  159SAPE  H10S17761   4.566   3.011   7.736  0.2789  0.0246 -2.0463
  159SAPE  C21117762   4.746   3.059   7.862  0.3555  0.2660  0.2119
  159SAPE  H11R17763   4.853   3.044   7.839  0.2306 -0.6250  0.1882
  159SAPE  C21217764   4.705   3.045   7.987  0.1017  0.6707  0.1716
  159SAPE  H12R17765   4.786   3.042   8.061 -0.4715  1.2908  0.8471
  159SAPE  C21317766   4.566   3.044   8.053 -0.1793 -0.4780 -0.4007
  159SAPE  H13R17767   4.566   2.966   8.132  1.1235  0.6937  0.7972
  159SAPE  H13S17768   4.479   3.024   7.988 -0.3738 -0.4498 -0.1495
  159SAPE  C21417769   4.526   3.176   8.124 -0.7094  0.4586  0.6231
  159SAPE  H14R17770   4.494   3.258   8.058 -0.6018  0.2263  0.2768
  159SAPE  C21517771   4.527   3.194   8.253  0.8430  0.1013  0.1112
  159SAPE  H15R17772   4.470   3.283   8.283  1.6576  1.2138 -1.4423
  159SAPE  C21617773   4.565   3.097   8.368  0.7172  0.5066 -0.0462
  159SAPE  H16R17774   4.533   2.994   8.343 -0.6209  0.8279  0.2830
  159SAPE  H16S17775   4.512   3.138   8.457  0.0599  3.3802 -1.6289
  159SAPE  C21717776   4.717   3.101   8.379  0.6773  0.6150 -0.7335
  159SAPE  H17R17777   4.751   3.061   8.281 -1.1080  0.1266 -1.1858
  159SAPE  H17S17778   4.745   3.023   8.452  1.6320  2.2582  0.7300
  159SAPE  C21817779   4.785   3.229   8.438  0.6932 -0.8715 -0.6168
  159SAPE  H18R17780   4.776   3.221   8.548  1.4922 -2.9310 -0.6607
  159SAPE  H18S17781   4.734   3.322   8.405  1.4195 -0.5464 -0.8499
  159SAPE  C21917782   4.937   3.249   8.403 -0.0011 -0.9623 -0.5078
  159SAPE  H19R17783   4.967   3.328   8.475  1.2124 -1.5562 -0.3344
  159SAPE  H19S17784   4.943   3.291   8.300 -1.1411  2.8631  0.8187
  159SAPE  C22017785   5.036   3.137   8.429 -0.1521 -0.2385  0.2284
  159SAPE  H20R17786   5.007   3.094   8.527 -0.9051 -1.3618 -0.4517
  159SAPE  H20S17787   5.137   3.181   8.443  0.5115 -1.3730 -0.7371
  159SAPE  H20T17788   5.025   3.053   8.357  0.2474 -1.3537  1.4499
  159SAPE   C3317789   3.833   3.619   7.143  0.3009 -0.2556  0.5527
  159SAPE   H3X17790   3.758   3.619   7.225 -0.8349 -3.7637 -0.3321
  159SAPE   H3Y17791   3.896   3.711   7.149  0.0861 -0.0053 -0.8589
  159SAPE   C3417792   3.918   3.491   7.185 -0.2266 -0.4465 -0.1400
  159SAPE   H4X17793   4.011   3.497   7.124  0.8612 -0.8102  1.4159
  159SAPE   H4Y17794   3.866   3.401   7.145 -0.1412 -0.7414  0.4048
  159SAPE   C3517795   3.953   3.486   7.334  0.1616 -0.1611  0.2480
  159SAPE   H5X17796   3.861   3.458   7.390 -0.8152 -1.0327 -1.6838
  159SAPE   H5Y17797   3.993   3.581   7.375  1.8946  0.3818 -2.4426
  159SAPE   C3617798   4.060   3.390   7.378 -0.4827 -0.0513  0.4026
  159SAPE   H6X17799   4.149   3.411   7.316 -1.6368  0.3859 -1.1597
  159SAPE   H6Y17800   4.022   3.288   7.356  0.3119 -0.0562 -1.0478
  159SAPE   C3717801   4.099   3.410   7.530  0.0389  0.8969  0.2092
  159SAPE   H7X17802   4.014   3.393   7.600  1.2537 -0.7531  1.3365
  159SAPE   H7Y17803   4.116   3.518   7.552  1.6339  1.0508 -1.5070
  159SAPE   C3817804   4.228   3.332   7.564 -0.0493 -0.5984 -0.8491
  159SAPE   H8X17805   4.314   3.366   7.503  0.7922 -0.2545  0.4838
  159SAPE   H8Y17806   4.210   3.229   7.527 -1.9774 -1.1655  1.4225
  159SAPE   C3917807   4.261   3.319   7.716  0.5665  0.3635 -0.5542
  159SAPE   H9X17808   4.266   3.422   7.757 -2.2180  0.7410 -0.9675
  159SAPE   H9Y17809   4.367   3.286   7.720  0.2731 -0.6533 -0.7475
  159SAPE  C31017810   4.167   3.238   7.804  0.0450 -0.8555 -0.1558
  159SAPE  H10X17811   4.138   3.149   7.745 -2.3579 -1.3277  1.5564
  159SAPE  H10Y17812   4.075   3.299   7.818  1.2116  1.0188 -0.2163
  159SAPE  C31117813   4.222   3.202   7.943  0.2387 -0.8107 -0.0405
  159SAPE  H11X17814   4.234   3.290   8.010  0.0085  0.4036 -1.5628
  159SAPE  H11Y17815   4.324   3.162   7.926  0.4268  0.1718 -1.3981
  159SAPE  C31217816   4.124   3.101   8.018  0.1351  0.4922 -0.1418
  159SAPE  H12X17817   4.149   3.002   7.975 -1.4672 -0.6753  1.4638
  159SAPE  H12Y17818   4.021   3.136   7.996 -0.1522 -1.1938 -1.6764
  159SAPE  C31317819   4.145   3.077   8.172  0.3156  0.4149 -0.6763
  159SAPE  H13X17820   4.133   3.182   8.206 -0.7509  0.1969 -0.3314
  159SAPE  H13Y17821   4.249   3.046   8.194 -0.3791 -0.8421  0.9798
  159SAPE  C31417822   4.039   2.983   8.228 -0.3145  0.5943 -0.1018
  159SAPE  H14X17823   4.063   2.876   8.206 -0.5477  0.5521 -0.1520
  159SAPE  H14Y17824   3.939   2.995   8.181 -0.0960 -1.6927 -1.3420
  159SAPE  C31517825   4.032   3.000   8.384  0.3211  0.1874 -0.3646
  159SAPE  H15X17826   4.039   3.109   8.408 -0.7597  0.0300  0.8018
  159SAPE  H15Y17827   4.131   2.969   8.424 -0.5846 -1.4186  0.7692
  159SAPE  C31617828   3.913   2.929   8.455  0.3166  0.0482  0.3387
  159SAPE  H16X17829   3.900   2.820   8.433  1.7427 -0.3492  1.3113
  159SAPE  H16Y17830   3.821   2.967   8.407  0.7068  1.3259  0.5584
  159SAPE  C31717831   3.893   2.966   8.599 -0.8207  0.1770 -0.9214
  159SAPE  H17X17832   3.969   2.910   8.658 -2.8653 -1.7720 -0.0038
  159SAPE  H17Y17833   3.801   2.927   8.647  1.0421 -0.8716  2.1304
  159SAPE  C31817834   3.894   3.117   8.625 -0.1895 -0.3430  0.2231
  159SAPE  H18X17835   3.865   3.130   8.731  1.7380  0.0779  0.7410
  159SAPE  H18Y17836   3.830   3.171   8.552  0.3583 -0.0812 -0.0705
  159SAPE  H18Z17837   4.000   3.150   8.618  1.0305 -3.4362  2.0757
  160SAPE     N17838   5.096   2.126   6.151 -0.4654 -0.3741  0.3479
  160SAPE   HN117839   5.163   2.088   6.220  0.1070  1.0566  0.6213
  160SAPE   HN217840   5.157   2.147   6.068  0.2092  0.5920  1.0595
  160SAPE   HN317841   5.059   2.217   6.185  0.0427 -0.0634  0.0907
  160SAPE   C1217842   4.998   2.018   6.115 -0.2633  0.2113  0.3784
  160SAPE  H12A17843   5.059   1.931   6.084  0.1793  1.0914 -1.3291
  160SAPE  H12B17844   4.940   2.058   6.030 -0.8069  1.4064  1.2793
  160SAPE   C1117845   4.922   1.984   6.245 -0.2371 -0.4316 -0.2667
  160SAPE  H11A17846   4.839   1.913   6.223 -1.0955  0.2487  0.6362
  160SAPE  H11B17847   4.873   2.078   6.280 -2.2223 -1.1833 -0.8433
  160SAPE     P17848   4.958   1.892   6.484  0.3067 -0.0243  0.2960
  160SAPE   O1317849   4.853   1.794   6.472  0.0948 -0.2083 -0.5025
  160SAPE   O1417850   5.081   1.860   6.565  0.2878 -0.3391  0.2871
  160SAPE   O1217851   5.003   1.933   6.343  0.3496 -0.3061  0.1800
  160SAPE   O1117852   4.900   2.026   6.530  0.5196 -0.1317 -0.6466
  160SAPE    C117853   4.979   2.130   6.574  0.0378 -0.1821 -0.3742
  160SAPE    HA17854   5.087   2.106   6.563  0.0316  0.1633 -1.2428
  160SAPE    HB17855   4.965   2.224   6.517 -0.8589 -0.4127 -0.5514
  160SAPE    C217856   4.968   2.162   6.728  0.6463  0.0473 -0.2619
  160SAPE    HS17857   5.018   2.258   6.753 -1.8164  0.9131  1.7492
  160SAPE   O2117858   5.017   2.053   6.813  0.3699 -0.3966 -0.7127
  160SAPE   C2117859   5.146   2.029   6.811  0.6279  1.0824  0.4778
  160SAPE   O2217860   5.231   2.089   6.746  0.8852  0.4184  0.0910
  160SAPE   C2217861   5.163   1.897   6.893  0.3930  0.4191  0.5303
  160SAPE   H2R17862   5.119   1.917   6.993 -1.2573  0.3462 -0.1595
  160SAPE   H2S17863   5.097   1.824   6.842  0.0803  0.5745  0.7099
  160SAPE    C317864   4.818   2.179   6.752 -0.5389  0.4052 -0.9095
  160SAPE    HX17865   4.772   2.085   6.788  0.8272 -0.0311 -0.2186
  160SAPE    HY17866   4.760   2.213   6.664 -0.5317  1.9533 -0.3480
  160SAPE   O3117867   4.791   2.266   6.863  0.2456  0.1204  0.1898
  160SAPE   C3117868   4.802   2.394   6.837  0.4100 -0.0772 -0.5740
  160SAPE   O3217869   4.832   2.442   6.729  0.1213  0.2280 -0.0949
  160SAPE   C3217870   4.775   2.474   6.962  0.0256 -0.5174  0.4282
  160SAPE   H2X17871   4.665   2.479   6.979 -0.1523 -1.0852 -0.4863
  160SAPE   H2Y17872   4.824   2.572   6.943  0.8193 -1.2032 -1.2514
  160SAPE   C2317873   5.313   1.847   6.904  0.4132  0.1066  1.2774
  160SAPE   H3R17874   5.367   1.921   6.966 -1.3362  2.0659  0.5718
  160SAPE   H3S17875   5.365   1.840   6.806 -2.3892  1.7313 -0.4591
  160SAPE   C2417876   5.335   1.714   6.969  0.1470  0.1001 -0.0760
  160SAPE   H4R17877   5.279   1.722   7.065 -1.8972 -1.9628 -1.0148
  160SAPE   H4S17878   5.443   1.694   6.982  0.4344 -0.5589 -2.9110
  160SAPE   C2517879   5.271   1.598   6.899  1.1236 -1.0124 -0.4229
  160SAPE   H5R17880   5.316   1.573   6.802 -3.2816 -1.1127 -2.7042
  160SAPE   C2617881   5.159   1.529   6.933  0.6474  0.9272 -0.9587
  160SAPE   H6R17882   5.116   1.448   6.873 -0.4631  0.8882 -0.1456
  160SAPE   C2717883   5.074   1.550   7.057 -0.5028 -0.4268 -0.0944
  160SAPE   H7R17884   5.094   1.637   7.122 -3.7287 -0.5492  1.2500
  160SAPE   H7S17885   5.084   1.459   7.121 -0.2730 -0.3328  0.0037
  160SAPE   C2817886   4.929   1.567   7.019 -0.2003  0.4303 -0.0532
  160SAPE   H8R17887   4.911   1.622   6.926 -2.9774 -0.8653 -0.3945
  160SAPE   C2917888   4.823   1.536   7.096 -0.1752  0.9822 -0.6945
  160SAPE   H9R17889   4.720   1.550   7.057  0.3968 -0.9442 -3.1726
  160SAPE  C21017890   4.839   1.478   7.230  0.0682 -0.1177 -0.3567
  160SAPE  H10R17891   4.909   1.544   7.287  0.1970  1.7709 -2.5617
  160SAPE  H10S17892   4.903   1.388   7.220  1.0079  0.8030 -3.6442
  160SAPE  C21117893   4.707   1.438   7.286 -1.1593 -0.1476  0.2812
  160SAPE  H11R17894   4.638   1.399   7.209  2.4185 -0.7765 -2.9249
  160SAPE  C21217895   4.660   1.438   7.410  0.2739 -0.2909  0.1589
  160SAPE  H12R17896   4.555   1.408   7.424  0.2158  0.6171  2.0092
  160SAPE  C21317897   4.742   1.508   7.515 -0.0284  0.5121  0.6026
  160SAPE  H13R17898   4.716   1.616   7.514 -0.8756  0.4032 -2.9855
  160SAPE  H13S17899   4.853   1.508   7.513  0.1411 -0.0493  3.8239
  160SAPE  C21417900   4.691   1.455   7.650 -0.3349 -0.6106  0.4628
  160SAPE  H14R17901   4.632   1.363   7.641  0.5940 -1.1721 -0.1060
  160SAPE  C21517902   4.716   1.517   7.766 -0.1579 -1.0364 -0.2855
  160SAPE  H15R17903   4.665   1.469   7.851 -1.3172 -0.7035 -0.7741
  160SAPE  C21617904   4.788   1.651   7.792 -0.7258  0.2384  0.0271
  160SAPE  H16R17905   4.848   1.678   7.702 -1.4756  0.4984 -0.4041
  160SAPE  H16S17906   4.858   1.632   7.876 -0.4642 -1.5442 -0.5520
  160SAPE  C21717907   4.703   1.774   7.820 -0.2881 -0.3148 -0.3129
  160SAPE  H17R17908   4.615   1.747   7.882 -0.9501  0.8694 -0.7069
  160SAPE  H17S17909   4.654   1.798   7.723  0.0426  0.0711 -0.3866
  160SAPE  C21817910   4.788   1.885   7.878  0.1297 -0.4725  0.7048
  160SAPE  H18R17911   4.885   1.886   7.823 -0.6428 -2.3909 -0.8050
  160SAPE  H18S17912   4.815   1.862   7.983  0.2139 -1.0505  0.5607
  160SAPE  C21917913   4.714   2.026   7.882  0.1645  0.6168  0.3745
  160SAPE  H19R17914   4.633   2.010   7.956 -0.1186 -1.2941 -0.2790
  160SAPE  H19S17915   4.696   2.054   7.776  2.9277 -2.5770 -1.1553
  160SAPE  C22017916   4.804   2.140   7.935 -0.3914  0.1364 -0.0669
  160SAPE  H20R17917   4.765   2.243   7.917  0.4568  0.9093  2.0557
  160SAPE  H20S17918   4.900   2.131   7.880 -0.2973 -1.6036  0.3253
  160SAPE  H20T17919   4.832   2.137   8.043 -1.8834  3.7436  0.5732
  160SAPE   C3317920   4.843   2.415   7.087 -0.2888  0.1531 -0.0284
  160SAPE   H3X17921   4.795   2.329   7.138  0.6479 -0.0251  0.5863
  160SAPE   H3Y17922   4.840   2.491   7.168 -0.2352 -0.0715  0.1838
  160SAPE   C3417923   4.994   2.394   7.066  0.0022 -0.0292 -0.0707
  160SAPE   H4X17924   5.040   2.494   7.048  0.0488 -0.1177 -0.4499
  160SAPE   H4Y17925   5.008   2.332   6.975 -3.2563  2.4608 -2.5223
  160SAPE   C3517926   5.061   2.337   7.182  0.1361 -0.1689  0.0595
  160SAPE   H5X17927   5.004   2.255   7.230 -0.2576 -1.9560 -3.1663
  160SAPE   H5Y17928   5.057   2.412   7.264 -0.6543  0.1491 -0.2549
  160SAPE   C3617929   5.206   2.295   7.151  0.5782  0.3164  0.2766
  160SAPE   H6X17930   5.277   2.371   7.111  0.7005 -0.1486 -0.3899
  160SAPE   H6Y17931   5.200   2.233   7.059 -1.3827  0.0784  0.5098
  160SAPE   C3717932   5.272   2.220   7.267  0.1664 -0.6393  0.4961
  160SAPE   H7X17933   5.241   2.113   7.271  5.0379 -2.2729  2.0199
  160SAPE   H7Y17934   5.228   2.265   7.359 -0.3866 -1.5891  0.7193
  160SAPE   C3817935   5.425   2.232   7.273  0.0462  0.3667  0.0702
  160SAPE   H8X17936   5.465   2.335   7.286 -0.0370  0.2872  1.0701
  160SAPE   H8Y17937   5.459   2.207   7.171  1.3343  1.4691  0.2070
  160SAPE   C3917938   5.496   2.135   7.369  0.6672 -0.6086  0.7738
  160SAPE   H9X17939   5.595   2.124   7.321  0.3245 -0.6153  0.0537
  160SAPE   H9Y17940   5.433   2.044   7.364 -0.4375  0.1327  0.8291
  160SAPE  C31017941   5.484   2.197   7.509  0.9140 -0.1096  0.5323
  160SAPE  H10X17942   5.376   2.216   7.527  0.5147 -0.7342 -1.1169
  160SAPE  H10Y17943   5.528   2.299   7.508 -0.7971  0.6837 -1.2884
  160SAPE  C31117944   5.526   2.098   7.614 -0.0394 -0.5201 -0.3708
  160SAPE  H11X17945   5.626   2.060   7.584  1.0128  0.5849  1.5809
  160SAPE  H11Y17946   5.443   2.023   7.611 -0.1521 -0.3707 -1.2014
  160SAPE  C31217947   5.537   2.171   7.753 -0.1315  0.4519  0.1153
  160SAPE  H12X17948   5.439   2.209   7.789 -0.1136 -0.7513  1.4983
  160SAPE  H12Y17949   5.608   2.255   7.738 -1.0549  1.2375 -0.0160
  160SAPE  C31317950   5.577   2.083   7.869  0.2107 -0.3471 -0.1719
  160SAPE  H13X17951   5.490   2.023   7.903  0.9816 -1.3259  0.1429
  160SAPE  H13Y17952   5.602   2.142   7.960  0.4501 -2.5881  1.3189
  160SAPE  C31417953   5.695   1.988   7.847  0.3238 -0.1714  0.7951
  160SAPE  H14X17954   5.773   2.037   7.785  0.7827  0.7557  2.0809
  160SAPE  H14Y17955   5.651   1.904   7.789 -1.4763  1.2166 -0.0015
  160SAPE  C31517956   5.748   1.933   7.981 -0.9457 -0.3151 -0.3836
  160SAPE  H15X17957   5.659   1.907   8.041 -0.1882  1.1389  1.4455
  160SAPE  H15Y17958   5.798   2.027   8.011 -0.4692 -1.0182  1.1238
  160SAPE  C31617959   5.857   1.831   7.964  0.1664  0.1793 -0.8729
  160SAPE  H16X17960   5.938   1.880   7.907  0.4562 -1.1178 -1.6333
  160SAPE  H16Y17961   5.811   1.751   7.902 -0.7143 -0.7949  0.9355
  160SAPE  C31717962   5.907   1.773   8.101  0.2492  0.2175 -0.0762
  160SAPE  H17X17963   5.825   1.721   8.155  0.7988 -0.8990 -0.2989
  160SAPE  H17Y17964   5.938   1.860   8.164  0.3887 -0.8756  1.4345
  160SAPE  C31817965   6.022   1.679   8.075 -0.5904 -0.0843  0.0973
  160SAPE  H18X17966   6.061   1.647   8.175 -0.6748  1.2221  0.5688
  160SAPE  H18Y17967   6.104   1.737   8.027 -0.4112 -0.1139  0.3647
  160SAPE  H18Z17968   5.994   1.597   8.006 -0.3418  1.2234 -1.6182
  161SOPE     N17969   2.435   1.407  10.713  0.7886  0.5424 -0.0704
  161SOPE   HN117970   2.396   1.349  10.790  0.5977 -1.0623 -1.3118
  161SOPE   HN217971   2.504   1.336  10.680  0.1161 -0.0516 -0.2210
  161SOPE   HN317972   2.494   1.481  10.756 -0.9594  0.2332  3.2111
  161SOPE   C1217973   2.330   1.456  10.615  0.4436 -0.2266  0.1274
  161SOPE  H12A17974   2.264   1.380  10.569 -2.4250  0.4643  2.7216
  161SOPE  H12B17975   2.387   1.501  10.531  0.6105 -1.0409 -0.2030
  161SOPE   C1117976   2.256   1.568  10.688  0.3337  0.2401  0.3070
  161SOPE  H11A17977   2.201   1.525  10.775  1.0716 -3.3182 -0.7946
  161SOPE  H11B17978   2.185   1.605  10.611  1.8381  1.2327 -0.6493
  161SOPE     P17979   2.401   1.798  10.652  0.5396  0.2114 -0.3385
  161SOPE   O1317980   2.485   1.871  10.748 -0.6239  0.3925  0.0252
  161SOPE   O1417981   2.296   1.878  10.579 -0.3534 -0.0385  0.3533
  161SOPE   O1217982   2.334   1.677  10.731 -0.5098  0.5649  0.4733
  161SOPE   O1117983   2.492   1.722  10.555 -0.7156  0.2889 -0.2706
  161SOPE    C117984   2.610   1.784  10.496 -0.0030  0.4303  0.3633
  161SOPE    HA17985   2.701   1.723  10.514 -0.6256 -1.1732 -1.5897
  161SOPE    HB17986   2.635   1.890  10.522  0.3596  1.0370 -2.2176
  161SOPE    C217987   2.603   1.775  10.334  0.1356  0.4644  0.0927
  161SOPE    HS17988   2.699   1.808  10.290  0.6693  0.9049  1.5318
  161SOPE   O2117989   2.503   1.862  10.292  0.3286  0.0084 -0.6977
  161SOPE   C2117990   2.512   1.920  10.173  0.3274  0.3011 -0.6202
  161SOPE   O2217991   2.598   1.900  10.093  0.3736 -0.6928 -0.0029
  161SOPE   C2217992   2.385   2.009  10.161 -0.0353 -0.0440 -0.3999
  161SOPE   H2R17993   2.391   2.071  10.253  0.3379  3.2337 -2.4671
  161SOPE   H2S17994   2.296   1.944  10.172  1.2993 -1.7431  0.9235
  161SOPE    C317995   2.577   1.629  10.286 -0.1436  0.1453  0.3592
  161SOPE    HX17996   2.502   1.599  10.362 -0.2157  0.6854  0.5065
  161SOPE    HY17997   2.669   1.569  10.304 -1.6028 -1.9159  1.2161
  161SOPE   O3117998   2.531   1.615  10.151  0.2979  0.2120  0.6140
  161SOPE   C3117999   2.399   1.598  10.134  0.9920  0.0895 -0.1978
  161SOPE   O3218000   2.312   1.590  10.219  0.4152  0.7292  0.1447
  161SOPE   C3218001   2.384   1.577   9.979  0.1201  0.1449 -0.2085
  161SOPE   H2X18002   2.426   1.478   9.950 -0.0738  0.1974 -0.6787
  161SOPE   H2Y18003   2.449   1.653   9.930  1.8884 -0.3329  1.2645
  161SOPE   C2318004   2.397   2.103  10.039 -0.0586  0.9310 -1.0402
  161SOPE   H3R18005   2.492   2.161  10.043 -0.0984  1.2015 -3.2012
  161SOPE   H3S18006   2.311   2.173  10.054 -0.1249  0.2789  2.4733
  161SOPE   C2418007   2.390   2.032   9.902  0.2964  0.2829 -0.1997
  161SOPE   H4R18008   2.473   1.958   9.911  2.3341  2.7000  3.7375
  161SOPE   H4S18009   2.291   1.981   9.895 -0.7156  2.1842 -0.2803
  161SOPE   C2518010   2.395   2.119   9.780  0.2074  0.1703 -0.3523
  161SOPE   H5R18011   2.300   2.175   9.793  0.0001 -0.6214  2.0733
  161SOPE   H5S18012   2.484   2.184   9.794 -0.8922  1.7926 -0.7309
  161SOPE   C2618013   2.400   2.053   9.644 -0.3283 -0.4107 -0.5840
  161SOPE   H6R18014   2.300   2.008   9.627  0.8268 -3.0603 -0.9550
  161SOPE   H6S18015   2.405   2.136   9.570  2.7772 -0.1951 -0.2547
  161SOPE   C2718016   2.519   1.960   9.615 -0.3265  0.0634 -0.2686
  161SOPE   H7R18017   2.615   2.003   9.651  0.1749 -0.1964 -1.2666
  161SOPE   H7S18018   2.496   1.864   9.667 -2.1753  1.1119  0.9637
  161SOPE   C2818019   2.530   1.923   9.468  0.3127 -0.0423  0.3119
  161SOPE   H8R18020   2.594   1.832   9.458 -1.3496 -1.2531  0.2602
  161SOPE   H8S18021   2.426   1.907   9.434  0.4040 -0.4317  0.2130
  161SOPE   C2918022   2.592   2.027   9.372  0.1875 -0.3152  0.0730
  161SOPE   H9118023   2.699   2.043   9.389 -0.4798  3.6606  1.4453
  161SOPE  C21018024   2.539   2.110   9.287  0.2711  0.4456 -0.2220
  161SOPE  H10118025   2.608   2.162   9.219  1.7589 -1.0092  0.1058
  161SOPE  C21118026   2.389   2.127   9.262  0.5959 -0.3815  0.5296
  161SOPE  H11R18027   2.368   2.236   9.259  0.4229 -0.4041 -2.6764
  161SOPE  H11S18028   2.327   2.079   9.341 -0.1106 -0.2231  0.0898
  161SOPE  C21218029   2.340   2.071   9.125 -0.1561 -0.4900  0.1576
  161SOPE  H12R18030   2.244   2.122   9.103  0.0087 -0.0068  0.5404
  161SOPE  H12S18031   2.314   1.963   9.137  0.2284 -0.6269 -0.2193
  161SOPE  C21318032   2.429   2.107   9.002 -0.3915  0.0764 -0.1097
  161SOPE  H13R18033   2.533   2.077   9.027 -1.0335 -0.5841  2.0133
  161SOPE  H13S18034   2.432   2.218   9.002 -2.9151  0.1983  0.0850
  161SOPE  C21418035   2.376   2.067   8.866  0.7385  1.5832  0.3298
  161SOPE  H14R18036   2.449   2.104   8.791  1.6255  0.1118  0.4271
  161SOPE  H14S18037   2.280   2.119   8.846 -1.2007 -1.9108 -0.2227
  161SOPE  C21518038   2.370   1.916   8.836 -0.2881  0.2155 -0.2714
  161SOPE  H15R18039   2.346   1.899   8.729  1.0171  0.5946 -0.6378
  161SOPE  H15S18040   2.292   1.862   8.894 -0.2542  1.3837  0.9233
  161SOPE  C21618041   2.501   1.838   8.864 -0.4506 -0.5365  0.4003
  161SOPE  H16R18042   2.526   1.831   8.972  0.4699  0.3935  0.2619
  161SOPE  H16S18043   2.590   1.886   8.818 -1.7507  1.3714 -0.2377
  161SOPE  C21718044   2.492   1.692   8.828 -0.5743  0.1178  0.3879
  161SOPE  H17R18045   2.436   1.673   8.734 -0.6756  0.1886  0.4339
  161SOPE  H17S18046   2.431   1.650   8.911  1.5734 -3.5221  0.3258
  161SOPE  C21818047   2.635   1.616   8.826  0.8516  0.2200  0.0044
  161SOPE  H18R18048   2.633   1.509   8.798 -0.1908 -0.7924  3.4359
  161SOPE  H18S18049   2.666   1.609   8.932  1.7881 -1.2098 -0.3330
  161SOPE  H18T18050   2.704   1.669   8.757  1.3794 -0.0623  0.3166
  161SOPE   C3318051   2.236   1.584   9.919  0.2129  0.0433 -0.6962
  161SOPE   H3X18052   2.177   1.654   9.983  3.9849 -0.5979  4.1078
  161SOPE   H3Y18053   2.192   1.484   9.939 -0.0935  0.6437  2.0783
  161SOPE   C3418054   2.234   1.610   9.774 -0.1333  0.8486 -0.7353
  161SOPE   H4X18055   2.265   1.714   9.752 -0.5720  1.2326  0.3822
  161SOPE   H4Y18056   2.133   1.591   9.732 -0.4518 -0.9624  0.6958
  161SOPE   C3518057   2.328   1.509   9.700  0.3725  0.1238 -0.0723
  161SOPE   H5X18058   2.306   1.408   9.741  2.0489  0.0533  0.7066
  161SOPE   H5Y18059   2.435   1.531   9.714  1.0373 -2.7286 -0.0599
  161SOPE   C3618060   2.299   1.498   9.551 -0.0550  0.1550 -0.6673
  161SOPE   H6X18061   2.314   1.603   9.518 -0.8409  0.3584 -0.4030
  161SOPE   H6Y18062   2.196   1.461   9.529  0.7680 -0.6602 -3.7272
  161SOPE   C3718063   2.407   1.412   9.486  0.1347 -0.1921  0.6770
  161SOPE   H7X18064   2.391   1.307   9.519  1.9979 -0.2381  1.5371
  161SOPE   H7Y18065   2.509   1.427   9.525  0.4275  0.2191 -0.2174
  161SOPE   C3818066   2.416   1.430   9.334 -1.1086 -0.2292 -0.0966
  161SOPE   H8X18067   2.449   1.534   9.316 -1.1748 -0.0423  0.8265
  161SOPE   H8Y18068   2.316   1.427   9.285 -1.0982 -1.2048 -0.0747
  161SOPE   C3918069   2.499   1.321   9.265  0.6372 -1.0375  0.4629
  161SOPE   H9X18070   2.461   1.224   9.301 -0.6981 -1.2582 -1.3708
  161SOPE   H9Y18071   2.596   1.343   9.314  0.8172  0.2229 -0.3889
  161SOPE  C31018072   2.502   1.330   9.111  0.3259  0.6316 -0.1321
  161SOPE  H10X18073   2.568   1.416   9.086  3.2189 -0.6536  2.4734
  161SOPE  H10Y18074   2.399   1.343   9.072  0.7626 -0.1458 -1.5862
  161SOPE  C31118075   2.564   1.197   9.054  1.1881 -0.8712 -0.6055
  161SOPE  H11X18076   2.511   1.110   9.099  1.8152 -0.2635  1.4193
  161SOPE  H11Y18077   2.663   1.183   9.104  0.3422 -1.7106  0.9041
  161SOPE  C31218078   2.573   1.209   8.905  0.2076 -0.7929 -0.0070
  161SOPE  H12X18079   2.619   1.307   8.879  1.7121 -1.5049 -0.1573
  161SOPE  H12Y18080   2.470   1.211   8.864  0.3621  0.9083 -0.4097
  161SOPE  C31318081   2.665   1.096   8.850  0.0885 -0.3484 -0.0143
  161SOPE  H13X18082   2.641   1.006   8.911 -0.1396  0.3071  0.8908
  161SOPE  H13Y18083   2.770   1.121   8.874 -0.0319  1.1414 -0.9472
  161SOPE  C31418084   2.646   1.063   8.697 -0.2866  0.0656  0.0820
  161SOPE  H14X18085   2.677   1.149   8.635  2.7757 -0.5716  0.5615
  161SOPE  H14Y18086   2.543   1.028   8.676 -0.6336  1.3196 -0.3547
  161SOPE  C31518087   2.728   0.936   8.669 -0.5669  0.3011  0.3569
  161SOPE  H15X18088   2.672   0.847   8.703  0.5592  0.1843  2.0230
  161SOPE  H15Y18089   2.823   0.943   8.725  0.0180 -2.2765 -0.2142
  161SOPE  C31618090   2.739   0.913   8.516 -0.2691 -0.3882 -0.4898
  161SOPE  H16X18091   2.780   1.008   8.476 -0.5873 -0.9619 -2.2347
  161SOPE  H16Y18092   2.635   0.888   8.488 -0.4737 -0.3628  0.2184
  161SOPE  C31718093   2.832   0.799   8.487  0.5256 -0.0780  0.1413
  161SOPE  H17X18094   2.931   0.818   8.534 -0.0725 -1.2502  1.9966
  161SOPE  H17Y18095   2.842   0.798   8.376 -1.0869  1.7085 -0.0696
  161SOPE  C31818096   2.784   0.658   8.531  0.1534 -0.2141 -0.5097
  161SOPE  H18X18097   2.778   0.645   8.641 -5.0252  0.1551 -0.4858
  161SOPE  H18Y18098   2.855   0.581   8.495 -1.5347 -1.3795 -1.5299
  161SOPE  H18Z18099   2.683   0.627   8.495 -2.1634  2.2450  3.1246
  162SOPE     N18100   5.530   2.975  10.917  0.1395  0.6481  0.4570
  162SOPE   HN118101   5.626   2.989  10.878 -0.2884  0.3483 -0.7330
  162SOPE   HN218102   5.491   2.889  10.873 -1.7122  0.8926  1.5161
  162SOPE   HN318103   5.477   3.060  10.890 -0.9612  0.5862  2.2789
  162SOPE   C1218104   5.528   2.964  11.065 -0.3112 -0.5162 -0.5083
  162SOPE  H12A18105   5.494   2.860  11.085 -1.7964  0.1406  0.5525
  162SOPE  H12B18106   5.437   3.020  11.096 -0.1660 -1.4204  1.7601
  162SOPE   C1118107   5.658   3.004  11.144  0.3929  0.0999 -0.1966
  162SOPE  H11A18108   5.744   2.943  11.109  0.0850 -1.2986  1.3482
  162SOPE  H11B18109   5.643   2.989  11.253 -1.4633  2.1258 -0.1127
  162SOPE     P18110   5.788   3.203  11.033 -0.2167  0.0981  0.4520
  162SOPE   O1318111   5.920   3.194  11.097  0.2252  0.1086  0.0832
  162SOPE   O1418112   5.755   3.337  10.996 -0.7159 -0.1154 -0.3960
  162SOPE   O1218113   5.680   3.149  11.133 -0.0629  0.1384 -0.3969
  162SOPE   O1118114   5.776   3.097  10.912 -0.2320 -0.1464 -0.0279
  162SOPE    C118115   5.871   3.080  10.806  0.3625  0.0105  0.2178
  162SOPE    HA18116   5.897   2.972  10.799 -0.7467 -0.4584  2.5181
  162SOPE    HB18117   5.965   3.126  10.843  0.5579 -0.6015  0.4934
  162SOPE    C218118   5.848   3.151  10.665  0.3261  0.5988 -0.1592
  162SOPE    HS18119   5.837   3.260  10.680 -3.0190  0.7838 -2.8660
  162SOPE   O2118120   5.712   3.107  10.635 -0.5049  0.4092  0.4193
  162SOPE   C2118121   5.630   3.178  10.562 -0.0892  0.0628  0.0747
  162SOPE   O2218122   5.631   3.297  10.551  1.1611  0.3515  0.8086
  162SOPE   C2218123   5.532   3.077  10.489  1.1450 -0.3291 -0.0033
  162SOPE   H2R18124   5.434   3.127  10.479  0.5932 -0.6901  2.6701
  162SOPE   H2S18125   5.505   3.002  10.567  1.3457 -0.5943 -0.1848
  162SOPE    C318126   5.958   3.119  10.559 -0.5103 -0.2343 -0.1655
  162SOPE    HX18127   5.984   3.011  10.563 -0.2810 -0.2192 -0.9901
  162SOPE    HY18128   6.046   3.177  10.593 -0.4912 -0.4135  0.0915
  162SOPE   O3118129   5.919   3.153  10.418 -0.1250  0.4072  0.5002
  162SOPE   C3118130   6.013   3.191  10.345 -0.1123 -0.0010  0.4030
  162SOPE   O3218131   6.131   3.176  10.368  0.4687 -0.2616  0.0165
  162SOPE   C3218132   5.951   3.250  10.221  0.5605  0.4853  0.1875
  162SOPE   H2X18133   5.892   3.342  10.240  0.2104 -0.0215  1.6939
  162SOPE   H2Y18134   5.877   3.179  10.177  1.3161 -1.4041  1.8125
  162SOPE   C2318135   5.575   3.025  10.347 -0.0843 -0.1357  0.1053
  162SOPE   H3R18136   5.499   2.950  10.316 -1.7237  2.5240 -2.7642
  162SOPE   H3S18137   5.669   2.967  10.354  0.0048 -0.1411 -0.9627
  162SOPE   C2418138   5.582   3.142  10.249  0.1147 -0.3435  0.0737
  162SOPE   H4R18139   5.488   3.201  10.249  0.0984 -0.3666  0.6974
  162SOPE   H4S18140   5.672   3.205  10.263  0.9592 -0.9013 -2.3965
  162SOPE   C2518141   5.609   3.077  10.117  0.6560 -0.2122 -1.1116
  162SOPE   H5R18142   5.705   3.020  10.113  1.0676  0.2632  0.7986
  162SOPE   H5S18143   5.531   3.000  10.098 -0.3812  0.3847  0.5216
  162SOPE   C2618144   5.626   3.175  10.000 -0.3186  0.3493  0.3254
  162SOPE   H6R18145   5.540   3.245   9.992 -0.6184 -0.0773 -0.2429
  162SOPE   H6S18146   5.714   3.242  10.013 -0.0370 -0.4580  3.1911
  162SOPE   C2718147   5.657   3.102   9.867  0.3354 -0.3801 -0.1385
  162SOPE   H7R18148   5.768   3.100   9.859  0.6531  1.0564  2.4601
  162SOPE   H7S18149   5.600   3.007   9.874 -2.2430  1.0605 -0.0748
  162SOPE   C2818150   5.605   3.181   9.751  0.3017  0.8717  0.1831
  162SOPE   H8R18151   5.619   3.112   9.665  1.1149 -0.2581  1.1810
  162SOPE   H8S18152   5.496   3.183   9.771  0.4819 -0.2123  1.4092
  162SOPE   C2918153   5.670   3.316   9.736 -0.7473  0.1322  1.0151
  162SOPE   H9118154   5.654   3.396   9.810  3.6952  1.7286  0.5445
  162SOPE  C21018155   5.742   3.351   9.631 -0.3107 -0.0689  0.0612
  162SOPE  H10118156   5.775   3.455   9.617  1.0080 -0.1761  2.0004
  162SOPE  C21118157   5.780   3.267   9.511  0.1959  0.4203 -0.2222
  162SOPE  H11R18158   5.776   3.162   9.545 -0.6694  0.1251 -1.1947
  162SOPE  H11S18159   5.885   3.281   9.476 -0.0554 -0.1554 -1.2650
  162SOPE  C21218160   5.690   3.271   9.385  0.4347  0.9122 -0.1402
  162SOPE  H12R18161   5.689   3.367   9.329  0.6997  0.2200 -1.3781
  162SOPE  H12S18162   5.589   3.240   9.419  1.0679  0.3250  1.2966
  162SOPE  C21318163   5.734   3.162   9.280  0.7990 -0.4807  0.3867
  162SOPE  H13R18164   5.774   3.074   9.334  1.5341 -0.7616 -0.5613
  162SOPE  H13S18165   5.822   3.205   9.227  1.3225 -0.6834  1.0691
  162SOPE  C21418166   5.625   3.117   9.179 -1.4751 -0.3447  0.1612
  162SOPE  H14R18167   5.549   3.059   9.236 -1.6492 -0.0502  0.2324
  162SOPE  H14S18168   5.663   3.049   9.100 -4.0758 -0.5885 -0.9691
  162SOPE  C21518169   5.559   3.231   9.107  0.0716  0.5415  0.7380
  162SOPE  H15R18170   5.489   3.272   9.182 -2.5769 -2.4981  0.1443
  162SOPE  H15S18171   5.498   3.184   9.027  0.6136  1.3725 -0.1798
  162SOPE  C21618172   5.648   3.333   9.034  0.2680  0.3821 -1.5365
  162SOPE  H16R18173   5.708   3.271   8.964  1.4459 -1.5022  0.9762
  162SOPE  H16S18174   5.718   3.375   9.109 -1.3965  4.2294 -1.8676
  162SOPE  C21718175   5.571   3.451   8.971 -0.2619  0.7910  0.7897
  162SOPE  H17R18176   5.517   3.410   8.882 -0.0603  0.9578  0.5893
  162SOPE  H17S18177   5.650   3.524   8.943 -0.0256  0.3745  0.3551
  162SOPE  C21818178   5.468   3.512   9.065 -0.1206 -0.3278  0.4181
  162SOPE  H18R18179   5.446   3.610   9.017  1.3328  0.7520  1.8712
  162SOPE  H18S18180   5.512   3.525   9.165  1.2915 -0.6429 -0.1331
  162SOPE  H18T18181   5.381   3.443   9.069  0.1771 -0.8358 -1.1364
  162SOPE   C3318182   6.057   3.280  10.119 -0.7697 -0.6434 -0.7695
  162SOPE   H3X18183   6.121   3.194  10.088  0.3160  0.3178 -1.2748
  162SOPE   H3Y18184   6.122   3.366  10.147 -0.9194 -0.8753  0.3594
  162SOPE   C3418185   5.998   3.325   9.983  0.1290 -0.7498 -0.5892
  162SOPE   H4X18186   5.937   3.416  10.000  1.6854  0.0678  1.0273
  162SOPE   H4Y18187   5.931   3.249   9.938 -0.3563 -0.6237 -0.0924
  162SOPE   C3518188   6.111   3.358   9.878  0.7758  0.0498  0.0735
  162SOPE   H5X18189   6.207   3.386   9.927  0.1342  1.2724  0.6774
  162SOPE   H5Y18190   6.065   3.421   9.799 -0.5692  1.0065  1.5500
  162SOPE   C3618191   6.140   3.231   9.805 -0.3484 -0.2233 -0.4986
  162SOPE   H6X18192   6.045   3.190   9.766  0.2426 -0.1249 -2.0938
  162SOPE   H6Y18193   6.182   3.153   9.873 -1.2083 -0.4768 -0.2430
  162SOPE   C3718194   6.249   3.241   9.703 -0.0519  0.2530  0.2094
  162SOPE   H7X18195   6.276   3.140   9.667 -0.6434 -0.3668  1.4330
  162SOPE   H7Y18196   6.340   3.284   9.750  2.3438 -1.4244 -2.5631
  162SOPE   C3818197   6.192   3.320   9.587 -0.0682 -0.3834  0.7268
  162SOPE   H8X18198   6.193   3.429   9.607 -0.7362 -0.2638  0.1464
  162SOPE   H8Y18199   6.085   3.290   9.577  0.0497 -0.6169  0.1435
  162SOPE   C3918200   6.264   3.288   9.453 -0.2542  0.2529  0.7347
  162SOPE   H9X18201   6.257   3.179   9.434 -0.3996  0.4005 -0.1193
  162SOPE   H9Y18202   6.372   3.312   9.463  0.7102 -2.0080 -2.5084
  162SOPE  C31018203   6.214   3.349   9.324  0.1711  1.2069 -0.1266
  162SOPE  H10X18204   6.104   3.332   9.335  0.3181  0.6972  0.5992
  162SOPE  H10Y18205   6.253   3.287   9.241  1.1225  0.6657  0.7164
  162SOPE  C31118206   6.238   3.501   9.303 -0.4157 -0.1503 -0.1894
  162SOPE  H11X18207   6.338   3.544   9.330 -0.7353 -0.3449  1.4483
  162SOPE  H11Y18208   6.165   3.554   9.368 -1.3032  1.7485 -2.5744
  162SOPE  C31218209   6.205   3.545   9.152 -0.7551  0.7834  0.1857
  162SOPE  H12X18210   6.300   3.522   9.099 -0.5337 -0.4550  1.0693
  162SOPE  H12Y18211   6.177   3.652   9.153  0.5162  1.1341  0.8965
  162SOPE  C31318212   6.086   3.482   9.090  0.0077  0.5138  0.4131
  162SOPE  H13X18213   5.990   3.496   9.144 -0.0301 -1.4305  0.9388
  162SOPE  H13Y18214   6.095   3.372   9.076 -2.0360  0.5794 -2.2776
  162SOPE  C31418215   6.070   3.540   8.941 -0.2569  0.3788 -0.3912
  162SOPE  H14X18216   6.155   3.497   8.885  0.1751  0.2453  0.3551
  162SOPE  H14Y18217   6.067   3.651   8.944 -1.2358  0.3505  0.0572
  162SOPE  C31518218   5.936   3.498   8.876 -0.9650 -0.0764  0.3428
  162SOPE  H15X18219   5.852   3.564   8.904 -1.5261 -0.4711 -0.3608
  162SOPE  H15Y18220   5.911   3.398   8.919 -0.1449 -0.5353 -0.2046
  162SOPE  C31618221   5.939   3.489   8.720  0.0018  0.0365 -0.3561
  162SOPE  H16X18222   6.023   3.427   8.685  0.1582 -0.1884  0.3854
  162SOPE  H16Y18223   5.972   3.590   8.688  2.2957 -0.2079  0.9846
  162SOPE  C31718224   5.811   3.447   8.650  1.0152 -0.1177 -0.8409
  162SOPE  H17X18225   5.822   3.477   8.543  3.2759  0.2363 -0.5559
  162SOPE  H17Y18226   5.722   3.504   8.684  2.4066  1.5508  0.1524
  162SOPE  C31818227   5.806   3.295   8.669  0.9818  0.1664 -0.0761
  162SOPE  H18X18228   5.809   3.270   8.777 -0.6946  0.4387  0.0554
  162SOPE  H18Y18229   5.887   3.237   8.621  1.9736 -0.0395  1.7332
  162SOPE  H18Z18230   5.705   3.257   8.643  1.8684 -1.0326 -1.9148
  163SOPE     N18231   1.527   6.591  10.705 -0.3015  0.0327 -0.0616
  163SOPE   HN118232   1.603   6.533  10.746 -0.7908  1.2036  2.6854
  163SOPE   HN218233   1.535   6.683  10.754 -0.0746 -0.1007  0.1536
  163SOPE   HN318234   1.439   6.548  10.739 -0.6327 -1.4917 -2.5792
  163SOPE   C1218235   1.547   6.584  10.558 -0.3665  0.2239 -0.6423
  163SOPE  H12A18236   1.643   6.625  10.520  0.5075 -2.8152 -2.0337
  163SOPE  H12B18237   1.455   6.621  10.508 -0.5472  1.1960  0.3731
  163SOPE   C1118238   1.556   6.434  10.524  0.0549  0.7637  0.4665
  163SOPE  H11A18239   1.579   6.413  10.418  0.4381 -2.0668  1.0427
  163SOPE  H11B18240   1.457   6.386  10.541  0.1783  0.8923  1.6312
  163SOPE     P18241   1.722   6.242  10.580  0.2916 -0.3271 -0.4524
  163SOPE   O1318242   1.615   6.143  10.599  0.0342 -0.1495 -0.0166
  163SOPE   O1418243   1.837   6.225  10.669  0.2254  0.1550  0.4953
  163SOPE   O1218244   1.662   6.383  10.609 -0.8700  0.1908 -0.2197
  163SOPE   O1118245   1.774   6.250  10.430  0.2096  0.1024 -0.1316
  163SOPE    C118246   1.893   6.327  10.401 -0.1921  0.4019  0.0947
  163SOPE    HA18247   1.981   6.279  10.449  0.0740  0.4080 -0.3866
  163SOPE    HB18248   1.885   6.430  10.441  1.4348  0.6575 -0.1797
  163SOPE    C218249   1.937   6.321  10.252  0.0327 -0.8562  0.3049
  163SOPE    HS18250   2.036   6.371  10.251  0.4582 -1.6758 -0.1270
  163SOPE   O2118251   1.843   6.391  10.167  0.1872 -0.1565 -0.0133
  163SOPE   C2118252   1.890   6.420  10.041  0.3066  0.0300  0.7447
  163SOPE   O2218253   2.007   6.426  10.018  0.0425  0.2086 -0.1251
  163SOPE   C2218254   1.774   6.441   9.938  0.3499  0.3482 -0.8213
  163SOPE   H2R18255   1.677   6.463   9.987  0.0565 -0.2163 -1.1428
  163SOPE   H2S18256   1.756   6.340   9.896 -2.1316  0.6238 -0.5871
  163SOPE    C318257   1.953   6.170  10.200 -0.2173 -0.3376 -0.0427
  163SOPE    HX18258   1.849   6.137  10.179 -1.0859  0.6841  2.3153
  163SOPE    HY18259   1.997   6.093  10.266  2.3153 -1.2924 -2.6155
  163SOPE   O3118260   2.045   6.160  10.089  0.1822  0.2873  0.0353
  163SOPE   C3118261   2.176   6.181  10.106 -0.3134  0.0520 -0.0031
  163SOPE   O3218262   2.233   6.204  10.216  0.4728  0.1073  0.4818
  163SOPE   C3218263   2.246   6.167   9.972  0.0236  0.1788  0.0748
  163SOPE   H2X18264   2.179   6.146   9.886 -0.6100  1.0627  0.3353
  163SOPE   H2Y18265   2.318   6.083   9.981 -1.1812 -0.7530  1.5322
  163SOPE   C2318266   1.813   6.538   9.815  0.3823  0.1648  0.3761
  163SOPE   H3R18267   1.919   6.518   9.787  0.7042  0.4120  1.3608
  163SOPE   H3S18268   1.795   6.647   9.825 -1.8307 -0.0528 -0.5686
  163SOPE   C2418269   1.749   6.493   9.681 -0.3167  0.1443 -0.1724
  163SOPE   H4R18270   1.758   6.383   9.675  0.5218  0.1961  0.0232
  163SOPE   H4S18271   1.644   6.531   9.678 -0.0450  0.8745 -0.7138
  163SOPE   C2518272   1.815   6.555   9.560 -0.5107  0.2107 -0.7028
  163SOPE   H5R18273   1.813   6.666   9.573 -0.4086 -0.0063  1.5286
  163SOPE   H5S18274   1.922   6.527   9.553  0.0967  2.3723 -0.8314
  163SOPE   C2618275   1.758   6.498   9.430  0.1310 -0.0696  0.2139
  163SOPE   H6R18276   1.773   6.388   9.426  1.0055  0.0169  0.7866
  163SOPE   H6S18277   1.647   6.507   9.430  0.0394 -0.5583 -2.2043
  163SOPE   C2718278   1.804   6.577   9.304 -0.0022  0.3858  0.8135
  163SOPE   H7R18279   1.803   6.687   9.315  1.5027  0.6219 -0.9284
  163SOPE   H7S18280   1.913   6.557   9.296  0.1728  1.5642  0.0235
  163SOPE   C2818281   1.735   6.535   9.166 -0.0730  0.4665 -0.2312
  163SOPE   H8R18282   1.763   6.620   9.100  0.7895  0.2819 -0.1126
  163SOPE   H8S18283   1.786   6.445   9.127  1.4662  1.7235 -1.2802
  163SOPE   C2918284   1.587   6.523   9.169 -0.5343 -0.5030 -0.6744
  163SOPE   H9118285   1.539   6.604   9.226 -2.4725  0.7924 -3.9053
  163SOPE  C21018286   1.508   6.434   9.112  0.4979  0.2291  0.1700
  163SOPE  H10118287   1.398   6.438   9.113  0.4349 -0.8676  1.2954
  163SOPE  C21118288   1.544   6.322   9.017 -0.2853 -0.5417 -0.5439
  163SOPE  H11R18289   1.485   6.231   9.040 -0.5711 -0.7968 -2.1738
  163SOPE  H11S18290   1.654   6.308   9.003 -0.5468 -1.3186 -2.0473
  163SOPE  C21218291   1.481   6.357   8.877 -0.0151  0.0656  0.1116
  163SOPE  H12R18292   1.371   6.371   8.872  0.1508  1.0352 -1.7647
  163SOPE  H12S18293   1.496   6.267   8.815 -0.6069  0.9383 -1.3411
  163SOPE  C21318294   1.556   6.475   8.801 -0.0974 -0.2066  0.3713
  163SOPE  H13R18295   1.665   6.454   8.807  0.3827  2.0853  0.5609
  163SOPE  H13S18296   1.541   6.571   8.855  0.1461  0.7220 -1.1759
  163SOPE  C21418297   1.511   6.494   8.650  0.1668  0.2188 -0.1266
  163SOPE  H14R18298   1.400   6.508   8.650 -0.1170 -1.5822 -1.9155
  163SOPE  H14S18299   1.512   6.393   8.604 -3.2013 -0.4097  0.9031
  163SOPE  C21518300   1.590   6.597   8.562  0.2009  0.4804  0.7155
  163SOPE  H15R18301   1.699   6.586   8.583  0.9633  1.1823 -2.3952
  163SOPE  H15S18302   1.583   6.704   8.591  1.5089  0.2513  2.0129
  163SOPE  C21618303   1.556   6.580   8.417  0.2746  0.1228  0.3440
  163SOPE  H16R18304   1.584   6.671   8.359 -3.2875  1.3699  0.3364
  163SOPE  H16S18305   1.446   6.572   8.404  0.3360  0.8435 -0.8851
  163SOPE  C21718306   1.624   6.462   8.348 -0.0738  0.5691  0.1630
  163SOPE  H17R18307   1.579   6.368   8.387  1.7963 -0.7687 -0.7374
  163SOPE  H17S18308   1.732   6.462   8.374  0.5330  1.0547 -2.1561
  163SOPE  C21818309   1.618   6.461   8.198  0.3786 -0.1772 -0.4154
  163SOPE  H18R18310   1.512   6.467   8.168  0.2724  2.3664  0.2467
  163SOPE  H18S18311   1.662   6.372   8.148  0.9707  0.8920 -1.8907
  163SOPE  H18T18312   1.669   6.555   8.166 -2.1414  1.1273 -0.8550
  163SOPE   C3318313   2.345   6.279   9.946  0.7888 -0.2659  0.0366
  163SOPE   H3X18314   2.406   6.299  10.037 -1.5976  0.1678  1.6404
  163SOPE   H3Y18315   2.291   6.374   9.926 -1.0807 -1.8233 -3.0095
  163SOPE   C3418316   2.438   6.256   9.834  0.2981  0.4535 -0.3428
  163SOPE   H4X18317   2.506   6.172   9.857 -0.2721 -0.2498 -1.1694
  163SOPE   H4Y18318   2.509   6.340   9.819  0.6441 -0.0022 -1.3015
  163SOPE   C3518319   2.374   6.222   9.693  0.9617  0.4249  0.0784
  163SOPE   H5X18320   2.283   6.161   9.712  1.2138 -0.0407 -0.2148
  163SOPE   H5Y18321   2.448   6.167   9.632 -0.1612  0.3999 -1.3207
  163SOPE   C3618322   2.323   6.350   9.622  0.1282  0.0248 -0.1586
  163SOPE   H6X18323   2.416   6.408   9.606  1.2302 -0.9603  2.2020
  163SOPE   H6Y18324   2.261   6.408   9.694  0.8946  0.1278  0.4337
  163SOPE   C3718325   2.247   6.319   9.489 -0.9803  0.1194 -0.3482
  163SOPE   H7X18326   2.195   6.412   9.457  0.9261  1.5995  0.6225
  163SOPE   H7Y18327   2.166   6.246   9.509 -2.2748  0.8765 -2.4953
  163SOPE   C3818328   2.336   6.278   9.369 -0.3859 -0.3287 -0.0496
  163SOPE   H8X18329   2.395   6.188   9.399  2.5449  1.9820  1.6318
  163SOPE   H8Y18330   2.400   6.367   9.351 -2.0362  0.7090 -1.0151
  163SOPE   C3918331   2.261   6.234   9.237 -0.2504 -0.6082 -0.0070
  163SOPE   H9X18332   2.185   6.157   9.259 -0.3221 -0.7305 -0.6679
  163SOPE   H9Y18333   2.340   6.207   9.163 -0.6087  0.4681 -0.8111
  163SOPE  C31018334   2.194   6.355   9.177  0.0571 -0.8882  0.0813
  163SOPE  H10X18335   2.268   6.437   9.164 -0.5237  0.0232  2.1340
  163SOPE  H10Y18336   2.109   6.394   9.237  1.1912  0.9360  0.5918
  163SOPE  C31118337   2.121   6.325   9.035 -0.8342  0.3392 -0.1919
  163SOPE  H11X18338   2.043   6.246   9.035  0.5222 -1.0678 -1.5850
  163SOPE  H11Y18339   2.193   6.272   8.969 -0.4813 -0.7855  1.0547
  163SOPE  C31218340   2.072   6.446   8.952 -0.6807  0.0954  0.5721
  163SOPE  H12X18341   2.159   6.493   8.901  0.3110 -1.2774  0.9283
  163SOPE  H12Y18342   2.024   6.530   9.007  1.4005  3.0357 -1.7053
  163SOPE  C31318343   1.967   6.399   8.842  0.0143 -0.6120 -0.3226
  163SOPE  H13X18344   1.911   6.484   8.799 -2.9631 -1.1179  2.1670
  163SOPE  H13Y18345   1.885   6.346   8.895 -2.0177  2.2710 -0.4088
  163SOPE  C31418346   2.026   6.332   8.717 -0.6503  0.0004 -0.2891
  163SOPE  H14X18347   2.075   6.234   8.739  3.3209  1.8908  0.2197
  163SOPE  H14Y18348   2.108   6.394   8.676 -0.9713  0.2875 -0.5004
  163SOPE  C31518349   1.936   6.316   8.597 -0.0978 -0.0504  0.2874
  163SOPE  H15X18350   1.981   6.254   8.517 -0.9062 -1.0066  0.5465
  163SOPE  H15Y18351   1.922   6.418   8.555 -0.6275 -0.5827 -0.8412
  163SOPE  C31618352   1.805   6.239   8.627 -0.2564 -0.0221 -0.5315
  163SOPE  H16X18353   1.735   6.238   8.541 -1.0095 -1.1776  0.0745
  163SOPE  H16Y18354   1.754   6.299   8.705 -0.3256 -1.4186  0.5509
  163SOPE  C31718355   1.829   6.093   8.674  0.2433 -0.2056  0.2730
  163SOPE  H17X18356   1.890   6.082   8.766  1.3968  1.4919 -0.2314
  163SOPE  H17Y18357   1.888   6.053   8.588  0.3802  0.3920  0.0808
  163SOPE  C31818358   1.700   6.018   8.688 -0.6444  0.1640  0.1132
  163SOPE  H18X18359   1.724   5.913   8.714 -1.5309 -0.4422 -1.3583
  163SOPE  H18Y18360   1.635   6.019   8.597  0.5010 -1.1291 -0.7658
  163SOPE  H18Z18361   1.629   6.062   8.761 -1.5668 -0.6895 -0.2429
  164SOPE     N18362   4.935   6.736  11.226 -0.2883 -0.7388  0.0318
  164SOPE   HN118363   4.870   6.680  11.284  0.5574 -1.4019  0.3689
  164SOPE   HN218364   4.989   6.658  11.185  2.1313  0.7795  0.0819
  164SOPE   HN318365   4.996   6.802  11.280 -0.5824 -0.9444  0.6312
  164SOPE   C1218366   4.852   6.809  11.122  0.1965  0.8051 -0.0088
  164SOPE  H12A18367   4.921   6.840  11.041  0.1855  2.0764  0.4422
  164SOPE  H12B18368   4.814   6.902  11.170 -1.2290  1.4398 -2.1915
  164SOPE   C1118369   4.726   6.732  11.092 -0.3483  1.1239 -0.0124
  164SOPE  H11A18370   4.671   6.725  11.188  1.4521  0.6541  1.0432
  164SOPE  H11B18371   4.743   6.626  11.062 -2.0845  1.4681 -2.5139
  164SOPE     P18372   4.568   6.740  10.893  0.0160 -0.4567 -0.2942
  164SOPE   O1318373   4.504   6.840  10.802  0.5567 -0.0738  0.0944
  164SOPE   O1418374   4.481   6.642  10.968  0.2329  0.5381  0.0736
  164SOPE   O1218375   4.644   6.809  11.007 -0.3557  0.0294 -0.1913
  164SOPE   O1118376   4.677   6.665  10.811 -0.2686 -0.4213 -0.7949
  164SOPE    C118377   4.797   6.722  10.764  0.5182  0.2134  0.3437
  164SOPE    HA18378   4.875   6.658  10.809 -1.9262 -2.6072  0.9098
  164SOPE    HB18379   4.807   6.828  10.796 -1.8657  0.0980  1.7663
  164SOPE    C218380   4.810   6.698  10.609 -0.4981 -0.6390 -0.1108
  164SOPE    HS18381   4.807   6.592  10.578 -0.0847 -0.3912 -1.0303
  164SOPE   O2118382   4.931   6.755  10.570 -1.1155  0.1796 -0.0488
  164SOPE   C2118383   5.044   6.681  10.587  0.6470  0.2925  0.0105
  164SOPE   O2218384   5.039   6.568  10.636  0.1705 -0.7803 -0.1429
  164SOPE   C2218385   5.177   6.743  10.539 -0.4389 -0.2935  0.1808
  164SOPE   H2R18386   5.200   6.822  10.613  1.1534 -0.3687 -0.2045
  164SOPE   H2S18387   5.147   6.807  10.453 -0.0965  0.3551  0.5460
  164SOPE    C318388   4.694   6.776  10.531 -0.1720  0.2438 -0.5572
  164SOPE    HX18389   4.684   6.872  10.585 -2.0156  0.1046 -0.5822
  164SOPE    HY18390   4.606   6.716  10.561 -0.6400  0.3687 -1.6392
  164SOPE   O3118391   4.694   6.789  10.388 -0.4780  0.3911 -0.2578
  164SOPE   C3118392   4.676   6.912  10.337 -0.2679  1.0363 -0.2450
  164SOPE   O3218393   4.652   7.013  10.397 -0.2004  0.2682  0.0907
  164SOPE   C3218394   4.709   6.905  10.185  0.1892  0.4573 -0.7843
  164SOPE   H2X18395   4.659   6.821  10.132 -0.2037 -0.6234  1.2055
  164SOPE   H2Y18396   4.820   6.894  10.176  0.0814 -1.2326 -0.3552
  164SOPE   C2318397   5.284   6.642  10.512 -0.5339  0.2297 -0.2113
  164SOPE   H3R18398   5.308   6.589  10.607  1.3762 -0.2062 -0.8780
  164SOPE   H3S18399   5.382   6.695  10.502 -0.5257  0.2824  0.1241
  164SOPE   C2418400   5.259   6.546  10.393 -0.5393  0.4505  0.3103
  164SOPE   H4R18401   5.349   6.483  10.380 -0.8439 -0.3080  1.7018
  164SOPE   H4S18402   5.183   6.469  10.420 -0.4645 -0.2166 -1.2475
  164SOPE   C2518403   5.217   6.615  10.258  0.1417 -0.0178 -0.5439
  164SOPE   H5R18404   5.201   6.541  10.176  1.3735 -0.1379 -0.6952
  164SOPE   H5S18405   5.119   6.659  10.284  2.1112  2.1089  4.5118
  164SOPE   C2618406   5.309   6.732  10.203  0.1581  0.2956 -0.6737
  164SOPE   H6R18407   5.364   6.777  10.288  0.4809 -0.5651 -0.4153
  164SOPE   H6S18408   5.386   6.686  10.137  1.6317  1.1144  0.4127
  164SOPE   C2718409   5.238   6.857  10.145 -0.2308 -0.2212 -0.9609
  164SOPE   H7R18410   5.175   6.910  10.220  0.5497 -0.3774 -0.1796
  164SOPE   H7S18411   5.324   6.923  10.121  1.6915 -3.3348 -3.3434
  164SOPE   C2818412   5.149   6.816  10.031  0.1557  0.2495  0.2686
  164SOPE   H8R18413   5.210   6.751   9.965 -1.3784 -2.1094  1.0387
  164SOPE   H8S18414   5.056   6.760  10.055 -0.0053  1.0375  1.5961
  164SOPE   C2918415   5.109   6.943   9.973  0.0864 -0.3871  0.6527
  164SOPE   H9118416   5.080   7.029  10.035 -0.9773 -0.4192  0.2313
  164SOPE  C21018417   5.106   6.982   9.845 -0.4536 -0.0821 -0.3566
  164SOPE  H10118418   5.084   7.088   9.830 -1.5252 -0.4516 -1.6525
  164SOPE  C21118419   5.138   6.907   9.721  0.1928  0.4825  0.0175
  164SOPE  H11R18420   5.171   6.803   9.740  1.1531  0.7061 -0.4109
  164SOPE  H11S18421   5.219   6.960   9.667 -0.0347  0.6220 -0.1875
  164SOPE  C21218422   5.016   6.903   9.628 -0.4004  0.8399  0.3954
  164SOPE  H12R18423   4.993   7.010   9.606 -0.4840  1.0508  1.4368
  164SOPE  H12S18424   4.937   6.861   9.693 -0.8546  1.9087  0.5552
  164SOPE  C21318425   5.037   6.823   9.501 -0.0147 -0.8636  0.8979
  164SOPE  H13R18426   4.941   6.794   9.455 -1.3633  1.9737  1.7224
  164SOPE  H13S18427   5.084   6.726   9.529 -0.5586 -0.9388  1.5809
  164SOPE  C21418428   5.139   6.894   9.403 -0.2087  0.0568 -0.5289
  164SOPE  H14R18429   5.184   6.818   9.337 -0.4282 -1.8939  1.4606
  164SOPE  H14S18430   5.218   6.943   9.464 -2.1826  1.6853  0.9019
  164SOPE  C21518431   5.080   6.994   9.301 -0.0079  0.3648 -0.6130
  164SOPE  H15R18432   5.036   7.083   9.350 -2.2190 -1.8562  1.7559
  164SOPE  H15S18433   4.996   6.939   9.253 -1.0787 -0.4343  2.0000
  164SOPE  C21618434   5.175   7.050   9.192  0.5783  0.3202 -0.0478
  164SOPE  H16R18435   5.192   6.972   9.114 -4.1316  0.4793 -1.5285
  164SOPE  H16S18436   5.262   7.094   9.246 -0.2460  1.1587  0.6302
  164SOPE  C21718437   5.116   7.159   9.103  0.4677 -0.1901  0.2865
  164SOPE  H17R18438   5.134   7.260   9.146 -2.3340  1.9206 -3.0285
  164SOPE  H17S18439   5.005   7.165   9.111  0.1827 -1.3666 -2.0780
  164SOPE  C21818440   5.157   7.164   8.954 -0.9679 -0.3940 -0.4404
  164SOPE  H18R18441   5.105   7.250   8.908 -1.3580 -1.1393 -1.4342
  164SOPE  H18S18442   5.141   7.068   8.901 -0.9230  0.1931 -1.5317
  164SOPE  H18T18443   5.265   7.191   8.946 -0.6514 -0.5259  2.3258
  164SOPE   C3318444   4.669   7.040  10.123 -0.5811 -0.8638  0.1715
  164SOPE   H3X18445   4.703   7.123  10.189 -0.2104 -1.5541  0.8631
  164SOPE   H3Y18446   4.558   7.046  10.122 -0.5120  2.9498 -0.7325
  164SOPE   C3418447   4.703   7.038   9.978 -0.3300  0.1584  0.1200
  164SOPE   H4X18448   4.662   6.952   9.921 -0.6526 -0.5171  1.3381
  164SOPE   H4Y18449   4.814   7.041   9.975 -0.3504  0.7968 -0.1664
  164SOPE   C3518450   4.659   7.167   9.909  0.3555 -0.3724  0.4474
  164SOPE   H5X18451   4.711   7.242   9.973  0.6474 -1.6509  1.7674
  164SOPE   H5Y18452   4.550   7.181   9.920  0.5256  2.1887 -0.3671
  164SOPE   C3618453   4.709   7.184   9.763 -0.0020 -0.4079 -0.5839
  164SOPE   H6X18454   4.672   7.099   9.702 -0.8763 -1.7400  1.6821
  164SOPE   H6Y18455   4.819   7.195   9.758 -0.1651  0.6988 -2.1385
  164SOPE   C3718456   4.644   7.310   9.701  0.3027 -0.4827 -0.3149
  164SOPE   H7X18457   4.680   7.397   9.758 -2.1343  0.7323 -0.5018
  164SOPE   H7Y18458   4.535   7.290   9.703  0.2601 -0.3115 -0.7773
  164SOPE   C3818459   4.665   7.317   9.552 -0.2493 -0.3373 -0.3413
  164SOPE   H8X18460   4.772   7.338   9.529 -0.2563 -1.0463 -1.0812
  164SOPE   H8Y18461   4.604   7.401   9.512 -0.3542 -1.3159 -2.3598
  164SOPE   C3918462   4.632   7.192   9.477 -1.0456  0.4825 -0.8511
  164SOPE   H9X18463   4.545   7.138   9.519  0.6695 -0.9235  1.0519
  164SOPE   H9Y18464   4.721   7.126   9.491  1.0202  3.2694  0.1876
  164SOPE  C31018465   4.615   7.226   9.332  0.7938  0.0280 -1.4405
  164SOPE  H10X18466   4.691   7.302   9.303 -0.5623  0.9723 -2.6261
  164SOPE  H10Y18467   4.522   7.287   9.329  1.5870  1.2905 -1.1001
  164SOPE  C31118468   4.620   7.103   9.238 -0.2051 -0.1024  0.1911
  164SOPE  H11X18469   4.528   7.047   9.264  0.3211 -0.7797  0.6394
  164SOPE  H11Y18470   4.709   7.044   9.270 -1.1627  0.2318  3.8444
  164SOPE  C31218471   4.640   7.145   9.093  0.4509  0.8309 -0.0571
  164SOPE  H12X18472   4.747   7.173   9.083  0.6445  0.7269  1.5083
  164SOPE  H12Y18473   4.563   7.224   9.080 -0.4102  0.3056  1.5415
  164SOPE  C31318474   4.612   7.033   8.995  0.3071  0.4020  0.0148
  164SOPE  H13X18475   4.508   7.000   9.018 -0.1557  1.5389 -0.4027
  164SOPE  H13Y18476   4.683   6.950   9.018 -0.7456 -0.1423  1.4275
  164SOPE  C31418477   4.627   7.062   8.845 -0.2083 -0.0371 -0.1929
  164SOPE  H14X18478   4.734   7.076   8.819 -0.0184  1.8569  1.4225
  164SOPE  H14Y18479   4.575   7.157   8.826  1.6972  1.6386  2.2418
  164SOPE  C31518480   4.571   6.950   8.750 -0.2502  0.1730  0.2831
  164SOPE  H15X18481   4.596   6.999   8.653 -0.1359  1.0929  0.7741
  164SOPE  H15Y18482   4.461   6.947   8.762 -0.3894  2.2932 -0.0977
  164SOPE  C31618483   4.641   6.815   8.760 -0.0034  0.0723 -0.5420
  164SOPE  H16X18484   4.646   6.776   8.864  2.0399  1.8153  0.0696
  164SOPE  H16Y18485   4.746   6.832   8.730  0.6130 -1.0160  0.8955
  164SOPE  C31718486   4.586   6.698   8.682  0.3258 -0.2977  0.6212
  164SOPE  H17X18487   4.645   6.695   8.588  0.1962 -1.0672  0.5543
  164SOPE  H17Y18488   4.476   6.709   8.672 -0.2439 -2.1943  3.3632
  164SOPE  C31818489   4.619   6.558   8.738  0.2885  0.3263  0.6037
  164SOPE  H18X18490   4.730   6.554   8.738  0.3066  0.5334 -0.6376
  164SOPE  H18Y18491   4.576   6.485   8.666 -0.3550  0.1083  1.1889
  164SOPE  H18Z18492   4.582   6.530   8.839 -0.9055  1.3823  0.4795
  165SOPE     N18493   4.117   6.295  10.948 -0.5125  0.3460  0.0228
  165SOPE   HN118494   4.213   6.266  10.922  0.2527 -1.7715  4.2839
  165SOPE   HN218495   4.105   6.393  10.916  1.6727  0.4545 -0.5998
  165SOPE   HN318496   4.110   6.282  11.051 -0.0339 -0.0704  0.0067
  165SOPE   C1218497   4.021   6.197  10.900  0.1604 -0.5615  0.7843
  165SOPE  H12A18498   4.011   6.214  10.791 -1.0060  0.3721  1.0100
  165SOPE  H12B18499   3.927   6.233  10.948  0.5980  0.0975  1.1730
  165SOPE   C1118500   4.047   6.051  10.933  1.1231  1.1199 -0.5082
  165SOPE  H11A18501   3.997   6.036  11.031 -0.2435  1.9292 -1.0550
  165SOPE  H11B18502   4.153   6.022  10.947  0.4177 -2.0589 -0.9251
  165SOPE     P18503   3.889   5.849  10.871  0.1575  0.1521 -0.4135
  165SOPE   O1318504   3.875   5.839  11.018 -0.5394 -0.3477  0.0274
  165SOPE   O1418505   3.920   5.728  10.799 -0.0003 -0.3219 -0.9350
  165SOPE   O1218506   3.996   5.958  10.835 -0.5519 -0.1708 -0.1103
  165SOPE   O1118507   3.746   5.899  10.817 -0.3892 -0.6739  0.1559
  165SOPE    C118508   3.742   5.995  10.709  0.1507 -0.1002  0.6203
  165SOPE    HA18509   3.839   6.008  10.655  0.2782 -2.0711  0.3145
  165SOPE    HB18510   3.694   6.089  10.745 -1.1535 -1.4156  2.4460
  165SOPE    C218511   3.649   5.935  10.598  0.1875 -0.5601 -0.2667
  165SOPE    HS18512   3.572   5.873  10.649  0.8740 -1.4069 -0.2228
  165SOPE   O2118513   3.725   5.857  10.503  0.2490  0.2386 -0.0670
  165SOPE   C2118514   3.650   5.772  10.431  0.2689  0.1830 -0.2572
  165SOPE   O2218515   3.531   5.754  10.442  0.4804  0.4093 -0.3250
  165SOPE   C2218516   3.746   5.687  10.339  0.4914  1.1526 -0.3497
  165SOPE   H2R18517   3.678   5.636  10.267  1.1718  1.2174 -1.0477
  165SOPE   H2S18518   3.791   5.603  10.395  1.3387 -0.4984 -3.3037
  165SOPE    C318519   3.567   6.047  10.531 -0.1500  0.2791 -0.0090
  165SOPE    HX18520   3.503   6.096  10.607 -0.2052 -0.3182  0.3298
  165SOPE    HY18521   3.491   6.009  10.460 -0.1882  0.4040 -0.0366
  165SOPE   O3118522   3.654   6.141  10.455 -0.2385 -0.0733 -0.1255
  165SOPE   C3118523   3.594   6.259  10.443 -0.5259 -0.0081  0.6636
  165SOPE   O3218524   3.485   6.289  10.484  0.2704  0.9100 -0.2889
  165SOPE   C3218525   3.685   6.360  10.360  0.2570  0.9000 -0.6127
  165SOPE   H2X18526   3.790   6.324  10.361 -0.5294 -1.5186 -0.1542
  165SOPE   H2Y18527   3.673   6.457  10.415  3.0639  0.0802  1.6955
  165SOPE   C2318528   3.855   5.765  10.268 -0.3983 -0.4909 -0.2613
  165SOPE   H3R18529   3.932   5.792  10.343  0.7341  0.2505 -1.6725
  165SOPE   H3S18530   3.807   5.862  10.241 -0.8860 -0.9087 -0.9362
  165SOPE   C2418531   3.905   5.692  10.147 -0.0644 -0.2927 -0.0892
  165SOPE   H4R18532   3.983   5.620  10.181 -0.9514 -1.1797  0.0975
  165SOPE   H4S18533   3.825   5.650  10.083  0.5963 -1.4063 -0.2176
  165SOPE   C2518534   3.978   5.795  10.051  1.1703 -0.1647  0.0516
  165SOPE   H5R18535   4.014   5.880  10.113 -0.1112  0.2774  0.2235
  165SOPE   H5S18536   4.061   5.745   9.997  2.1557  0.3578  1.0328
  165SOPE   C2618537   3.880   5.846   9.948  0.3764 -0.4007 -0.3080
  165SOPE   H6R18538   3.775   5.861   9.983  0.1461  0.5057 -1.3446
  165SOPE   H6S18539   3.916   5.948   9.922 -1.9356  0.0905 -1.9159
  165SOPE   C2718540   3.872   5.766   9.823 -0.2764  0.3031 -0.1678
  165SOPE   H7R18541   3.968   5.711   9.812 -1.1944 -1.4018  0.0425
  165SOPE   H7S18542   3.787   5.696   9.841  0.4507 -0.1805  1.6320
  165SOPE   C2818543   3.864   5.855   9.704 -0.6880 -0.2147  0.0541
  165SOPE   H8R18544   3.766   5.908   9.709 -0.0572  0.9759  0.2090
  165SOPE   H8S18545   3.945   5.931   9.706 -0.5801 -0.3382  0.5337
  165SOPE   C2918546   3.858   5.777   9.575  0.3821  0.4580  0.5716
  165SOPE   H9118547   3.810   5.678   9.578 -0.0192  0.6260  0.0210
  165SOPE  C21018548   3.909   5.810   9.460 -0.1328 -0.5735 -0.6228
  165SOPE  H10118549   3.900   5.744   9.372 -0.1205  0.5842 -1.5183
  165SOPE  C21118550   3.991   5.935   9.432  0.1242 -0.3593 -0.1924
  165SOPE  H11R18551   4.090   5.921   9.480 -1.0354 -1.3466  2.0937
  165SOPE  H11S18552   3.934   6.022   9.469  0.7498 -0.5374  1.2691
  165SOPE  C21218553   4.015   5.936   9.285  0.3103  0.2014  0.2461
  165SOPE  H12R18554   4.088   5.858   9.256  1.3479  1.1877  0.0996
  165SOPE  H12S18555   4.075   6.025   9.254  1.4840 -0.0544  1.6456
  165SOPE  C21318556   3.899   5.932   9.185  0.6253 -0.1449 -1.2607
  165SOPE  H13R18557   3.828   6.016   9.201  0.1422 -0.8685  0.5681
  165SOPE  H13S18558   3.843   5.837   9.197 -0.5692  0.5733 -0.9139
  165SOPE  C21418559   3.935   5.934   9.032 -0.7807  0.8318 -0.2456
  165SOPE  H14R18560   4.000   5.845   9.016 -2.2978 -0.1660 -1.0944
  165SOPE  H14S18561   3.995   6.025   9.008  0.0604  0.5983  0.8764
  165SOPE  C21518562   3.809   5.936   8.941 -0.9853 -0.2037 -0.0308
  165SOPE  H15R18563   3.748   6.016   8.986  1.3866  0.7100  1.7538
  165SOPE  H15S18564   3.760   5.836   8.939 -1.3648 -0.0087 -0.8272
  165SOPE  C21618565   3.830   5.991   8.792  0.3437 -0.3297 -0.0479
  165SOPE  H16R18566   3.847   6.100   8.802  1.6353 -0.7230  3.3472
  165SOPE  H16S18567   3.736   5.977   8.734 -0.4892  0.2500  1.1365
  165SOPE  C21718568   3.946   5.932   8.713 -0.8387 -0.1482  0.1366
  165SOPE  H17R18569   3.947   5.821   8.704  1.4544 -0.0291 -2.4453
  165SOPE  H17S18570   4.041   5.973   8.752 -0.7515 -1.3034  1.2061
  165SOPE  C21818571   3.934   5.978   8.571 -0.3266 -0.1070  0.0270
  165SOPE  H18R18572   3.833   5.950   8.534 -0.4716 -1.9489  1.6678
  165SOPE  H18S18573   4.012   5.933   8.506  0.9707  0.1056  1.3791
  165SOPE  H18T18574   3.952   6.087   8.569  0.3526 -0.2053  0.3708
  165SOPE   C3318575   3.638   6.358  10.206 -0.0505  0.3969  0.1988
  165SOPE   H3X18576   3.643   6.460  10.163  1.0009  0.1821 -0.2319
  165SOPE   H3Y18577   3.529   6.338  10.199 -0.2645  1.4330  0.3026
  165SOPE   C3418578   3.710   6.270  10.105  0.3072 -0.5129  0.5731
  165SOPE   H4X18579   3.720   6.163  10.133  2.6670 -0.9386 -1.4831
  165SOPE   H4Y18580   3.815   6.306  10.099 -0.2957  1.0972 -2.6665
  165SOPE   C3518581   3.648   6.267   9.962  0.0032 -0.0115 -0.0711
  165SOPE   H5X18582   3.592   6.359   9.934 -1.4556 -1.1492 -1.0708
  165SOPE   H5Y18583   3.569   6.189   9.960  1.0851 -1.1272 -0.1376
  165SOPE   C3618584   3.747   6.239   9.845  0.4909  0.3099  0.5316
  165SOPE   H6X18585   3.809   6.147   9.857 -0.9878 -0.5724  1.7721
  165SOPE   H6Y18586   3.828   6.316   9.840 -1.3356  2.2241 -1.7615
  165SOPE   C3718587   3.675   6.247   9.705  0.2497  0.1775 -0.1436
  165SOPE   H7X18588   3.596   6.324   9.694 -0.7084 -1.0588 -2.9577
  165SOPE   H7Y18589   3.612   6.156   9.700  1.3007 -0.5420 -0.6434
  165SOPE   C3818590   3.772   6.263   9.589  0.0232 -0.4665  0.2286
  165SOPE   H8X18591   3.861   6.196   9.590 -0.7195 -1.4767  0.8965
  165SOPE   H8Y18592   3.801   6.369   9.604 -1.6299  0.0656 -0.1429
  165SOPE   C3918593   3.693   6.238   9.455 -0.6911 -0.0021  0.2895
  165SOPE   H9X18594   3.589   6.276   9.467 -0.3631  1.1083 -0.2625
  165SOPE   H9Y18595   3.690   6.129   9.432 -0.9934  0.1684 -0.5350
  165SOPE  C31018596   3.770   6.308   9.336 -0.0776 -0.0582 -0.3038
  165SOPE  H10X18597   3.873   6.269   9.320  0.1656  0.6475 -0.4915
  165SOPE  H10Y18598   3.779   6.414   9.368 -2.2167  0.3337 -0.8478
  165SOPE  C31118599   3.700   6.290   9.202 -0.8723 -0.7583 -0.1513
  165SOPE  H11X18600   3.593   6.317   9.219 -1.2622 -2.7966  1.0461
  165SOPE  H11Y18601   3.692   6.183   9.173  2.5567 -1.2527  0.3816
  165SOPE  C31218602   3.753   6.377   9.093 -0.3116 -0.8111  0.4508
  165SOPE  H12X18603   3.856   6.347   9.064 -0.0533  1.6974 -1.5890
  165SOPE  H12Y18604   3.772   6.477   9.138  0.1917 -0.5661 -0.2878
  165SOPE  C31318605   3.670   6.394   8.964 -0.2478 -0.2614 -0.4326
  165SOPE  H13X18606   3.587   6.468   8.977 -1.5874 -1.9435  1.1771
  165SOPE  H13Y18607   3.613   6.300   8.951  2.2396 -2.0693  0.8839
  165SOPE  C31418608   3.766   6.431   8.852 -0.4073  0.1863 -0.2812
  165SOPE  H14X18609   3.868   6.390   8.870  0.6248  2.3871 -0.8126
  165SOPE  H14Y18610   3.778   6.539   8.872 -1.0132  0.4337 -1.2021
  165SOPE  C31518611   3.727   6.405   8.713 -0.1168  0.3584  0.4876
  165SOPE  H15X18612   3.624   6.442   8.699 -0.0235  0.9412  1.3009
  165SOPE  H15Y18613   3.723   6.297   8.686  2.9786  0.1604  0.4476
  165SOPE  C31618614   3.819   6.489   8.613 -0.2953  0.2247 -0.2652
  165SOPE  H16X18615   3.926   6.482   8.642  0.2524  0.3618 -2.1440
  165SOPE  H16Y18616   3.812   6.598   8.636  0.4955 -0.1542  2.0970
  165SOPE  C31718617   3.785   6.475   8.466  0.0801  0.2384  0.4324
  165SOPE  H17X18618   3.802   6.366   8.463 -2.0228 -0.1742 -3.4003
  165SOPE  H17Y18619   3.846   6.526   8.387 -0.3158  0.1616  0.0783
  165SOPE  C31818620   3.639   6.494   8.433  0.3607 -0.4987  0.4666
  165SOPE  H18X18621   3.606   6.598   8.452  1.3043 -0.1905  0.4410
  165SOPE  H18Y18622   3.578   6.419   8.489  2.5171 -4.3654 -1.8720
  165SOPE  H18Z18623   3.614   6.456   8.331 -2.8725  0.0900  0.9103
  166SOPE     N18624   0.126   6.204  10.601  0.2066 -0.0607 -0.2514
  166SOPE   HN118625   0.188   6.242  10.526  1.2802 -4.2744 -1.7938
  166SOPE   HN218626   0.025   6.219  10.582 -0.2111  0.6478  2.1818
  166SOPE   HN318627   0.139   6.249  10.694 -0.0026 -0.0013 -0.2491
  166SOPE   C1218628   0.160   6.064  10.634 -0.7934 -0.3651  0.5642
  166SOPE  H12A18629   0.261   6.060  10.679  0.0831  1.8190 -1.0279
  166SOPE  H12B18630   0.167   6.017  10.534  1.4457  1.0909 -0.0286
  166SOPE   C1118631   0.061   5.994  10.727  0.1813 -0.6498 -0.3141
  166SOPE  H11A18632   0.065   6.039  10.828 -1.7882 -0.7849 -0.1249
  166SOPE  H11B18633   0.088   5.887  10.736 -0.0633 -0.6522  0.4415
  166SOPE     P18634  -0.184   5.911  10.725  0.2750 -0.1444 -0.3896
  166SOPE   O1318635  -0.306   5.987  10.724  0.1507 -0.1942  0.6049
  166SOPE   O1418636  -0.140   5.844  10.852  0.0475 -0.2656  0.0046
  166SOPE   O1218637  -0.068   6.013  10.682  0.2338  0.3628 -0.3016
  166SOPE   O1118638  -0.211   5.803  10.612  0.1879 -0.1750 -0.0185
  166SOPE    C118639  -0.191   5.839  10.471 -0.3820 -0.8455 -0.7934
  166SOPE    HA18640  -0.185   5.949  10.458  2.7433 -0.4653  2.3126
  166SOPE    HB18641  -0.269   5.783  10.415 -0.2875 -1.5004 -0.2848
  166SOPE    C218642  -0.058   5.793  10.405 -0.1322  0.0845  0.3319
  166SOPE    HS18643   0.024   5.850  10.453 -2.0381  3.0278  0.3188
  166SOPE   O2118644  -0.059   5.819  10.261  0.4684  0.4265 -0.4083
  166SOPE   C2118645   0.055   5.862  10.212 -0.5040 -0.4319  0.0250
  166SOPE   O2218646   0.141   5.922  10.275 -0.0975  0.0814  0.6002
  166SOPE   C2218647   0.060   5.851  10.060 -0.3393 -0.7344  0.2461
  166SOPE   H2R18648   0.161   5.889  10.034  0.3677 -2.7639 -0.1889
  166SOPE   H2S18649  -0.020   5.917  10.021 -1.1844 -1.4883  0.6610
  166SOPE    C318650  -0.033   5.638  10.441  0.3073 -0.4931  0.6180
  166SOPE    HX18651  -0.112   5.581  10.387 -1.9773  3.4284 -0.5775
  166SOPE    HY18652  -0.048   5.620  10.549  0.1559  0.3178  0.7392
  166SOPE   O3118653   0.092   5.593  10.391  0.2210  0.8777  0.3155
  166SOPE   C3118654   0.198   5.643  10.453  0.1287 -0.3750  0.7084
  166SOPE   O3218655   0.192   5.714  10.551 -0.7512  0.0781  0.4876
  166SOPE   C3218656   0.321   5.607  10.370 -0.2992 -0.8067 -0.0069
  166SOPE   H2X18657   0.287   5.573  10.269  1.0774 -0.2507 -0.6746
  166SOPE   H2Y18658   0.369   5.522  10.423  0.2832  1.5643  3.5646
  166SOPE   C2318659   0.069   5.704  10.002  0.5643 -0.6229 -0.2084
  166SOPE   H3R18660  -0.036   5.670  10.010 -0.5887  2.7437  0.3755
  166SOPE   H3S18661   0.125   5.649  10.081  0.1868 -2.2124 -1.0033
  166SOPE   C2418662   0.125   5.704   9.862 -0.0682 -0.0564 -0.2335
  166SOPE   H4R18663   0.081   5.779   9.793 -1.7249 -2.3351 -1.8064
  166SOPE   H4S18664   0.227   5.737   9.893  1.1918 -4.2966  0.7862
  166SOPE   C2518665   0.124   5.561   9.810 -0.0708 -0.4238 -0.1074
  166SOPE   H5R18666   0.189   5.507   9.881  0.4118  0.3415  0.0461
  166SOPE   H5S18667   0.017   5.528   9.807 -0.3874  0.5927 -0.6096
  166SOPE   C2618668   0.180   5.550   9.661 -0.1206 -0.1795  0.5903
  166SOPE   H6R18669   0.118   5.590   9.578 -0.3879 -0.2235  0.7670
  166SOPE   H6S18670   0.273   5.610   9.652 -0.3277 -0.1305 -2.0512
  166SOPE   C2718671   0.219   5.404   9.629 -0.3745 -0.9026  0.1815
  166SOPE   H7R18672   0.293   5.375   9.707 -0.0934 -2.1110 -0.5066
  166SOPE   H7S18673   0.131   5.337   9.640 -1.6318  0.6177 -0.1581
  166SOPE   C2818674   0.288   5.387   9.497 -0.3815  0.1964 -0.2885
  166SOPE   H8R18675   0.355   5.472   9.472 -0.9488  0.3627 -1.2999
  166SOPE   H8S18676   0.364   5.306   9.503 -0.4224  0.1598 -0.2712
  166SOPE   C2918677   0.193   5.359   9.380  0.0739 -0.4187 -0.0322
  166SOPE   H9118678   0.110   5.289   9.393 -0.1441 -0.2966 -0.7328
  166SOPE  C21018679   0.208   5.392   9.254 -0.1377 -0.7410 -0.6224
  166SOPE  H10118680   0.131   5.369   9.179  0.5769 -1.4499 -1.1558
  166SOPE  C21118681   0.326   5.466   9.195 -0.3152  0.3996 -0.0839
  166SOPE  H11R18682   0.418   5.420   9.236 -0.7961 -0.8453 -0.3700
  166SOPE  H11S18683   0.341   5.571   9.229  0.4825  0.1830  0.2638
  166SOPE  C21218684   0.358   5.462   9.047 -0.1416  0.5416  0.1300
  166SOPE  H12R18685   0.342   5.360   9.004  1.8232 -0.1187  0.8848
  166SOPE  H12S18686   0.465   5.479   9.023  0.1418 -0.9506  0.1878
  166SOPE  C21318687   0.280   5.565   8.961  0.6328 -0.4021  0.6599
  166SOPE  H13R18688   0.293   5.671   8.993 -3.4626  1.7261 -3.4609
  166SOPE  H13S18689   0.173   5.542   8.979  0.4639 -0.4604 -0.3856
  166SOPE  C21418690   0.308   5.558   8.809  0.4639  0.5073 -0.5654
  166SOPE  H14R18691   0.221   5.601   8.755 -0.6341 -1.3763 -0.3817
  166SOPE  H14S18692   0.310   5.449   8.785 -0.3523  0.6773 -1.4524
  166SOPE  C21518693   0.442   5.621   8.756  0.6178  0.1038  0.1330
  166SOPE  H15R18694   0.520   5.554   8.798  1.7029  1.6727  0.7185
  166SOPE  H15S18695   0.458   5.722   8.800  0.6921  1.2696 -2.3729
  166SOPE  C21618696   0.440   5.619   8.600 -0.2545  0.2543 -0.6361
  166SOPE  H16R18697   0.417   5.520   8.556  1.7377 -1.3960  1.7531
  166SOPE  H16S18698   0.548   5.637   8.580 -0.1692 -1.1211 -1.5185
  166SOPE  C21718699   0.348   5.731   8.537 -0.3775  0.4862 -0.4439
  166SOPE  H17R18700   0.406   5.776   8.453  0.7751  0.2527  0.2043
  166SOPE  H17S18701   0.323   5.823   8.594 -0.4061  1.3081 -1.7568
  166SOPE  C21818702   0.221   5.664   8.475 -0.1227  0.1493  1.0704
  166SOPE  H18R18703   0.271   5.588   8.412  0.9923  0.7067  1.2611
  166SOPE  H18S18704   0.186   5.732   8.394 -1.1929 -1.6575 -0.0412
  166SOPE  H18T18705   0.138   5.635   8.543  0.6977 -1.5339  1.4154
  166SOPE   C3318706   0.409   5.731  10.344 -0.5290 -0.4261 -0.0308
  166SOPE   H3X18707   0.466   5.761  10.435 -0.9738  0.6989 -0.1127
  166SOPE   H3Y18708   0.368   5.816  10.286 -0.8724  0.1103  0.9668
  166SOPE   C3418709   0.531   5.687  10.246  0.0145 -0.0821 -0.4524
  166SOPE   H4X18710   0.581   5.590  10.271  1.1058  0.1851 -1.4917
  166SOPE   H4Y18711   0.607   5.767  10.240  0.4776 -0.5321 -0.6942
  166SOPE   C3518712   0.477   5.680  10.101  0.1743 -0.5705  0.0517
  166SOPE   H5X18713   0.426   5.778  10.088  2.1573  0.5947  0.7362
  166SOPE   H5Y18714   0.392   5.610  10.085 -1.2927  1.1128  0.0989
  166SOPE   C3618715   0.588   5.684   9.990  0.1504  0.0465 -0.9911
  166SOPE   H6X18716   0.656   5.597   9.998  1.4145  1.0599 -0.2807
  166SOPE   H6Y18717   0.641   5.782   9.996 -1.3244  0.8969 -1.2095
  166SOPE   C3718718   0.529   5.671   9.845 -0.2794 -0.2385  0.2528
  166SOPE   H7X18719   0.468   5.759   9.816  1.5516  0.7791 -0.6234
  166SOPE   H7Y18720   0.447   5.595   9.840  0.4855 -1.0035 -1.1208
  166SOPE   C3818721   0.640   5.634   9.744  1.1761  0.1036 -0.2360
  166SOPE   H8X18722   0.674   5.531   9.769  0.1980 -0.1605  0.0298
  166SOPE   H8Y18723   0.720   5.711   9.753  1.4793  0.0938 -2.3358
  166SOPE   C3918724   0.581   5.635   9.599  0.5304  0.4251 -0.1546
  166SOPE   H9X18725   0.545   5.738   9.577  1.6655  1.1005  0.9992
  166SOPE   H9Y18726   0.491   5.571   9.591 -0.8086  2.1161  0.7793
  166SOPE  C31018727   0.691   5.595   9.501 -0.5461  0.4359 -0.8184
  166SOPE  H10X18728   0.746   5.505   9.536 -0.0989  1.1222  0.3140
  166SOPE  H10Y18729   0.766   5.676   9.512 -0.6345  0.5426 -0.9994
  166SOPE  C31118730   0.646   5.583   9.361  0.1527  0.3746  0.1102
  166SOPE  H11X18731   0.599   5.682   9.340 -2.0082 -0.9996 -2.0341
  166SOPE  H11Y18732   0.575   5.498   9.368  3.7582 -2.7886  2.1282
  166SOPE  C31218733   0.761   5.555   9.267  0.5660  0.3981  0.0619
  166SOPE  H12X18734   0.809   5.456   9.286 -0.1787 -0.1408 -0.7686
  166SOPE  H12Y18735   0.842   5.631   9.278 -0.5594  1.5046  0.9699
  166SOPE  C31318736   0.728   5.557   9.115 -0.0289 -0.0296  0.0709
  166SOPE  H13X18737   0.661   5.643   9.093 -1.3874 -0.6659  1.4804
  166SOPE  H13Y18738   0.676   5.466   9.080 -1.1403  0.9902 -1.0421
  166SOPE  C31418739   0.858   5.583   9.039  0.3482  0.2794 -0.6276
  166SOPE  H14X18740   0.925   5.496   9.059 -0.5889 -0.9386 -2.5716
  166SOPE  H14Y18741   0.914   5.668   9.083 -1.3998 -0.0254  2.4309
  166SOPE  C31518742   0.833   5.595   8.886  0.0070  0.6109  0.2146
  166SOPE  H15X18743   0.726   5.574   8.866  0.1960 -2.5993  1.8207
  166SOPE  H15Y18744   0.892   5.516   8.834 -0.7410  0.5172 -0.5124
  166SOPE  C31618745   0.871   5.726   8.827  0.2843  0.0150 -0.0998
  166SOPE  H16X18746   0.981   5.735   8.819  0.2338  1.9027  0.6230
  166SOPE  H16Y18747   0.847   5.825   8.872  1.5098 -0.4533  1.7040
  166SOPE  C31718748   0.804   5.752   8.688  0.0679  0.0485  0.0945
  166SOPE  H17X18749   0.695   5.758   8.710 -0.1823 -0.0897 -1.0475
  166SOPE  H17Y18750   0.815   5.657   8.632 -0.5787 -0.7057  1.2152
  166SOPE  C31818751   0.839   5.870   8.605 -0.3594  0.3983  0.2978
  166SOPE  H18X18752   0.943   5.853   8.572 -0.4288 -2.0596  1.1453
  166SOPE  H18Y18753   0.827   5.958   8.672  0.6824 -1.2425  2.8140
  166SOPE  H18Z18754   0.767   5.871   8.520  0.3202 -2.1520 -0.3966
  167SOPE     N18755   1.968   6.019   6.032  0.8148 -0.4717 -0.5919
  167SOPE   HN118756   1.969   6.108   5.978  0.7174 -1.0881 -1.6418
  167SOPE   HN218757   2.044   5.958   5.996 -0.3574 -2.3861  0.0455
  167SOPE   HN318758   1.877   5.979   6.002  1.0513 -0.8704 -0.7839
  167SOPE   C1218759   1.971   6.027   6.183  0.2918  0.7154 -0.6350
  167SOPE  H12A18760   1.874   6.065   6.223  0.1745  0.3012 -0.5177
  167SOPE  H12B18761   2.052   6.098   6.209  0.0428  1.1500 -1.0144
  167SOPE   C1118762   1.998   5.890   6.246  0.1101 -0.2552 -0.5038
  167SOPE  H11A18763   1.997   5.911   6.355 -2.5285 -0.0572 -0.5089
  167SOPE  H11B18764   2.098   5.852   6.216 -0.1097  0.6798 -2.5647
  167SOPE     P18765   1.887   5.643   6.218  0.5301 -0.3583  0.2009
  167SOPE   O1318766   1.988   5.574   6.141  0.2567 -0.3473  0.0661
  167SOPE   O1418767   1.744   5.609   6.195 -0.1871  0.9336  0.3191
  167SOPE   O1218768   1.894   5.801   6.207  0.1889 -0.1077 -0.2103
  167SOPE   O1118769   1.910   5.621   6.371  0.1057  0.3775  0.0234
  167SOPE    C118770   2.038   5.609   6.432 -0.5142 -0.5520  0.1077
  167SOPE    HA18771   2.018   5.659   6.529 -2.4554 -1.5940  0.3153
  167SOPE    HB18772   2.120   5.665   6.383  0.2515 -1.9993 -0.3463
  167SOPE    C218773   2.088   5.466   6.462 -0.0699  0.3305  0.5074
  167SOPE    HS18774   2.138   5.424   6.373 -0.4249 -2.3031  1.4599
  167SOPE   O2118775   1.984   5.382   6.512 -0.2800  0.3948 -0.4096
  167SOPE   C2118776   2.014   5.245   6.500  0.5507 -0.3800 -0.4936
  167SOPE   O2218777   2.090   5.194   6.421 -1.1012  0.1506  0.3820
  167SOPE   C2218778   1.923   5.173   6.611  0.1430  0.0206  0.6524
  167SOPE   H2R18779   1.923   5.067   6.575  0.6287 -0.3881  1.8237
  167SOPE   H2S18780   1.822   5.216   6.597  0.2115  0.0798  0.3064
  167SOPE    C318781   2.193   5.480   6.576  0.0274  0.4859 -0.5100
  167SOPE    HX18782   2.148   5.534   6.661 -0.2908 -0.4333 -0.0812
  167SOPE    HY18783   2.272   5.548   6.538 -0.5654  1.5366  0.0949
  167SOPE   O3118784   2.253   5.348   6.620  0.0301 -0.1629  0.3454
  167SOPE   C3118785   2.324   5.372   6.730 -0.2474  0.1691 -0.7420
  167SOPE   O3218786   2.345   5.481   6.782 -0.7619 -0.0883 -0.0556
  167SOPE   C3218787   2.400   5.240   6.775 -0.9280 -0.6631  0.4217
  167SOPE   H2X18788   2.498   5.249   6.723 -0.7868 -0.5002  0.7130
  167SOPE   H2Y18789   2.337   5.163   6.726 -0.3457  0.7910 -2.9029
  167SOPE   C2318790   1.968   5.177   6.754  0.5427  0.1181 -0.3885
  167SOPE   H3R18791   1.975   5.284   6.784 -0.3969  0.4652 -1.3312
  167SOPE   H3S18792   2.068   5.131   6.747  1.5923  2.3710 -1.1275
  167SOPE   C2418793   1.868   5.120   6.852 -0.5676  0.7386  0.3530
  167SOPE   H4R18794   1.768   5.168   6.845 -0.9354 -0.1340 -0.7394
  167SOPE   H4S18795   1.844   5.014   6.827  0.1884  0.7665 -0.5372
  167SOPE   C2518796   1.900   5.149   6.998  0.5402 -0.1035 -0.3034
  167SOPE   H5R18797   2.003   5.112   7.014 -0.3372 -2.3191  0.5833
  167SOPE   H5S18798   1.889   5.257   7.021 -0.8700 -0.4198  0.6272
  167SOPE   C2618799   1.826   5.076   7.109 -0.5775  0.9825  0.4115
  167SOPE   H6R18800   1.832   4.966   7.094 -1.6220  0.9754 -0.0611
  167SOPE   H6S18801   1.873   5.105   7.205 -0.2845 -1.9646  1.2571
  167SOPE   C2718802   1.678   5.116   7.113  1.0546  0.3032 -0.9069
  167SOPE   H7R18803   1.670   5.226   7.120 -3.4018  0.0575  3.2895
  167SOPE   H7S18804   1.630   5.074   7.022 -0.2398  1.5512 -0.8266
  167SOPE   C2818805   1.607   5.052   7.238 -0.0465 -0.2565 -0.3931
  167SOPE   H8R18806   1.568   4.953   7.206 -0.1471 -0.7252  1.0832
  167SOPE   H8S18807   1.693   5.030   7.306  0.1045  0.5512 -0.3182
  167SOPE   C2918808   1.503   5.130   7.309 -0.3364  0.4523  0.3522
  167SOPE   H9118809   1.475   5.229   7.268 -1.2859  0.2457  0.4707
  167SOPE  C21018810   1.447   5.098   7.432 -0.1334  0.7582 -0.2000
  167SOPE  H10118811   1.371   5.160   7.481 -1.8308 -2.2205  1.2568
  167SOPE  C21118812   1.478   4.958   7.493 -0.2819  0.1235 -0.7360
  167SOPE  H11R18813   1.569   4.915   7.447 -0.2833  0.8122 -1.4011
  167SOPE  H11S18814   1.392   4.888   7.497 -0.0487 -0.1159  1.2242
  167SOPE  C21218815   1.516   4.973   7.639 -0.3012 -0.0715  0.3505
  167SOPE  H12R18816   1.590   5.054   7.655 -2.2935  2.1174 -1.0439
  167SOPE  H12S18817   1.569   4.881   7.674  1.0522  0.7688  0.5984
  167SOPE  C21318818   1.391   5.002   7.723  0.0490 -0.0466  0.2149
  167SOPE  H13R18819   1.298   4.955   7.684  0.6568 -0.2343 -1.0407
  167SOPE  H13S18820   1.369   5.111   7.717 -0.8052 -0.0268  2.5666
  167SOPE  C21418821   1.406   4.953   7.866 -0.1872  0.0487  0.0477
  167SOPE  H14R18822   1.495   4.995   7.919  2.3981 -2.1529 -2.1812
  167SOPE  H14S18823   1.436   4.846   7.854  1.5883  0.4462  0.6180
  167SOPE  C21518824   1.283   4.978   7.956 -0.4406  0.7529 -0.2780
  167SOPE  H15R18825   1.202   4.904   7.936  0.0313  0.8447 -2.8479
  167SOPE  H15S18826   1.238   5.078   7.939 -0.5871  1.1863  2.2613
  167SOPE  C21618827   1.317   4.980   8.108  0.2773 -0.2175 -0.1975
  167SOPE  H16R18828   1.227   5.016   8.163 -0.0870 -0.4366 -0.6344
  167SOPE  H16S18829   1.397   5.053   8.130  0.8969 -1.3088  1.4013
  167SOPE  C21718830   1.363   4.849   8.163 -0.7151  0.2664 -0.5421
  167SOPE  H17R18831   1.396   4.872   8.267  1.3199 -0.2127 -1.0402
  167SOPE  H17S18832   1.452   4.806   8.112  0.0065  1.0163  0.0476
  167SOPE  C21818833   1.248   4.748   8.163 -0.0901  0.4028 -1.0347
  167SOPE  H18R18834   1.233   4.707   8.061  0.2256 -1.1008 -0.5133
  167SOPE  H18S18835   1.151   4.783   8.205 -0.2958  0.0501 -1.2095
  167SOPE  H18T18836   1.276   4.660   8.225  0.3942  0.7771 -0.7133
  167SOPE   C3318837   2.429   5.247   6.928 -0.2471  0.3594 -0.4589
  167SOPE   H3X18838   2.464   5.347   6.961 -0.1811  0.3021 -0.3563
  167SOPE   H3Y18839   2.506   5.171   6.954 -0.7796  0.1210  0.4528
  167SOPE   C3418840   2.302   5.209   7.019 -0.1634  0.0127  0.3413
  167SOPE   H4X18841   2.296   5.100   6.999  0.7462  0.2314 -1.3603
  167SOPE   H4Y18842   2.210   5.252   6.975  0.9403  0.9843 -1.1243
  167SOPE   C3518843   2.320   5.240   7.165 -0.5671 -0.0609  0.2246
  167SOPE   H5X18844   2.331   5.349   7.187  1.3817 -0.4075  1.1499
  167SOPE   H5Y18845   2.421   5.206   7.197 -0.3492  0.2956 -0.0800
  167SOPE   C3618846   2.210   5.194   7.265 -0.1328  0.1875 -0.4108
  167SOPE   H6X18847   2.264   5.181   7.361  0.9639  0.6578 -0.9457
  167SOPE   H6Y18848   2.170   5.091   7.250 -0.5483  0.0275  1.5310
  167SOPE   C3718849   2.095   5.284   7.285  0.8552  0.0520 -0.0837
  167SOPE   H7X18850   2.030   5.277   7.195 -0.3621  0.7097  0.7094
  167SOPE   H7Y18851   2.134   5.388   7.286  0.6014  0.1582 -0.8735
  167SOPE   C3818852   2.002   5.254   7.406 -0.3086 -0.9721  0.3156
  167SOPE   H8X18853   2.065   5.257   7.497  0.1667 -1.0186 -0.0116
  167SOPE   H8Y18854   1.959   5.151   7.402 -2.5534 -0.1038  0.5515
  167SOPE   C3918855   1.882   5.347   7.419  0.0059  0.0298  0.4452
  167SOPE   H9X18856   1.838   5.344   7.317 -1.7801  1.5012  1.1273
  167SOPE   H9Y18857   1.904   5.455   7.431 -0.3502  0.3080 -1.1367
  167SOPE  C31018858   1.777   5.293   7.510 -0.1523 -0.4006 -0.1774
  167SOPE  H10X18859   1.735   5.200   7.467  1.6799 -0.4281 -2.0500
  167SOPE  H10Y18860   1.699   5.372   7.511  0.6131  0.3748 -0.2068
  167SOPE  C31118861   1.827   5.272   7.655 -0.0726 -0.1984  1.2626
  167SOPE  H11X18862   1.911   5.200   7.663 -0.7211 -0.8970  1.8808
  167SOPE  H11Y18863   1.740   5.231   7.710  0.1446 -1.5458  0.6344
  167SOPE  C31218864   1.850   5.405   7.735 -0.4798 -0.0209 -0.3423
  167SOPE  H12X18865   1.768   5.479   7.735 -0.6199 -0.1120  1.5361
  167SOPE  H12Y18866   1.938   5.459   7.695  0.6447  0.2836  2.2915
  167SOPE  C31318867   1.881   5.373   7.882  0.7068  0.5616  0.0452
  167SOPE  H13X18868   1.971   5.309   7.895  0.4015  0.3834  1.4678
  167SOPE  H13Y18869   1.804   5.302   7.922  1.7394 -2.0262 -2.2275
  167SOPE  C31418870   1.904   5.497   7.966  0.2613  0.0156  0.0660
  167SOPE  H14X18871   1.811   5.558   7.966 -0.2720 -0.7698 -0.4277
  167SOPE  H14Y18872   1.985   5.557   7.920 -1.4355  2.2675 -0.1374
  167SOPE  C31518873   1.931   5.462   8.107  0.0131  0.0700 -0.1374
  167SOPE  H15X18874   2.034   5.425   8.121 -0.0797  0.1033  0.7239
  167SOPE  H15Y18875   1.869   5.377   8.143 -1.6818  1.5709  0.6662
  167SOPE  C31618876   1.907   5.576   8.210  0.0111  0.3692  0.3628
  167SOPE  H16X18877   1.931   5.682   8.186 -0.2108  0.0599 -1.3497
  167SOPE  H16Y18878   1.970   5.550   8.298 -2.2459 -0.9689  1.6726
  167SOPE  C31718879   1.767   5.568   8.263  0.4008 -0.8576 -0.1404
  167SOPE  H17X18880   1.731   5.469   8.298 -1.6937  0.0139  0.3650
  167SOPE  H17Y18881   1.701   5.598   8.179  0.6746 -2.3264 -0.9089
  167SOPE  C31818882   1.742   5.674   8.381  0.3661 -0.2476  0.8564
  167SOPE  H18X18883   1.635   5.688   8.408 -0.5248 -1.2687 -1.7495
  167SOPE  H18Y18884   1.777   5.770   8.338 -3.4379  0.7175 -0.5217
  167SOPE  H18Z18885   1.805   5.639   8.465 -0.0427 -1.5453  0.6489
  168SOPE     N18886   1.599   4.121   6.443 -0.3352  0.4469 -1.0382
  168SOPE   HN118887   1.533   4.100   6.520 -1.9998 -2.0896 -2.9808
  168SOPE   HN218888   1.625   4.220   6.458 -2.0989  0.9667 -1.1859
  168SOPE   HN318889   1.556   4.119   6.348  2.8028  2.1447 -2.6435
  168SOPE   C1218890   1.705   4.014   6.449  0.1392  0.1990  0.2947
  168SOPE  H12A18891   1.727   4.004   6.558  0.7611  0.7961  0.2303
  168SOPE  H12B18892   1.796   4.052   6.398 -0.7093  1.8174 -0.0664
  168SOPE   C1118893   1.649   3.870   6.417  0.1729 -0.0776 -0.5895
  168SOPE  H11A18894   1.725   3.803   6.462 -0.2281  0.3152  0.7152
  168SOPE  H11B18895   1.634   3.867   6.307  1.4079  0.2162 -0.7776
  168SOPE     P18896   1.421   3.749   6.426  0.1798 -0.0865 -0.3337
  168SOPE   O1318897   1.406   3.772   6.280  0.2207  0.1685  0.1747
  168SOPE   O1418898   1.300   3.771   6.511 -0.6772  0.4124 -0.2889
  168SOPE   O1218899   1.531   3.845   6.490 -0.1085  0.4602 -0.1205
  168SOPE   O1118900   1.482   3.604   6.446  0.3817  0.0752 -0.4525
  168SOPE    C118901   1.535   3.568   6.574 -0.1004 -0.8261  0.0476
  168SOPE    HA18902   1.536   3.648   6.651 -2.1050  0.8351 -1.5620
  168SOPE    HB18903   1.636   3.527   6.552 -0.8466 -3.7955  1.5284
  168SOPE    C218904   1.466   3.441   6.630  0.8472 -0.1813 -0.0416
  168SOPE    HS18905   1.360   3.470   6.646  0.8221 -1.5863  3.2889
  168SOPE   O2118906   1.519   3.399   6.761 -0.1658  0.4966  0.5149
  168SOPE   C2118907   1.440   3.435   6.866  0.1462  0.0085  0.3167
  168SOPE   O2218908   1.344   3.509   6.863 -0.0669  0.9340  0.0255
  168SOPE   C2218909   1.514   3.394   6.995 -0.5335 -0.0854  0.4404
  168SOPE   H2R18910   1.620   3.416   6.973 -0.4711  0.2248  1.0128
  168SOPE   H2S18911   1.484   3.288   7.005  0.7148 -0.7009 -1.7052
  168SOPE    C318912   1.490   3.319   6.536  0.6188 -0.3925 -0.4625
  168SOPE    HX18913   1.600   3.320   6.523  0.7255  1.3521  0.3425
  168SOPE    HY18914   1.445   3.356   6.442  1.1490  2.6583  0.4042
  168SOPE   O3118915   1.438   3.192   6.580  0.6845  0.0982 -0.8236
  168SOPE   C3118916   1.308   3.182   6.580  0.0896 -0.0484 -0.2400
  168SOPE   O3218917   1.224   3.267   6.545 -0.1434 -0.0225  0.3998
  168SOPE   C3218918   1.261   3.046   6.623 -0.6997  0.1613  0.1866
  168SOPE   H2X18919   1.317   2.971   6.564  0.7666 -0.5335  2.3295
  168SOPE   H2Y18920   1.154   3.026   6.601 -0.3211 -1.6343 -0.1826
  168SOPE   C2318921   1.476   3.479   7.118 -0.5103 -0.2619  0.2095
  168SOPE   H3R18922   1.369   3.505   7.102  0.1272  1.1249 -2.3927
  168SOPE   H3S18923   1.541   3.568   7.118 -0.9274  0.0453  0.1781
  168SOPE   C2418924   1.506   3.407   7.252 -0.3741  0.1847 -0.4427
  168SOPE   H4R18925   1.451   3.311   7.252  1.2246 -0.8214 -3.2689
  168SOPE   H4S18926   1.615   3.394   7.261 -0.2133  2.0565  1.3434
  168SOPE   C2518927   1.475   3.489   7.371 -0.2974  0.4089  0.9835
  168SOPE   H5R18928   1.525   3.586   7.350 -0.8071  0.5406  0.3333
  168SOPE   H5S18929   1.367   3.512   7.385 -0.2484  0.9498  0.4879
  168SOPE   C2618930   1.548   3.453   7.503 -0.3763  0.0514  0.0712
  168SOPE   H6R18931   1.544   3.349   7.541  3.5273 -0.6740 -1.0384
  168SOPE   H6S18932   1.657   3.475   7.507 -0.0310 -1.7046  1.2779
  168SOPE   C2718933   1.502   3.549   7.618 -0.0502 -0.0663 -0.0298
  168SOPE   H7R18934   1.518   3.654   7.585  0.0167  0.6471  2.1550
  168SOPE   H7S18935   1.396   3.541   7.650 -0.5238 -2.6316 -1.8792
  168SOPE   C2818936   1.585   3.538   7.752 -0.2268  0.0040  0.2648
  168SOPE   H8R18937   1.693   3.518   7.737  0.7608  1.5069  4.1728
  168SOPE   H8S18938   1.575   3.633   7.809 -0.6697 -0.3780  0.8443
  168SOPE   C2918939   1.526   3.409   7.814 -0.0907 -0.1006  0.3863
  168SOPE   H9118940   1.567   3.316   7.772 -0.3639 -0.2490  0.4489
  168SOPE  C21018941   1.424   3.400   7.902  0.0705 -0.4228  0.0535
  168SOPE  H10118942   1.409   3.303   7.952  0.5867 -1.4392 -1.6835
  168SOPE  C21118943   1.345   3.524   7.951 -0.0712  0.2013 -0.1259
  168SOPE  H11R18944   1.237   3.499   7.955  0.4091 -2.1746 -0.6599
  168SOPE  H11S18945   1.356   3.616   7.889  2.0872 -0.2059 -0.4355
  168SOPE  C21218946   1.393   3.550   8.094  0.3124 -0.4337  0.4164
  168SOPE  H12R18947   1.388   3.454   8.151  0.4776 -1.4071 -1.1442
  168SOPE  H12S18948   1.328   3.627   8.141 -0.3566 -1.5489  1.3880
  168SOPE  C21318949   1.543   3.588   8.103 -0.2857  0.2881 -0.2577
  168SOPE  H13R18950   1.559   3.673   8.034  1.0106  0.5207  0.2941
  168SOPE  H13S18951   1.614   3.506   8.078  0.3817  0.9882 -0.7006
  168SOPE  C21418952   1.585   3.642   8.243 -0.4989  0.8584 -0.8405
  168SOPE  H14R18953   1.540   3.574   8.318 -0.1833 -0.5876 -1.9197
  168SOPE  H14S18954   1.546   3.741   8.276  0.5072  0.5067  1.5978
  168SOPE  C21518955   1.740   3.648   8.265  0.1659 -1.0551  0.3758
  168SOPE  H15R18956   1.781   3.715   8.187  1.1566 -1.3140  0.6585
  168SOPE  H15S18957   1.805   3.557   8.260  3.2080  0.9750  0.3474
  168SOPE  C21618958   1.767   3.728   8.391  0.1134 -0.1516  0.0394
  168SOPE  H16R18959   1.718   3.683   8.480 -0.9289  0.5308 -0.1628
  168SOPE  H16S18960   1.725   3.826   8.358 -1.0137 -0.8259 -0.5886
  168SOPE  C21718961   1.915   3.736   8.428 -0.3066 -0.0725 -0.1113
  168SOPE  H17R18962   1.921   3.823   8.498  2.0134 -0.0517 -0.2718
  168SOPE  H17S18963   1.979   3.754   8.339 -0.3502 -1.1070 -0.3638
  168SOPE  C21818964   1.985   3.611   8.501 -0.3706 -0.8268 -0.2065
  168SOPE  H18R18965   2.084   3.643   8.539  0.1819 -3.0015  0.3136
  168SOPE  H18S18966   2.012   3.529   8.430  1.8204 -0.9431  0.6777
  168SOPE  H18T18967   1.939   3.569   8.593 -0.5693 -1.8484 -0.7537
  168SOPE   C3318968   1.291   3.009   6.771 -0.6235 -0.0118 -0.1942
  168SOPE   H3X18969   1.399   3.023   6.793 -0.0002  0.0193 -2.9759
  168SOPE   H3Y18970   1.272   2.899   6.769 -0.4512 -0.0314 -1.0389
  168SOPE   C3418971   1.188   3.069   6.867  0.2975  0.1581  0.2251
  168SOPE   H4X18972   1.092   3.060   6.811  2.3521 -2.5133 -3.3068
  168SOPE   H4Y18973   1.226   3.170   6.891  1.3343 -0.0058 -0.6376
  168SOPE   C3518974   1.157   2.980   6.991 -0.6555 -0.3304  0.0707
  168SOPE   H5X18975   1.151   2.873   6.961 -1.7786 -0.1377 -0.4376
  168SOPE   H5Y18976   1.059   3.004   7.036 -0.6197  1.8397 -0.9172
  168SOPE   C3618977   1.261   2.999   7.105  0.1048  0.2810  0.1839
  168SOPE   H6X18978   1.280   3.106   7.128 -2.1926  0.5495  1.1054
  168SOPE   H6Y18979   1.354   2.954   7.064  0.6597  1.4860  0.0780
  168SOPE   C3718980   1.222   2.934   7.238 -0.0540  0.4422  0.3403
  168SOPE   H7X18981   1.191   2.828   7.221  0.9458  0.4794 -2.0420
  168SOPE   H7Y18982   1.138   2.989   7.285 -1.6807 -1.0603 -0.6982
  168SOPE   C3818983   1.337   2.934   7.339 -0.4265 -0.1559  0.2713
  168SOPE   H8X18984   1.365   3.035   7.375 -0.2772 -0.1309  0.0905
  168SOPE   H8Y18985   1.434   2.904   7.294  0.1927 -0.8878  2.0152
  168SOPE   C3918986   1.302   2.840   7.458 -0.0211 -0.5946 -0.3687
  168SOPE   H9X18987   1.287   2.739   7.414 -0.7378  0.2451 -2.1789
  168SOPE   H9Y18988   1.205   2.870   7.503  0.6388  0.9470  0.1045
  168SOPE  C31018989   1.415   2.838   7.564 -0.2348 -0.7361 -0.3788
  168SOPE  H10X18990   1.425   2.939   7.609  1.5685 -0.6391 -0.9201
  168SOPE  H10Y18991   1.508   2.812   7.508 -0.4650 -0.4821 -0.8896
  168SOPE  C31118992   1.397   2.734   7.671  0.1968 -0.3466  0.4386
  168SOPE  H11X18993   1.385   2.631   7.631  0.3703  0.6965 -2.5528
  168SOPE  H11Y18994   1.305   2.760   7.727  1.0963 -0.0918  1.8459
  168SOPE  C31218995   1.525   2.731   7.756 -0.1380 -0.0734  0.0595
  168SOPE  H12X18996   1.532   2.819   7.824  1.1882 -1.2152  1.4873
  168SOPE  H12Y18997   1.614   2.731   7.690 -0.0121 -2.2576  0.1469
  168SOPE  C31318998   1.540   2.606   7.852 -0.2874 -0.4723 -0.0901
  168SOPE  H13X18999   1.643   2.622   7.892 -0.1805 -0.5394 -0.3362
  168SOPE  H13Y19000   1.545   2.518   7.785  1.5946  0.7379 -1.6771
  168SOPE  C31419001   1.431   2.618   7.961  0.0827  0.0905  0.1546
  168SOPE  H14X19002   1.340   2.627   7.898  0.6269  0.8633 -0.5346
  168SOPE  H14Y19003   1.421   2.711   8.021  0.2146  0.3736 -0.2647
  168SOPE  C31519004   1.430   2.506   8.056 -0.0333 -0.3510 -0.8227
  168SOPE  H15X19005   1.439   2.405   8.012 -0.1180 -0.9646  0.5319
  168SOPE  H15Y19006   1.334   2.515   8.111 -0.0336 -0.5913 -0.7823
  168SOPE  C31619007   1.547   2.533   8.156  0.0914 -0.4223  0.0206
  168SOPE  H16X19008   1.550   2.638   8.190  0.1381  0.3479 -2.2263
  168SOPE  H16Y19009   1.637   2.497   8.103 -0.9820 -2.4507 -0.5462
  168SOPE  C31719010   1.538   2.444   8.289  0.2795 -0.4882  0.6769
  168SOPE  H17X19011   1.546   2.339   8.255 -1.2726  0.6607 -4.0621
  168SOPE  H17Y19012   1.445   2.463   8.347  0.3057 -0.6090  0.7587
  168SOPE  C31819013   1.651   2.485   8.395 -0.9992 -0.2077 -0.3681
  168SOPE  H18X19014   1.754   2.479   8.353 -0.6700 -1.7362  0.5709
  168SOPE  H18Y19015   1.637   2.416   8.481 -0.3052 -0.7093 -0.6511
  168SOPE  H18Z19016   1.625   2.585   8.434 -1.7216 -0.2943 -0.5987
  169SOPE     N19017   5.413   3.745   6.464 -0.2924 -0.0053 -0.2171
  169SOPE   HN119018   5.473   3.692   6.531  1.0436 -0.3025 -1.5873
  169SOPE   HN219019   5.394   3.682   6.383 -2.9531 -0.0243  0.3307
  169SOPE   HN319020   5.465   3.828   6.430  0.9892 -0.4781  0.5112
  169SOPE   C1219021   5.287   3.776   6.533 -0.2848  1.2194 -0.1816
  169SOPE  H12A19022   5.304   3.859   6.604 -5.1024  0.3443  2.4678
  169SOPE  H12B19023   5.260   3.684   6.589  2.2759  1.8567  2.3158
  169SOPE   C1119024   5.180   3.816   6.428  0.0133  0.0704 -1.0694
  169SOPE  H11A19025   5.091   3.840   6.489  1.2668 -0.7576  1.2252
  169SOPE  H11B19026   5.147   3.735   6.360  1.6887 -0.9680 -0.7245
  169SOPE     P19027   5.106   4.020   6.266  0.3168  0.0494  0.0548
  169SOPE   O1319028   5.004   3.932   6.213  0.1486 -0.2340 -0.1913
  169SOPE   O1419029   5.174   4.115   6.177 -0.2649  0.0718  0.1677
  169SOPE   O1219030   5.210   3.941   6.351 -0.5518  0.3215 -0.5508
  169SOPE   O1119031   5.054   4.096   6.391  0.0174 -0.7473  0.5903
  169SOPE    C119032   5.137   4.145   6.496  0.2132 -0.2291  0.0969
  169SOPE    HA19033   5.211   4.217   6.455 -0.2224 -0.7090 -1.6312
  169SOPE    HB19034   5.191   4.059   6.542 -0.6002 -2.0458 -2.1329
  169SOPE    C219035   5.045   4.198   6.614 -0.9169 -0.4510  0.1988
  169SOPE    HS19036   5.104   4.240   6.699  0.9234  1.7536 -2.0187
  169SOPE   O2119037   4.953   4.100   6.653  0.2381 -0.3315 -0.6099
  169SOPE   C2119038   5.001   3.996   6.716 -0.9284  0.0210 -0.0380
  169SOPE   O2219039   5.116   3.975   6.747  0.1772  0.5266  0.0466
  169SOPE   C2219040   4.889   3.896   6.734  0.0806 -0.7232 -0.1924
  169SOPE   H2R19041   4.905   3.806   6.670  2.6589 -1.3063  1.1074
  169SOPE   H2S19042   4.800   3.940   6.687 -0.1016 -0.2977  0.5376
  169SOPE    C319043   4.949   4.317   6.574 -0.0201 -0.2774  0.1582
  169SOPE    HX19044   4.916   4.282   6.474 -4.1197  0.3939  1.1045
  169SOPE    HY19045   5.008   4.411   6.567  0.7744 -0.7089  0.8977
  169SOPE   O3119046   4.842   4.338   6.666  0.4483  0.2926 -0.6185
  169SOPE   C3119047   4.717   4.306   6.635 -0.1205 -0.1879 -0.1487
  169SOPE   O3219048   4.683   4.239   6.537  0.3639  0.0784 -0.0201
  169SOPE   C3219049   4.622   4.377   6.737 -0.0860  0.2503 -0.3151
  169SOPE   H2X19050   4.611   4.487   6.727  1.1385  0.6493  1.8909
  169SOPE   H2Y19051   4.663   4.351   6.837 -0.0527 -1.1982 -0.6820
  169SOPE   C2319052   4.864   3.873   6.884  0.6822  0.5932 -0.2363
  169SOPE   H3R19053   4.837   3.974   6.923  0.1675  0.5374 -0.4318
  169SOPE   H3S19054   4.955   3.839   6.936  1.6316  2.5957 -0.4978
  169SOPE   C2419055   4.734   3.796   6.914  0.4587 -0.0373 -0.2489
  169SOPE   H4R19056   4.659   3.836   6.842 -1.3352 -0.6286  1.2101
  169SOPE   H4S19057   4.752   3.688   6.895  0.2166 -0.4163  1.4966
  169SOPE   C2519058   4.684   3.815   7.053  0.9876 -0.1046 -0.1305
  169SOPE   H5R19059   4.673   3.924   7.071 -0.5496 -0.4155  1.0854
  169SOPE   H5S19060   4.581   3.774   7.055 -0.3105  2.8545 -1.1224
  169SOPE   C2619061   4.765   3.751   7.164 -0.3426  0.0872 -0.1496
  169SOPE   H6R19062   4.764   3.640   7.162  2.2063  0.0037  0.6954
  169SOPE   H6S19063   4.868   3.789   7.150 -1.1727  1.6767 -2.6035
  169SOPE   C2719064   4.721   3.789   7.310 -0.8548 -0.4692 -0.3085
  169SOPE   H7R19065   4.758   3.889   7.341  0.4845 -1.2593  0.7896
  169SOPE   H7S19066   4.610   3.787   7.306 -1.0371 -0.8481  2.6791
  169SOPE   C2819067   4.754   3.679   7.418  0.6536 -0.1702 -0.1367
  169SOPE   H8R19068   4.711   3.728   7.508 -2.3177 -3.3930  0.4167
  169SOPE   H8S19069   4.697   3.586   7.396 -0.6441  0.7631 -0.8822
  169SOPE   C2919070   4.894   3.638   7.450  0.2750 -0.1002  0.6005
  169SOPE   H9119071   4.964   3.659   7.368 -0.4648  0.0512 -0.0031
  169SOPE  C21019072   4.944   3.576   7.556 -0.0649  0.5985  0.2009
  169SOPE  H10119073   5.053   3.561   7.568 -0.2406 -1.5379 -0.4357
  169SOPE  C21119074   4.870   3.525   7.675  0.2703 -0.6765 -0.0532
  169SOPE  H11R19075   4.917   3.425   7.686  3.4799  0.6248 -0.9082
  169SOPE  H11S19076   4.764   3.503   7.651  0.0703  0.7571 -0.5521
  169SOPE  C21219077   4.871   3.621   7.801 -0.4119  0.3078  0.2177
  169SOPE  H12R19078   4.803   3.709   7.791 -0.3436  0.3803  0.3938
  169SOPE  H12S19079   4.976   3.649   7.822  0.9404 -1.9607 -2.7569
  169SOPE  C21319080   4.820   3.551   7.930  0.5247 -0.0089 -0.3154
  169SOPE  H13R19081   4.878   3.459   7.951 -0.3725 -0.6114 -0.4464
  169SOPE  H13S19082   4.716   3.521   7.906  0.6690  0.0345 -1.0275
  169SOPE  C21419083   4.831   3.646   8.055 -0.5642 -0.0780  0.0775
  169SOPE  H14R19084   4.756   3.727   8.052  0.0248  0.4882  0.4351
  169SOPE  H14S19085   4.929   3.699   8.046 -1.2944  1.3848  0.4624
  169SOPE  C21519086   4.824   3.566   8.188 -0.4174 -0.2368 -0.1227
  169SOPE  H15R19087   4.909   3.495   8.194 -0.5172 -0.3969 -0.5820
  169SOPE  H15S19088   4.723   3.521   8.197 -1.0538  1.1091 -0.2018
  169SOPE  C21619089   4.823   3.658   8.316 -0.1696 -0.2215 -0.9683
  169SOPE  H16R19090   4.795   3.600   8.407  0.5782  0.9487  0.0430
  169SOPE  H16S19091   4.751   3.742   8.304  0.3505  0.2298 -0.9920
  169SOPE  C21719092   4.974   3.708   8.342  0.4657  0.6614  0.1497
  169SOPE  H17R19093   5.047   3.651   8.279  3.1943  2.4946  1.4312
  169SOPE  H17S19094   4.995   3.695   8.450 -0.4464 -3.3062  0.0066
  169SOPE  C21819095   4.996   3.851   8.299  0.1197  0.0084 -0.2353
  169SOPE  H18R19096   5.094   3.887   8.337  0.1068 -0.1933 -0.0081
  169SOPE  H18S19097   4.910   3.910   8.339 -0.4926  0.1653 -1.7257
  169SOPE  H18T19098   5.003   3.874   8.191  1.0392 -0.5652 -0.3057
  169SOPE   C3319099   4.478   4.321   6.728 -0.2535  0.3299  0.4145
  169SOPE   H3X19100   4.472   4.210   6.729  3.7050 -0.0072  1.0360
  169SOPE   H3Y19101   4.445   4.349   6.626 -2.1945 -1.9516  0.3122
  169SOPE   C3419102   4.385   4.371   6.838 -0.3222 -0.4059  0.5644
  169SOPE   H4X19103   4.283   4.375   6.793 -2.5058 -5.5176  4.0942
  169SOPE   H4Y19104   4.406   4.473   6.876  0.6691 -0.5388  0.4095
  169SOPE   C3519105   4.365   4.279   6.957 -0.4451  0.2432 -0.7014
  169SOPE   H5X19106   4.463   4.255   7.003 -0.8772 -1.4004 -0.5804
  169SOPE   H5Y19107   4.333   4.182   6.914  2.0942 -0.8142 -0.3642
  169SOPE   C3619108   4.264   4.349   7.057 -0.7091  0.4106 -0.4761
  169SOPE   H6X19109   4.160   4.364   7.020 -2.1470  1.3369  3.3848
  169SOPE   H6Y19110   4.296   4.452   7.082  2.9188 -0.3670 -1.3966
  169SOPE   C3719111   4.255   4.266   7.190 -0.0500 -0.2011 -0.2803
  169SOPE   H7X19112   4.225   4.164   7.157 -0.2396 -0.1715 -0.2023
  169SOPE   H7Y19113   4.170   4.308   7.247 -0.4894  1.4557 -2.0477
  169SOPE   C3819114   4.378   4.251   7.271 -1.4915  0.3186 -0.3668
  169SOPE   H8X19115   4.471   4.210   7.226 -1.7667 -0.0040 -0.6446
  169SOPE   H8Y19116   4.401   4.356   7.298  0.8344 -0.5127  1.1709
  169SOPE   C3919117   4.367   4.174   7.407  0.3305 -0.3928 -0.0632
  169SOPE   H9X19118   4.463   4.127   7.437 -0.0025 -1.7579 -1.0142
  169SOPE   H9Y19119   4.290   4.095   7.395 -0.4144  0.0670  1.5032
  169SOPE  C31019120   4.317   4.274   7.516 -0.3547  0.0177 -0.5338
  169SOPE  H10X19121   4.212   4.308   7.501 -0.2439  0.0005 -1.3973
  169SOPE  H10Y19122   4.376   4.368   7.510 -1.2763  0.5961 -0.7613
  169SOPE  C31119123   4.327   4.209   7.655  0.1936 -0.2822 -0.2831
  169SOPE  H11X19124   4.429   4.169   7.675 -0.1764 -0.9774  0.2324
  169SOPE  H11Y19125   4.270   4.114   7.653  1.1842 -0.9488  1.3154
  169SOPE  C31219126   4.264   4.309   7.749  0.2589 -0.3631 -0.3160
  169SOPE  H12X19127   4.167   4.348   7.712  0.7508 -0.3552 -1.6700
  169SOPE  H12Y19128   4.333   4.396   7.749  0.4897 -0.5011  1.6452
  169SOPE  C31319129   4.261   4.248   7.886  0.5889  0.2605 -0.4367
  169SOPE  H13X19130   4.363   4.207   7.902  0.6558 -0.3323 -2.1639
  169SOPE  H13Y19131   4.183   4.169   7.892 -2.2346  2.8384 -0.4489
  169SOPE  C31419132   4.237   4.349   8.004 -0.1665  0.1885 -0.3571
  169SOPE  H14X19133   4.332   4.407   8.008  0.4376 -0.8564  0.7463
  169SOPE  H14Y19134   4.232   4.303   8.105 -2.4001 -0.0014 -0.5075
  169SOPE  C31519135   4.123   4.438   7.984 -0.3495 -0.5065  0.2499
  169SOPE  H15X19136   4.032   4.375   7.975  0.6130 -1.9642  0.5280
  169SOPE  H15Y19137   4.136   4.495   7.889  0.3877 -0.6347  0.2682
  169SOPE  C31619138   4.098   4.545   8.093  0.8576 -0.0305 -0.8282
  169SOPE  H16X19139   4.065   4.487   8.181  2.1064  1.5483  0.7527
  169SOPE  H16Y19140   4.007   4.600   8.061  0.3592 -0.1959  0.2758
  169SOPE  C31719141   4.215   4.639   8.123  0.5039  0.3771  0.3842
  169SOPE  H17X19142   4.261   4.670   8.027  2.0332  2.1284  1.5968
  169SOPE  H17Y19143   4.296   4.581   8.173 -0.3561  2.0406  4.1177
  169SOPE  C31819144   4.198   4.759   8.213 -0.0914  0.6502  0.0385
  169SOPE  H18X19145   4.294   4.815   8.216  0.2659  0.0688 -0.2805
  169SOPE  H18Y19146   4.164   4.739   8.317  0.6010 -1.1917 -0.0554
  169SOPE  H18Z19147   4.125   4.829   8.168 -1.0131  0.0877  0.6173
  170SOPE     N19148   2.890   4.634   6.283 -0.2303  0.1770 -0.2712
  170SOPE   HN119149   2.952   4.717   6.278  0.9303 -0.6434  0.2148
  170SOPE   HN219150   2.794   4.665   6.258  0.5471  3.1210  0.0860
  170SOPE   HN319151   2.894   4.611   6.384  0.8944  0.2268 -0.3014
  170SOPE   C1219152   2.943   4.518   6.206  0.0051 -0.1401 -0.4264
  170SOPE  H12A19153   2.947   4.547   6.099 -0.7457  3.4864  0.3854
  170SOPE  H12B19154   2.878   4.428   6.216 -0.9670  0.6634  0.6504
  170SOPE   C1119155   3.080   4.487   6.262  0.9673 -0.9450 -0.2170
  170SOPE  H11A19156   3.101   4.379   6.244 -0.2482 -1.1483 -0.5242
  170SOPE  H11B19157   3.081   4.507   6.371 -2.5644 -0.4785 -0.1487
  170SOPE     P19158   3.313   4.598   6.262 -0.0461 -0.4234  0.3676
  170SOPE   O1319159   3.372   4.698   6.172 -0.0948 -0.3583 -0.4079
  170SOPE   O1419160   3.382   4.468   6.293 -0.2104  0.4363  0.4238
  170SOPE   O1219161   3.173   4.564   6.198  0.7137 -0.9344  0.0603
  170SOPE   O1119162   3.263   4.669   6.402  0.1079 -0.3264  0.0441
  170SOPE    C119163   3.363   4.760   6.449 -0.1388  0.1331 -0.1269
  170SOPE    HA19164   3.324   4.863   6.439  1.8385  1.1851  2.1138
  170SOPE    HB19165   3.464   4.762   6.403 -0.2522  0.2904 -0.3664
  170SOPE    C219166   3.376   4.742   6.611  0.0661 -0.0642  0.5178
  170SOPE    HS19167   3.419   4.834   6.658 -1.6455  0.9332  0.2003
  170SOPE   O2119168   3.448   4.620   6.639  0.0995 -0.2215  0.2016
  170SOPE   C2119169   3.582   4.630   6.624  0.1355 -0.3588 -0.5482
  170SOPE   O2219170   3.647   4.728   6.590 -0.5508  0.1080 -0.5220
  170SOPE   C2219171   3.651   4.499   6.669  0.9769  0.1841  0.1749
  170SOPE   H2R19172   3.669   4.447   6.572  0.4175  0.6532 -0.1908
  170SOPE   H2S19173   3.578   4.437   6.725  0.7970 -0.0023 -0.2562
  170SOPE    C319174   3.236   4.722   6.670 -0.1163  0.1019 -0.0261
  170SOPE    HX19175   3.204   4.626   6.626  1.5332 -1.6032  2.2222
  170SOPE    HY19176   3.171   4.810   6.648  2.0869  1.2854 -2.3706
  170SOPE   O3119177   3.250   4.727   6.816 -0.4654  0.5005 -0.2049
  170SOPE   C3119178   3.172   4.641   6.873 -0.0525 -0.3559  0.5212
  170SOPE   O3219179   3.073   4.591   6.822  0.3730  0.4170  0.4906
  170SOPE   C3219180   3.206   4.631   7.019 -0.1418  0.1706 -0.0718
  170SOPE   H2X19181   3.148   4.553   7.073 -0.2955  0.4212  0.1255
  170SOPE   H2Y19182   3.179   4.726   7.069  0.9676  0.4865 -0.0423
  170SOPE   C2319183   3.788   4.527   6.741 -0.1871  0.2240  0.2858
  170SOPE   H3R19184   3.851   4.599   6.686 -0.9907  0.9340  0.2700
  170SOPE   H3S19185   3.828   4.424   6.751  1.3327  0.7520 -0.1820
  170SOPE   C2419186   3.760   4.564   6.885  0.3906 -0.1666  0.2543
  170SOPE   H4R19187   3.702   4.658   6.887 -0.0387 -0.4250  0.0536
  170SOPE   H4S19188   3.689   4.484   6.915  1.1982 -0.5431  1.2301
  170SOPE   C2519189   3.877   4.559   6.987  0.1226 -0.4006  0.0548
  170SOPE   H5R19190   3.931   4.463   6.968  2.2818  0.8183 -0.2418
  170SOPE   H5S19191   3.950   4.639   6.963 -0.5994  0.2526 -0.0070
  170SOPE   C2619192   3.828   4.560   7.129 -0.7632  0.5970 -0.1825
  170SOPE   H6R19193   3.776   4.655   7.155  1.4310  1.7040  0.4781
  170SOPE   H6S19194   3.764   4.471   7.145 -0.5963  0.7872  1.7560
  170SOPE   C2719195   3.938   4.535   7.237 -0.2231  0.1162  0.7529
  170SOPE   H7R19196   3.992   4.442   7.209 -0.6076  0.0600  0.1703
  170SOPE   H7S19197   4.014   4.615   7.225 -2.2009  1.9699 -0.2527
  170SOPE   C2819198   3.878   4.532   7.383  0.4028  0.4671  0.0903
  170SOPE   H8R19199   3.854   4.638   7.406  0.8698  0.1494  2.2473
  170SOPE   H8S19200   3.789   4.466   7.373  1.4384 -0.8049 -1.0524
  170SOPE   C2919201   3.984   4.488   7.480  0.0322  0.9717  0.2196
  170SOPE   H9119202   3.984   4.381   7.505  1.4266  0.7889 -0.4686
  170SOPE  C21019203   4.069   4.577   7.534 -0.4851 -0.2525 -0.2078
  170SOPE  H10119204   4.138   4.544   7.613  1.4910  2.6416 -0.5865
  170SOPE  C21119205   4.072   4.726   7.523 -0.3301  0.2748 -0.1685
  170SOPE  H11R19206   3.997   4.772   7.455  0.2565  0.9662 -0.3505
  170SOPE  H11S19207   4.170   4.751   7.477 -0.7074 -0.3800 -1.3773
  170SOPE  C21219208   4.069   4.796   7.661  0.4690 -0.5824 -0.3378
  170SOPE  H12R19209   4.100   4.901   7.644  2.2000 -1.3490 -2.2595
  170SOPE  H12S19210   4.147   4.752   7.726 -1.9871  0.3072  3.5154
  170SOPE  C21319211   3.935   4.779   7.729  0.2432  0.3056  0.4826
  170SOPE  H13R19212   3.909   4.672   7.712  0.9784  0.2979 -0.7228
  170SOPE  H13S19213   3.872   4.843   7.664  1.9781  1.3542 -0.2552
  170SOPE  C21419214   3.932   4.819   7.877  0.0562 -0.1119  0.1827
  170SOPE  H14R19215   3.957   4.927   7.884 -0.3802 -0.0688  1.3462
  170SOPE  H14S19216   4.004   4.761   7.939 -1.4723 -0.1441  2.0469
  170SOPE  C21519217   3.790   4.822   7.935 -0.4639  0.9049  0.2928
  170SOPE  H15R19218   3.767   4.718   7.966  0.6403 -0.2496 -2.4220
  170SOPE  H15S19219   3.723   4.824   7.846 -1.3256 -0.8508  0.8452
  170SOPE  C21619220   3.754   4.928   8.029 -0.0624  0.1705 -0.5002
  170SOPE  H16R19221   3.785   5.023   7.981  1.3323  0.3853  0.7714
  170SOPE  H16S19222   3.811   4.910   8.123 -1.7415  0.7884  0.6822
  170SOPE  C21719223   3.610   4.919   8.078  0.0743 -0.5641 -0.3967
  170SOPE  H17R19224   3.614   4.932   8.188  2.5710 -0.5350 -0.4333
  170SOPE  H17S19225   3.581   4.816   8.047  0.0086 -0.6336 -0.1015
  170SOPE  C21819226   3.515   5.015   7.999  0.2726 -0.0654 -0.4694
  170SOPE  H18R19227   3.414   4.993   8.039  0.4025 -0.8293 -0.5473
  170SOPE  H18S19228   3.519   4.999   7.889 -1.7908 -0.5899 -0.5141
  170SOPE  H18T19229   3.538   5.123   8.012 -0.5062  0.1939 -1.1263
  170SOPE   C3319230   3.354   4.603   7.055 -0.2430 -0.8907 -0.0390
  170SOPE   H3X19231   3.415   4.693   7.032  0.2539 -0.6122  2.2035
  170SOPE   H3Y19232   3.405   4.521   7.000  2.0966  0.1876  0.4237
  170SOPE   C3419233   3.383   4.561   7.203 -0.1933 -0.1319  0.5572
  170SOPE   H4X19234   3.342   4.640   7.269  2.8633 -0.6974  3.4041
  170SOPE   H4Y19235   3.492   4.561   7.223 -0.0300  2.8092  0.1134
  170SOPE   C3519236   3.325   4.427   7.246 -0.4216 -0.1484 -0.0359
  170SOPE   H5X19237   3.384   4.354   7.187 -1.3841 -2.1374  1.3661
  170SOPE   H5Y19238   3.219   4.424   7.215 -0.0937  0.1190 -1.2136
  170SOPE   C3619239   3.340   4.404   7.402  0.4757  0.4927  0.1139
  170SOPE   H6X19240   3.259   4.451   7.462 -0.4524  0.0411 -0.7646
  170SOPE   H6Y19241   3.437   4.453   7.427  1.5387 -0.7239 -1.3767
  170SOPE   C3719242   3.336   4.256   7.434  1.0470  0.0221 -0.1666
  170SOPE   H7X19243   3.391   4.203   7.354  1.2016  4.6808 -3.5516
  170SOPE   H7Y19244   3.228   4.229   7.430  1.2785 -0.8083 -4.1394
  170SOPE   C3819245   3.393   4.221   7.571  0.1235 -0.4663 -0.3196
  170SOPE   H8X19246   3.330   4.265   7.651  1.0744 -0.8836  0.6814
  170SOPE   H8Y19247   3.486   4.282   7.579 -0.6894  1.1323 -2.2559
  170SOPE   C3919248   3.409   4.077   7.611  0.0893  1.0952 -0.0506
  170SOPE   H9X19249   3.498   4.043   7.553  1.4513  0.9083  2.0338
  170SOPE   H9Y19250   3.312   4.031   7.583 -1.3710  1.5055  3.7414
  170SOPE  C31019251   3.438   4.055   7.762  0.0286  0.2963  0.1913
  170SOPE  H10X19252   3.354   4.100   7.818 -1.3463 -0.1476 -1.4388
  170SOPE  H10Y19253   3.533   4.108   7.784  1.2258 -2.1296  1.3141
  170SOPE  C31119254   3.443   3.910   7.810 -0.3355 -0.1329 -0.7450
  170SOPE  H11X19255   3.519   3.850   7.756  0.7465  0.3279  0.2288
  170SOPE  H11Y19256   3.339   3.877   7.786 -1.3518  2.0957  0.3136
  170SOPE  C31219257   3.459   3.904   7.966  0.5114  0.1886  0.3424
  170SOPE  H12X19258   3.363   3.949   7.999 -0.6708 -0.3578 -2.0922
  170SOPE  H12Y19259   3.534   3.976   8.006  0.4037 -0.3052  1.4498
  170SOPE  C31319260   3.489   3.761   8.021 -0.3071  0.3687 -0.3854
  170SOPE  H13X19261   3.589   3.718   7.996 -0.6461 -1.4243  1.0874
  170SOPE  H13Y19262   3.415   3.690   7.980 -0.9148  1.5680 -1.4292
  170SOPE  C31419263   3.490   3.755   8.177  0.1165 -0.2730 -0.2869
  170SOPE  H14X19264   3.555   3.834   8.221 -0.0290 -1.2367  1.8172
  170SOPE  H14Y19265   3.532   3.654   8.197  0.7822 -0.3459 -1.8938
  170SOPE  C31519266   3.346   3.756   8.233 -0.0195 -0.4780 -0.6254
  170SOPE  H15X19267   3.294   3.658   8.221  2.8830 -2.0063 -1.9452
  170SOPE  H15Y19268   3.281   3.829   8.180 -0.3720 -0.3638 -0.0411
  170SOPE  C31619269   3.339   3.786   8.385 -0.4061 -0.3705  0.3001
  170SOPE  H16X19270   3.399   3.711   8.440  1.0339 -0.0398 -0.7423
  170SOPE  H16Y19271   3.232   3.776   8.410 -1.1536  0.3093 -2.3023
  170SOPE  C31719272   3.397   3.923   8.435 -0.1358  0.2250 -1.1424
  170SOPE  H17X19273   3.327   4.003   8.403 -1.4924 -0.6796 -0.5243
  170SOPE  H17Y19274   3.495   3.945   8.387  1.5372 -0.7344  1.5997
  170SOPE  C31819275   3.402   3.935   8.581 -0.0397 -0.3982  0.0476
  170SOPE  H18X19276   3.302   3.926   8.630  0.1779 -1.7962  0.2675
  170SOPE  H18Y19277   3.446   4.032   8.614 -0.2205 -0.2245 -0.2085
  170SOPE  H18Z19278   3.466   3.858   8.628  2.4535  1.1060 -0.6698
  171SOPE     N19279   6.481   5.713   6.074  0.0067  0.0053  0.4732
  171SOPE   HN119280   6.566   5.673   6.119 -1.1257  0.6205  3.3714
  171SOPE   HN219281   6.393   5.658   6.075 -1.3759  2.0940  2.4459
  171SOPE   HN319282   6.516   5.730   5.977  0.8137  1.7679  1.0333
  171SOPE   C1219283   6.435   5.840   6.145 -0.1917  0.1339 -0.6117
  171SOPE  H12A19284   6.343   5.880   6.097  1.2264  2.2068 -1.7588
  171SOPE  H12B19285   6.513   5.918   6.131  0.3811  0.0181  1.6375
  171SOPE   C1119286   6.413   5.815   6.292  0.3359 -0.6018 -0.1998
  171SOPE  H11A19287   6.385   5.912   6.340  1.0265 -1.2766  1.6625
  171SOPE  H11B19288   6.520   5.793   6.313  1.2118  1.6353 -1.7927
  171SOPE     P19289   6.170   5.729   6.319  0.0299  0.0650 -0.1028
  171SOPE   O1319290   6.103   5.603   6.348  0.6667  0.5273 -0.6151
  171SOPE   O1419291   6.127   5.795   6.195 -0.7366 -0.0999  0.1843
  171SOPE   O1219292   6.329   5.704   6.320  0.7654  0.2813 -0.3564
  171SOPE   O1119293   6.149   5.825   6.441  0.6233  0.8068  0.2856
  171SOPE    C119294   6.216   5.822   6.561 -0.6871  0.6689  0.4225
  171SOPE    HA19295   6.298   5.896   6.558 -0.1769  0.1338  1.0406
  171SOPE    HB19296   6.273   5.727   6.565 -2.7988 -0.8000 -1.2431
  171SOPE    C219297   6.124   5.854   6.684  0.4159  0.0213 -0.3757
  171SOPE    HS19298   6.087   5.958   6.677  2.5560  0.7983 -1.0829
  171SOPE   O2119299   6.206   5.845   6.806  0.5816  0.2555 -0.1355
  171SOPE   C2119300   6.285   5.951   6.822 -0.5790  0.3459 -0.9262
  171SOPE   O2219301   6.304   6.048   6.749  0.1086  0.1973  0.0242
  171SOPE   C2219302   6.339   5.935   6.963  0.4055  0.3024 -0.2834
  171SOPE   H2R19303   6.419   5.859   6.972 -0.6866 -0.6130  2.9192
  171SOPE   H2S19304   6.256   5.900   7.027 -0.9791  1.5013 -1.3477
  171SOPE    C319305   6.012   5.742   6.690  0.2138  0.4257 -0.5288
  171SOPE    HX19306   6.058   5.646   6.723 -2.4943 -1.9132 -2.9641
  171SOPE    HY19307   5.982   5.728   6.583 -3.7590  0.4327  0.4117
  171SOPE   O3119308   5.897   5.780   6.773 -0.0497 -0.0718 -0.2644
  171SOPE   C3119309   5.818   5.672   6.793 -0.0963 -0.3490  0.0303
  171SOPE   O3219310   5.832   5.563   6.741 -0.4934 -0.7023 -0.2815
  171SOPE   C3219311   5.719   5.712   6.915 -0.4079 -0.5931  0.5377
  171SOPE   H2X19312   5.613   5.712   6.881  0.0733  2.8121 -1.4553
  171SOPE   H2Y19313   5.730   5.822   6.924  1.2949 -0.4046 -2.5603
  171SOPE   C2319314   6.403   6.062   7.023  0.1256  0.6686  0.7475
  171SOPE   H3R19315   6.321   6.134   7.043 -1.7262  0.0940 -3.5683
  171SOPE   H3S19316   6.473   6.109   6.950 -1.1375  0.6693 -0.5050
  171SOPE   C2419317   6.468   6.036   7.161 -0.0060  0.3229  0.5642
  171SOPE   H4R19318   6.545   5.958   7.140 -2.5269 -2.7889  1.9150
  171SOPE   H4S19319   6.515   6.128   7.202  1.7204 -0.7899  1.2025
  171SOPE   C2519320   6.369   5.976   7.263  0.0233  0.3449 -0.0601
  171SOPE   H5R19321   6.271   6.026   7.246 -0.7034 -1.6149 -2.1899
  171SOPE   H5S19322   6.357   5.867   7.247 -1.8390  0.4360  0.4699
  171SOPE   C2619323   6.423   6.001   7.404  0.5164  0.2862 -0.6500
  171SOPE   H6R19324   6.443   6.110   7.418 -0.5193  0.3437  0.6040
  171SOPE   H6S19325   6.345   5.970   7.476 -0.8272  0.7859 -1.8488
  171SOPE   C2719326   6.538   5.905   7.435 -0.1372 -0.1238  0.4589
  171SOPE   H7R19327   6.508   5.809   7.387 -1.4507  0.2010  0.6005
  171SOPE   H7S19328   6.629   5.941   7.383 -0.6617 -1.9206 -1.8983
  171SOPE   C2819329   6.562   5.885   7.585 -0.5985  0.2358  0.2007
  171SOPE   H8R19330   6.590   5.983   7.629 -0.8894  0.6617 -0.5389
  171SOPE   H8S19331   6.466   5.854   7.632  0.0903 -2.9325 -0.2841
  171SOPE   C2919332   6.664   5.777   7.607  0.1989  0.4934  0.1822
  171SOPE   H9119333   6.659   5.689   7.542 -1.5319 -0.1242  1.1058
  171SOPE  C21019334   6.764   5.783   7.688 -0.9120  0.0418 -0.7664
  171SOPE  H10119335   6.814   5.686   7.701 -0.7987  0.2914  0.8990
  171SOPE  C21119336   6.808   5.912   7.765 -0.2101 -0.8380  0.4088
  171SOPE  H11R19337   6.779   6.005   7.711  3.7261  1.1534  1.3740
  171SOPE  H11S19338   6.919   5.912   7.758 -0.2882 -0.8018 -1.3226
  171SOPE  C21219339   6.775   5.904   7.915 -0.0751 -0.7229 -0.1749
  171SOPE  H12R19340   6.823   5.987   7.971 -0.2438 -0.8217  0.1188
  171SOPE  H12S19341   6.836   5.817   7.949  2.4631  1.5153  1.4707
  171SOPE  C21319342   6.625   5.893   7.950 -0.1890  0.3541  0.5039
  171SOPE  H13R19343   6.580   5.794   7.928 -1.1338  0.9656 -0.4187
  171SOPE  H13S19344   6.575   5.958   7.874 -0.4512 -1.6917 -1.1479
  171SOPE  C21419345   6.606   5.933   8.093 -0.5652  0.4972 -0.6351
  171SOPE  H14R19346   6.498   5.959   8.102 -0.4791  0.9367 -0.7967
  171SOPE  H14S19347   6.657   6.026   8.128  1.7461 -1.1859  0.7321
  171SOPE  C21519348   6.638   5.822   8.195 -0.2046 -0.1965  0.8664
  171SOPE  H15R19349   6.746   5.798   8.182 -0.1946 -1.0813  2.3287
  171SOPE  H15S19350   6.572   5.734   8.180  0.5813 -0.2978 -3.2194
  171SOPE  C21619351   6.614   5.868   8.338  0.2926 -0.3929  0.0448
  171SOPE  H16R19352   6.643   5.975   8.352  0.5146 -0.1526 -1.9530
  171SOPE  H16S19353   6.691   5.813   8.395  2.3608  1.1712 -1.0922
  171SOPE  C21719354   6.476   5.833   8.397  0.8335 -0.1442  0.5775
  171SOPE  H17R19355   6.446   5.728   8.376 -3.7906  0.8504  1.0264
  171SOPE  H17S19356   6.408   5.899   8.338  0.5653  0.6889  1.7912
  171SOPE  C21819357   6.462   5.870   8.544  0.4858  0.8516  0.3384
  171SOPE  H18R19358   6.488   5.974   8.571 -4.7787  2.1418  1.6345
  171SOPE  H18S19359   6.521   5.809   8.617 -1.8650 -2.5054 -0.3099
  171SOPE  H18T19360   6.356   5.850   8.572  0.5190  0.5278  0.2387
  171SOPE   C3319361   5.745   5.636   7.039  0.2698  0.3420  0.1393
  171SOPE   H3X19362   5.676   5.667   7.121 -1.0141 -0.6643 -0.5346
  171SOPE   H3Y19363   5.852   5.641   7.070  0.4793  0.6434 -0.6237
  171SOPE   C3419364   5.712   5.486   7.018  1.1226  0.1672 -0.3858
  171SOPE   H4X19365   5.790   5.428   6.963  0.2259 -2.3816  0.8854
  171SOPE   H4Y19366   5.622   5.480   6.954  0.0522  0.6991  1.0338
  171SOPE   C3519367   5.674   5.409   7.145  0.0789 -0.1540  0.0369
  171SOPE   H5X19368   5.590   5.458   7.200  0.9014 -0.4918  1.6552
  171SOPE   H5Y19369   5.757   5.423   7.217  2.4708  0.4825 -2.6738
  171SOPE   C3619370   5.667   5.252   7.118 -0.3654 -0.1750 -0.4410
  171SOPE   H6X19371   5.771   5.214   7.122 -0.7859 -1.2837  0.4543
  171SOPE   H6Y19372   5.634   5.227   7.014  1.5406 -0.2947 -1.0589
  171SOPE   C3719373   5.579   5.172   7.216  0.1349 -1.5011  0.2663
  171SOPE   H7X19374   5.587   5.063   7.199 -0.7796 -1.4097 -0.9082
  171SOPE   H7Y19375   5.473   5.193   7.189  0.3221 -1.5833 -0.5453
  171SOPE   C3819376   5.606   5.195   7.364 -0.4377 -0.0072 -0.4737
  171SOPE   H8X19377   5.591   5.303   7.387 -2.0765 -0.6903  2.1675
  171SOPE   H8Y19378   5.710   5.162   7.385  0.3669  1.5151 -1.8189
  171SOPE   C3919379   5.519   5.116   7.460 -1.0769  0.9701  0.1564
  171SOPE   H9X19380   5.527   5.007   7.441  1.9202  1.2183 -0.4585
  171SOPE   H9Y19381   5.420   5.155   7.431 -1.7614 -1.3477 -0.8869
  171SOPE  C31019382   5.547   5.152   7.607  1.2929 -0.0144 -0.0678
  171SOPE  H10X19383   5.464   5.126   7.675  0.7557  1.3965 -0.1435
  171SOPE  H10Y19384   5.561   5.262   7.612 -0.2382  0.1705  0.9116
  171SOPE  C31119385   5.665   5.086   7.669 -0.4600  0.4131 -0.5271
  171SOPE  H11X19386   5.750   5.123   7.608 -0.1942 -0.1090 -0.4806
  171SOPE  H11Y19387   5.656   4.977   7.647 -1.6442 -0.0230  1.8058
  171SOPE  C31219388   5.687   5.125   7.817 -0.2208  0.6891 -0.6222
  171SOPE  H12X19389   5.697   5.233   7.839  1.0224  0.2217  1.4252
  171SOPE  H12Y19390   5.786   5.089   7.854 -0.9039 -0.2073  0.4007
  171SOPE  C31319391   5.591   5.063   7.920  0.0147  0.2326  0.4933
  171SOPE  H13X19392   5.585   4.953   7.904  0.8279 -0.1337  2.4033
  171SOPE  H13Y19393   5.490   5.098   7.890  0.6753  0.3757 -1.6829
  171SOPE  C31419394   5.613   5.099   8.067  0.1754 -0.1542  0.0644
  171SOPE  H14X19395   5.683   5.185   8.080  2.5661 -2.1878  1.4124
  171SOPE  H14Y19396   5.665   5.016   8.118  1.8853  1.2195  0.6551
  171SOPE  C31519397   5.481   5.120   8.150 -0.1662 -0.7488  0.4105
  171SOPE  H15X19398   5.428   5.023   8.136  1.0080 -1.2207 -1.0105
  171SOPE  H15Y19399   5.412   5.194   8.104  0.8326  0.2751  0.5175
  171SOPE  C31619400   5.495   5.145   8.293 -0.1952  0.6833  0.2470
  171SOPE  H16X19401   5.558   5.236   8.302  1.7678 -0.5364 -0.4602
  171SOPE  H16Y19402   5.550   5.055   8.329  0.7863  1.0397 -0.3214
  171SOPE  C31719403   5.361   5.155   8.359 -0.1322 -0.2444 -0.1949
  171SOPE  H17X19404   5.285   5.087   8.314  0.9166 -1.0701 -0.7659
  171SOPE  H17Y19405   5.317   5.255   8.340 -2.3530 -1.2106 -0.4682
  171SOPE  C31819406   5.379   5.142   8.508 -0.1055 -0.3278 -0.2426
  171SOPE  H18X19407   5.283   5.139   8.565 -1.1443  1.6123 -1.7936
  171SOPE  H18Y19408   5.432   5.227   8.555 -1.0683 -0.0252  0.3296
  171SOPE  H18Z19409   5.432   5.046   8.527 -0.5106 -0.4087  0.5286
  172SOPE     N19410   4.685   0.485   6.437 -0.3649  0.1470 -0.1792
  172SOPE   HN119411   4.642   0.393   6.416 -1.3313  0.6786 -0.6060
  172SOPE   HN219412   4.637   0.554   6.375 -0.3170 -0.9900 -1.5444
  172SOPE   HN319413   4.782   0.484   6.399 -0.4991 -1.8932 -0.5590
  172SOPE   C1219414   4.681   0.528   6.584  0.2631 -0.6063 -0.0293
  172SOPE  H12A19415   4.728   0.447   6.644 -2.4534 -2.2337  0.0725
  172SOPE  H12B19416   4.575   0.530   6.616  0.2658 -1.2649  0.0290
  172SOPE   C1119417   4.743   0.665   6.607 -0.0154 -0.1668  0.0110
  172SOPE  H11A19418   4.723   0.678   6.715  1.4825  1.3839  0.1444
  172SOPE  H11B19419   4.691   0.749   6.557 -1.8979 -1.0984  0.3153
  172SOPE     P19420   4.975   0.773   6.581 -0.1406  0.1259  0.1794
  172SOPE   O1319421   4.981   0.833   6.443 -0.0156  0.2411 -0.1974
  172SOPE   O1419422   5.102   0.736   6.630 -0.8793 -0.4098 -0.1355
  172SOPE   O1219423   4.879   0.646   6.572 -0.1582 -0.8677 -0.0075
  172SOPE   O1119424   4.892   0.870   6.674  0.0450  0.2551 -0.3597
  172SOPE    C119425   4.943   1.001   6.682 -0.5623 -0.1074  0.2732
  172SOPE    HA19426   4.855   1.060   6.717  1.1418  1.4401  2.1761
  172SOPE    HB19427   4.985   1.038   6.587  0.3223 -0.9068  0.3453
  172SOPE    C219428   5.060   1.019   6.785  0.5564  0.0907  1.1872
  172SOPE    HS19429   5.138   0.950   6.745 -0.5629 -0.3531 -0.3158
  172SOPE   O2119430   5.000   0.983   6.915  0.7578  0.6693  0.2085
  172SOPE   C2119431   5.088   0.937   6.998  0.3869 -0.0485  0.2394
  172SOPE   O2219432   5.206   0.911   6.971  0.6239 -0.8604  0.6107
  172SOPE   C2219433   5.023   0.918   7.133  0.3692  0.0208 -0.5811
  172SOPE   H2R19434   5.079   0.838   7.187  1.2432  0.2640 -1.1049
  172SOPE   H2S19435   4.916   0.893   7.119  0.6485 -1.2997 -0.5277
  172SOPE    C319436   5.111   1.155   6.783 -0.0880 -0.1413  0.4040
  172SOPE    HX19437   5.029   1.229   6.787  1.0300  1.3591 -2.1208
  172SOPE    HY19438   5.148   1.164   6.679  0.7930 -0.3818  0.6897
  172SOPE   O3119439   5.224   1.181   6.875 -1.1052  0.6625 -0.5242
  172SOPE   C3119440   5.353   1.152   6.836 -0.8892  0.5380  0.3701
  172SOPE   O3219441   5.385   1.119   6.722 -0.4912  0.3758  0.1020
  172SOPE   C3219442   5.432   1.147   6.963 -0.1697 -0.1280  0.0022
  172SOPE   H2X19443   5.532   1.101   6.948 -0.9734 -1.8910 -0.1123
  172SOPE   H2Y19444   5.371   1.084   7.030 -0.7302 -0.6966 -1.0157
  172SOPE   C2319445   5.035   1.055   7.201  0.0455  0.2954 -0.2965
  172SOPE   H3R19446   4.993   1.138   7.140 -2.1181 -1.4874 -1.3799
  172SOPE   H3S19447   5.142   1.083   7.209  0.3537 -0.1181 -2.3146
  172SOPE   C2419448   4.967   1.057   7.341  0.0599 -0.4596 -0.0399
  172SOPE   H4R19449   4.937   1.158   7.374 -0.4368 -0.3222 -0.8699
  172SOPE   H4S19450   4.877   0.991   7.335  0.3218 -0.8229 -0.0250
  172SOPE   C2519451   5.066   1.001   7.448 -0.0431 -0.0251 -0.2261
  172SOPE   H5R19452   5.089   0.895   7.426  3.0575  0.0540  2.0420
  172SOPE   H5S19453   5.160   1.059   7.434  0.7258 -1.1504  0.1250
  172SOPE   C2619454   4.998   1.023   7.588 -1.0135 -0.1132  0.1758
  172SOPE   H6R19455   4.998   1.133   7.600 -0.2597  0.1184 -1.6688
  172SOPE   H6S19456   4.890   0.998   7.589 -0.8889 -0.7609 -0.7072
  172SOPE   C2719457   5.057   0.948   7.712  0.2784  0.9762  0.9259
  172SOPE   H7R19458   5.159   0.919   7.679 -0.0198  0.5070  0.3774
  172SOPE   H7S19459   5.075   1.016   7.798  2.6542 -0.2864  1.5162
  172SOPE   C2819460   4.987   0.814   7.736 -0.1716  0.3235 -0.3668
  172SOPE   H8R19461   4.882   0.838   7.763 -0.3332 -0.8544  0.0678
  172SOPE   H8S19462   4.993   0.756   7.642  0.2668 -2.6929  1.4078
  172SOPE   C2919463   5.059   0.734   7.841 -0.0099  0.1844 -0.3778
  172SOPE   H9119464   5.109   0.644   7.804  0.8023  0.6842 -0.5287
  172SOPE  C21019465   5.070   0.768   7.976 -0.4708  0.0736  0.5293
  172SOPE  H10119466   5.138   0.706   8.035  2.6025  0.4408 -2.3444
  172SOPE  C21119467   5.019   0.894   8.046 -0.4248  1.0047 -0.4626
  172SOPE  H11R19468   4.956   0.945   7.971 -0.3284 -0.2110 -1.3828
  172SOPE  H11S19469   5.105   0.961   8.071 -1.0826  2.9641 -3.0818
  172SOPE  C21219470   4.940   0.863   8.176  0.6536  0.0912 -0.3165
  172SOPE  H12R19471   4.876   0.774   8.161  0.6077  0.3973 -2.1074
  172SOPE  H12S19472   4.881   0.950   8.213  1.8546 -0.6154  3.7915
  172SOPE  C21319473   5.020   0.826   8.295 -0.6895  0.6990 -0.2327
  172SOPE  H13R19474   5.097   0.905   8.310  0.9213 -0.8298 -0.1105
  172SOPE  H13S19475   5.084   0.736   8.281  0.2396  1.0569  1.3877
  172SOPE  C21419476   4.941   0.809   8.427  0.5686  0.3253  0.3726
  172SOPE  H14R19477   4.873   0.722   8.420  2.6197 -1.4437  1.2043
  172SOPE  H14S19478   4.881   0.901   8.444 -0.8548 -0.4148 -0.4210
  172SOPE  C21519479   5.032   0.792   8.546  0.3871 -0.1784 -0.0515
  172SOPE  H15R19480   5.096   0.879   8.574 -0.6726  0.2420  1.1874
  172SOPE  H15S19481   5.098   0.705   8.522  0.6713  0.0521 -0.1157
  172SOPE  C21619482   4.964   0.749   8.677 -0.0969 -0.4605 -0.1178
  172SOPE  H16R19483   4.893   0.828   8.709 -0.5190 -1.6623  2.1359
  172SOPE  H16S19484   5.042   0.748   8.757  0.4452 -0.7911 -0.6452
  172SOPE  C21719485   4.898   0.615   8.678  0.3756  0.2529  0.5326
  172SOPE  H17R19486   4.963   0.537   8.633  0.7631  1.2388 -0.6609
  172SOPE  H17S19487   4.811   0.625   8.610 -0.9182 -0.9993  1.9289
  172SOPE  C21819488   4.835   0.566   8.812  0.6653  0.6349  0.0907
  172SOPE  H18R19489   4.800   0.460   8.807  0.3750  0.6839  0.9109
  172SOPE  H18S19490   4.751   0.634   8.838  0.4195  0.0930  0.7424
  172SOPE  H18T19491   4.913   0.570   8.891  0.9094 -3.6414  0.3428
  172SOPE   C3319492   5.446   1.286   7.028  0.5965  0.6209 -0.1132
  172SOPE   H3X19493   5.346   1.329   7.050  0.1351  0.1053 -1.1209
  172SOPE   H3Y19494   5.497   1.362   6.966  1.6900  0.7108  0.8710
  172SOPE   C3419495   5.528   1.274   7.153 -1.1502 -0.4163  0.3227
  172SOPE   H4X19496   5.627   1.251   7.108 -1.3486  0.4752 -0.6263
  172SOPE   H4Y19497   5.495   1.191   7.219  1.0562 -0.2189  1.7978
  172SOPE   C3519498   5.541   1.396   7.246  0.0412 -0.0426  0.8381
  172SOPE   H5X19499   5.589   1.472   7.181  1.3063 -2.5200 -1.3066
  172SOPE   H5Y19500   5.616   1.384   7.328  1.5249  1.5119 -0.2220
  172SOPE   C3619501   5.402   1.447   7.300  0.1507  0.3159 -0.2295
  172SOPE   H6X19502   5.341   1.471   7.210 -1.7730 -1.1048  0.6300
  172SOPE   H6Y19503   5.428   1.548   7.339 -1.0299  0.6657 -0.3014
  172SOPE   C3719504   5.346   1.362   7.404  0.6180  0.1903  0.1089
  172SOPE   H7X19505   5.424   1.331   7.477  0.6336 -0.4856 -0.1931
  172SOPE   H7Y19506   5.319   1.266   7.356  2.4638 -0.9897  1.2924
  172SOPE   C3819507   5.225   1.425   7.485  0.4223  0.8451 -0.3272
  172SOPE   H8X19508   5.129   1.461   7.442  0.2775  1.6149  0.6050
  172SOPE   H8Y19509   5.271   1.514   7.533 -1.1460  2.2571 -1.3480
  172SOPE   C3919510   5.188   1.340   7.611  0.2566  0.0991  0.0796
  172SOPE   H9X19511   5.278   1.342   7.677  0.2867  1.7947  0.0362
  172SOPE   H9Y19512   5.153   1.238   7.584  1.0402 -0.4562  1.0764
  172SOPE  C31019513   5.070   1.403   7.692 -0.2920 -0.3277  0.2419
  172SOPE  H10X19514   4.970   1.397   7.645 -2.1339  1.8580  3.5417
  172SOPE  H10Y19515   5.097   1.508   7.716  1.5411 -0.3288 -1.4972
  172SOPE  C31119516   5.045   1.339   7.830 -0.0466  0.3484 -0.0077
  172SOPE  H11X19517   5.035   1.229   7.815 -1.0496  0.5896 -1.3669
  172SOPE  H11Y19518   4.943   1.363   7.868  0.4388  0.5028  1.2378
  172SOPE  C31219519   5.148   1.357   7.946  0.3719 -0.1457  1.1910
  172SOPE  H12X19520   5.104   1.448   7.992 -2.3139  0.4744 -2.2288
  172SOPE  H12Y19521   5.247   1.378   7.899 -0.1129 -1.6263 -0.5822
  172SOPE  C31319522   5.160   1.242   8.045 -0.1060  0.1116 -0.1076
  172SOPE  H13X19523   5.209   1.150   8.006 -2.1139 -1.5497  1.0427
  172SOPE  H13Y19524   5.065   1.201   8.087  0.7839 -2.2115 -0.2044
  172SOPE  C31419525   5.229   1.295   8.167  0.5769 -0.0005 -0.3359
  172SOPE  H14X19526   5.168   1.386   8.186 -3.8101 -2.6071 -0.7883
  172SOPE  H14Y19527   5.326   1.323   8.120  1.9663 -1.9462  1.2310
  172SOPE  C31519528   5.250   1.201   8.287  0.0683  0.1694  0.1252
  172SOPE  H15X19529   5.319   1.123   8.247  0.8188  0.0786  1.5430
  172SOPE  H15Y19530   5.153   1.159   8.322  0.6281  0.3250  1.9956
  172SOPE  C31619531   5.329   1.276   8.396 -0.5348 -0.4036  0.2587
  172SOPE  H16X19532   5.269   1.351   8.451  0.8863 -0.1273  1.4703
  172SOPE  H16Y19533   5.413   1.324   8.343 -1.7614  0.5393 -0.9030
  172SOPE  C31719534   5.409   1.171   8.482  0.0922 -0.0042  0.3052
  172SOPE  H17X19535   5.465   1.102   8.415 -0.0986 -0.0499  0.1908
  172SOPE  H17Y19536   5.328   1.106   8.523 -0.8838  1.7320  1.2337
  172SOPE  C31819537   5.501   1.237   8.583  1.5275  0.0815 -0.1175
  172SOPE  H18X19538   5.573   1.157   8.611 -1.2181 -1.6329  2.5831
  172SOPE  H18Y19539   5.444   1.271   8.672 -0.7275 -3.0207 -0.2361
  172SOPE  H18Z19540   5.541   1.322   8.523 -0.6610  1.3402  0.0916
  173SAPI   C1219541   3.699   4.389  10.839  1.0299 -0.4074  0.1764
  173SAPI    H219542   3.788   4.410  10.777  0.2411  1.2547 -0.4776
  173SAPI    O219543   3.625   4.282  10.787  0.2411 -0.2968  0.6386
  173SAPI   HO219544   3.626   4.293  10.691 -1.2944  1.1434  0.7450
  173SAPI   C1319545   3.753   4.366  10.984  0.6126 -0.0778 -0.4988
  173SAPI    H319546   3.811   4.454  11.018  1.3284  0.1805 -2.2955
  173SAPI    O319547   3.842   4.259  10.987 -0.9252  0.6974  0.0513
  173SAPI   HO319548   3.921   4.286  10.938 -1.8137  1.0929 -1.2198
  173SAPI   C1419549   3.639   4.340  11.081 -0.2692 -0.0319  0.0507
  173SAPI    H419550   3.587   4.249  11.042 -1.2764 -0.3212  1.9860
  173SAPI    O419551   3.672   4.311  11.212 -0.3623  0.1458 -0.0430
  173SAPI   HO419552   3.700   4.219  11.218  1.9654  0.8635  1.3920
  173SAPI   C1519553   3.541   4.463  11.078  0.3167 -0.0537 -0.2524
  173SAPI    H519554   3.595   4.553  11.115 -0.6133  0.3424  0.1824
  173SAPI    O519555   3.437   4.440  11.176  0.0629 -0.5266  0.2824
  173SAPI   HO519556   3.491   4.428  11.255 -1.2680 -0.6553  1.1984
  173SAPI   C1619557   3.488   4.489  10.932 -0.0886  0.1820  0.0092
  173SAPI    H619558   3.430   4.399  10.902  1.7815 -1.2333  0.4286
  173SAPI    O619559   3.403   4.596  10.934 -0.3895 -0.9035  0.1938
  173SAPI   HO619560   3.454   4.677  10.923  0.2055 -1.4684 -1.5939
  173SAPI   C1119561   3.608   4.517  10.841  0.5451  0.0536  0.4203
  173SAPI    H119562   3.670   4.597  10.887  1.1109 -0.4497  0.5520
  173SAPI     P19563   3.611   4.682  10.624  0.1954  0.7635  0.0225
  173SAPI   O1319564   3.733   4.735  10.693  0.6143  0.1783  0.0713
  173SAPI   O1419565   3.491   4.763  10.613 -0.4239 -0.0454 -1.0894
  173SAPI   O1219566   3.569   4.541  10.705 -0.5873 -0.4833  0.3782
  173SAPI   O1119567   3.656   4.631  10.477  0.4525 -0.0926 -0.3164
  173SAPI    C119568   3.780   4.570  10.456  0.7584  0.2809 -0.6918
  173SAPI    HA19569   3.859   4.622  10.514  0.4451  0.4564 -0.4203
  173SAPI    HB19570   3.778   4.466  10.494  2.0261  0.9676  1.4092
  173SAPI    C219571   3.811   4.562  10.307  0.6204  0.4519  0.1883
  173SAPI    HS19572   3.897   4.493  10.289 -1.0517 -1.5626 -0.4465
  173SAPI   O2119573   3.837   4.694  10.259  0.3545  0.4349  0.0555
  173SAPI   C2119574   3.920   4.709  10.162 -0.3185  0.1309 -0.1945
  173SAPI   O2219575   3.992   4.623  10.116 -0.0410  0.4490  0.2442
  173SAPI   C2219576   3.942   4.853  10.125 -0.3945 -0.7539  0.6611
  173SAPI   H2R19577   3.849   4.905  10.095  1.0174  0.5782 -1.7409
  173SAPI   H2S19578   3.978   4.909  10.215  2.1249  0.3169 -0.9002
  173SAPI    C319579   3.699   4.494  10.212  0.2957  0.2899 -0.3856
  173SAPI    HX19580   3.612   4.561  10.225  1.4088  1.9477 -1.0829
  173SAPI    HY19581   3.669   4.398  10.259 -1.7455  0.2715 -1.6207
  173SAPI   O3119582   3.728   4.485  10.067  0.0888  0.1289 -0.1973
  173SAPI   C3119583   3.813   4.386  10.029  0.5131  0.5148  0.0548
  173SAPI   O3219584   3.870   4.311  10.103  1.1984  0.0109 -0.1038
  173SAPI   C3219585   3.816   4.368   9.884  0.4038 -0.5679  0.4002
  173SAPI   H2X19586   3.733   4.297   9.862 -0.1059 -0.1241  0.8554
  173SAPI   H2Y19587   3.911   4.316   9.861  1.3031  0.6607  1.1765
  173SAPI   C2319588   4.053   4.859  10.014  0.8238  0.5627  0.5077
  173SAPI   H3R19589   4.038   4.777   9.940 -0.0233  0.5133  0.7188
  173SAPI   H3S19590   4.153   4.843  10.059  0.5418  0.9852  1.3052
  173SAPI   C2419591   4.042   4.994   9.935  0.7627  0.1906  0.1744
  173SAPI   H4R19592   4.042   5.080  10.005  0.3550  0.1672  0.2068
  173SAPI   H4S19593   3.947   4.991   9.877  2.0039  0.7374 -2.0080
  173SAPI   C2519594   4.138   5.020   9.816 -0.4039 -0.4310 -0.1903
  173SAPI   H5R19595   4.234   5.070   9.839 -0.0835 -0.1381 -1.9689
  173SAPI   C2619596   4.108   5.007   9.686 -0.1310  0.0235 -0.5062
  173SAPI   H6R19597   4.194   5.019   9.619 -0.0048 -0.9044 -0.5142
  173SAPI   C2719598   3.978   4.962   9.622 -0.3500  0.2672 -0.3904
  173SAPI   H7R19599   3.917   5.055   9.620  1.8711  1.8159 -0.1218
  173SAPI   H7S19600   3.925   4.897   9.694 -2.3398  0.2661 -1.7580
  173SAPI   C2819601   4.002   4.897   9.492  0.1570 -0.1167 -0.0075
  173SAPI   H8R19602   4.026   4.791   9.507  0.0627  0.1796  2.6971
  173SAPI   C2919603   3.990   4.954   9.371 -0.2602  0.4181 -0.2109
  173SAPI   H9R19604   4.008   4.888   9.285  1.7632 -0.4795  0.8145
  173SAPI  C21019605   3.942   5.096   9.338 -0.5149 -0.7186  0.2491
  173SAPI  H10R19606   4.032   5.161   9.333  0.4524 -2.0702 -0.7847
  173SAPI  H10S19607   3.870   5.120   9.419 -0.9432 -0.0944 -0.3087
  173SAPI  C21119608   3.873   5.106   9.205  0.0938  0.5633 -0.5974
  173SAPI  H11R19609   3.764   5.121   9.202  0.0882  0.5928 -4.0337
  173SAPI  C21219610   3.939   5.084   9.088  0.3687  0.3216 -0.1948
  173SAPI  H12R19611   3.890   5.086   8.989 -1.9844 -1.7485  0.8241
  173SAPI  C21319612   4.089   5.057   9.072  0.4235  0.1474 -0.2897
  173SAPI  H13R19613   4.149   5.090   9.160 -0.0221  1.2637 -0.3889
  173SAPI  H13S19614   4.131   5.121   8.992  0.0970  0.1375 -0.4719
  173SAPI  C21419615   4.116   4.909   9.042 -0.0490  0.0549  0.2003
  173SAPI  H14R19616   4.145   4.847   9.128  0.6485 -0.0406 -0.0931
  173SAPI  C21519617   4.122   4.851   8.918  0.3736  0.4657  0.1064
  173SAPI  H15R19618   4.146   4.744   8.907  0.2478 -0.0929  3.8453
  173SAPI  C21619619   4.097   4.929   8.789  0.0532  0.2587  0.6008
  173SAPI  H16R19620   4.188   4.915   8.727  0.7242 -3.1847  2.0950
  173SAPI  H16S19621   4.080   5.037   8.807  2.6635  0.6827  0.9247
  173SAPI  C21719622   3.973   4.873   8.705 -0.0278  0.2916 -0.1440
  173SAPI  H17R19623   3.924   4.953   8.645 -2.8551 -1.8356 -0.8702
  173SAPI  H17S19624   3.905   4.819   8.774  0.7839 -1.1753 -0.4345
  173SAPI  C21819625   4.005   4.766   8.597 -0.2498 -1.1564 -0.8952
  173SAPI  H18R19626   4.030   4.674   8.654  2.5230  0.4125  0.6644
  173SAPI  H18S19627   4.085   4.810   8.535 -1.9465  0.0509 -2.3281
  173SAPI  C21919628   3.884   4.741   8.504 -0.1585 -0.1395 -0.4079
  173SAPI  H19R19629   3.801   4.725   8.575  0.9165  0.4005  1.0368
  173SAPI  H19S19630   3.892   4.647   8.446 -0.6373  0.8898 -2.2593
  173SAPI  C22019631   3.856   4.862   8.410 -0.4426 -0.6534 -0.0210
  173SAPI  H20R19632   3.762   4.841   8.355 -0.2358  0.5601 -0.8812
  173SAPI  H20S19633   3.928   4.889   8.330 -0.9541  0.9763  0.0333
  173SAPI  H20T19634   3.827   4.951   8.471  2.2613  0.6467 -0.4922
  173SAPI   C3319635   3.806   4.488   9.785 -0.2877 -0.1692 -0.0806
  173SAPI   H3X19636   3.891   4.559   9.789 -2.9751  3.2966 -0.0979
  173SAPI   H3Y19637   3.713   4.543   9.811 -0.2680  1.6073 -3.3641
  173SAPI   C3419638   3.777   4.442   9.640  0.0366 -0.0552 -0.3648
  173SAPI   H4X19639   3.674   4.403   9.623  0.1401  0.2685 -1.9742
  173SAPI   H4Y19640   3.841   4.357   9.611  0.1672  0.2761 -1.0942
  173SAPI   C3519641   3.795   4.560   9.542 -0.2907  0.2476  0.4691
  173SAPI   H5X19642   3.894   4.611   9.539 -1.0322  1.9452  2.2353
  173SAPI   H5Y19643   3.739   4.651   9.575  0.2926  1.3479 -1.3982
  173SAPI   C3619644   3.752   4.525   9.398  0.6062  0.2737  0.0775
  173SAPI   H6X19645   3.663   4.460   9.406 -0.4707  1.6185 -0.6478
  173SAPI   H6Y19646   3.835   4.468   9.351  1.1457  1.6007 -0.6437
  173SAPI   C3719647   3.717   4.645   9.311 -0.8923  0.1801  0.0347
  173SAPI   H7X19648   3.803   4.714   9.297 -0.2239 -0.6488  0.0490
  173SAPI   H7Y19649   3.636   4.703   9.362 -1.3049 -0.4077  0.0617
  173SAPI   C3819650   3.674   4.610   9.159  0.1918  0.5257 -0.2842
  173SAPI   H8X19651   3.593   4.535   9.163  0.4569  0.2859  1.4358
  173SAPI   H8Y19652   3.759   4.570   9.100 -0.1055  1.1471 -1.1506
  173SAPI   C3919653   3.634   4.730   9.074 -0.4822  0.0678  0.0174
  173SAPI   H9X19654   3.722   4.796   9.056 -1.6211  1.7985  0.5847
  173SAPI   H9Y19655   3.557   4.790   9.126  0.1663  0.2366  0.7976
  173SAPI  C31019656   3.569   4.689   8.941  0.0487  0.3293 -0.0136
  173SAPI  H10X19657   3.542   4.784   8.890  4.4824  0.0594 -3.4018
  173SAPI  H10Y19658   3.477   4.628   8.950  1.4800 -1.9263  0.0188
  173SAPI  C31119659   3.655   4.621   8.830  0.0306 -0.1711 -0.5667
  173SAPI  H11X19660   3.675   4.516   8.862 -2.3334 -0.5729 -0.1856
  173SAPI  H11Y19661   3.748   4.681   8.820  0.1847 -0.5391 -1.3450
  173SAPI  C31219662   3.582   4.616   8.693 -0.5309 -0.0645  0.4624
  173SAPI  H12X19663   3.658   4.571   8.624 -1.2995 -1.9952  0.8057
  173SAPI  H12Y19664   3.556   4.720   8.664  2.1749  0.7689  0.7226
  173SAPI  C31319665   3.464   4.520   8.694 -0.1568  0.5307 -0.0956
  173SAPI  H13X19666   3.388   4.573   8.755  0.0802 -2.5420  3.2404
  173SAPI  H13Y19667   3.490   4.422   8.739  3.3332  1.3976  0.0042
  173SAPI  C31419668   3.404   4.490   8.563 -0.3594  0.0662  0.6593
  173SAPI  H14X19669   3.476   4.456   8.485  0.5548  2.5820  0.3310
  173SAPI  H14Y19670   3.365   4.591   8.539  0.9189  1.7251  4.7122
  173SAPI  C31519671   3.281   4.395   8.560 -0.3294  0.0082 -0.4757
  173SAPI  H15X19672   3.189   4.437   8.605 -1.6209 -1.7844 -1.3658
  173SAPI  H15Y19673   3.314   4.310   8.624 -0.8455  0.6899  0.7391
  173SAPI  C31619674   3.239   4.348   8.418  0.1324  0.1821  0.3994
  173SAPI  H16X19675   3.328   4.302   8.369 -1.3003 -1.7497 -0.4778
  173SAPI  H16Y19676   3.206   4.442   8.369  3.5678  0.6345 -1.3550
  173SAPI  C31719677   3.128   4.250   8.420 -0.4232  0.4713 -0.2746
  173SAPI  H17X19678   3.044   4.312   8.457 -0.8591  0.7900 -1.7672
  173SAPI  H17Y19679   3.171   4.175   8.490 -1.5240 -0.4543 -0.5693
  173SAPI  C31819680   3.092   4.172   8.293 -0.0767 -0.3384  0.2630
  173SAPI  H18X19681   3.062   4.240   8.211  2.1196 -0.9697 -1.1688
  173SAPI  H18Y19682   3.011   4.099   8.314 -0.0941 -0.6261 -0.7643
  173SAPI  H18Z19683   3.179   4.114   8.257  0.8296  1.5175 -0.6694
  174SAPI   C1219684   2.990   6.084  10.814 -0.3941  1.3587  0.2106
  174SAPI    H219685   2.920   6.138  10.880 -1.3580 -1.4559  1.6566
  174SAPI    O219686   3.099   6.046  10.900 -0.3353 -0.0888  0.1863
  174SAPI   HO219687   3.145   6.123  10.933  0.3806 -1.1952  1.8988
  174SAPI   C1319688   2.921   5.962  10.765  0.1735 -0.6011  0.2464
  174SAPI    H319689   2.831   6.000  10.713 -1.1135 -0.2781  2.5835
  174SAPI    O319690   2.866   5.877  10.872  0.1965 -1.1724  0.1218
  174SAPI   HO319691   2.931   5.871  10.943  0.9942  1.6087 -0.2500
  174SAPI   C1419692   3.010   5.886  10.664  0.2025  0.5059 -0.4702
  174SAPI    H419693   3.093   5.844  10.725  1.0709  0.9389 -1.3250
  174SAPI    O419694   2.936   5.769  10.619 -0.0984 -0.6285 -0.1865
  174SAPI   HO419695   2.994   5.692  10.611  0.2718 -0.3092 -0.6154
  174SAPI   C1519696   3.071   5.963  10.552  0.2984 -0.5382  0.9618
  174SAPI    H519697   2.988   6.004  10.491  0.6079 -0.2435  0.7408
  174SAPI    O519698   3.155   5.879  10.475  0.5274 -0.3384 -0.3730
  174SAPI   HO519699   3.170   5.923  10.391 -0.0761 -0.7658 -0.7086
  174SAPI   C1619700   3.145   6.084  10.614 -0.4673 -0.5597 -0.0379
  174SAPI    H619701   3.224   6.043  10.681  0.3961 -1.4088 -1.5093
  174SAPI    O619702   3.215   6.161  10.512 -0.5809 -0.4861  0.2557
  174SAPI   HO619703   3.261   6.232  10.557  1.6666 -0.8037 -1.3475
  174SAPI   C1119704   3.039   6.164  10.689 -0.8671 -0.2813  0.1652
  174SAPI    H119705   2.967   6.190  10.609 -0.4576 -0.1089 -0.1526
  174SAPI     P19706   2.973   6.409  10.769  0.4607  0.0287  0.2436
  174SAPI   O1319707   3.018   6.498  10.880 -0.2935  0.5174 -0.5095
  174SAPI   O1419708   2.837   6.353  10.791 -0.3618  0.1097 -0.3984
  174SAPI   O1219709   3.093   6.288  10.743  0.5119 -0.1041 -0.4769
  174SAPI   O1119710   2.973   6.486  10.630 -0.3331 -0.6536 -0.1535
  174SAPI    C119711   3.096   6.545  10.574  0.2929 -0.1176  0.0608
  174SAPI    HA19712   3.137   6.616  10.649 -1.3513  0.1568  0.7511
  174SAPI    HB19713   3.177   6.471  10.559  0.0493  0.0390 -2.4939
  174SAPI    C219714   3.075   6.617  10.441  0.0603 -0.8175 -0.3378
  174SAPI    HS19715   3.171   6.665  10.416 -0.3824  0.1308 -0.2576
  174SAPI   O2119716   2.965   6.710  10.445 -0.0484  0.2889 -0.1773
  174SAPI   C2119717   2.981   6.809  10.353 -0.2759  0.0426  0.3444
  174SAPI   O2219718   3.085   6.828  10.288  0.1536  0.3422  0.1091
  174SAPI   C2219719   2.839   6.875  10.329  0.0728  0.2335 -0.3602
  174SAPI   H2R19720   2.793   6.840  10.234  1.3293  2.4154 -1.8809
  174SAPI   H2S19721   2.775   6.831  10.408 -0.9312 -0.0652 -1.3228
  174SAPI    C319722   3.040   6.502  10.339 -0.0322 -0.4842  0.3172
  174SAPI    HX19723   2.939   6.473  10.376 -0.1526  1.4748  1.6751
  174SAPI    HY19724   3.102   6.411  10.356 -0.9315 -0.8743  1.6801
  174SAPI   O3119725   3.050   6.546  10.201  0.1874  0.3352 -0.0734
  174SAPI   C3119726   3.173   6.546  10.152  0.0324  0.4862  1.1649
  174SAPI   O3219727   3.272   6.503  10.211  0.7370  0.9687  1.0258
  174SAPI   C3219728   3.167   6.606  10.009 -0.1487 -0.1303  0.1822
  174SAPI   H2X19729   3.185   6.716  10.018 -2.4144  0.4354 -1.2941
  174SAPI   H2Y19730   3.062   6.601   9.974 -0.2263 -3.0921  0.6247
  174SAPI   C2319731   2.839   7.030  10.355  0.5866  0.4164  0.1570
  174SAPI   H3R19732   2.905   7.053  10.442  1.0331  1.2359 -0.3811
  174SAPI   H3S19733   2.732   7.051  10.371 -0.0113 -0.8936 -1.7212
  174SAPI   C2419734   2.894   7.104  10.232  0.3427  0.0914 -0.0278
  174SAPI   H4R19735   2.999   7.072  10.211  0.9799  2.7170 -1.2540
  174SAPI   H4S19736   2.913   7.212  10.247 -1.4344  0.7130 -1.7976
  174SAPI   C2519737   2.818   7.110  10.106  0.1569  0.3398 -0.1173
  174SAPI   H5R19738   2.734   7.180  10.104  0.8411  1.1600 -0.4945
  174SAPI   C2619739   2.835   7.033   9.998  0.4299  0.7708 -0.2912
  174SAPI   H6R19740   2.757   7.042   9.921  0.3858 -1.1678 -0.5165
  174SAPI   C2719741   2.936   6.926   9.976 -0.3947  0.3331  0.0459
  174SAPI   H7R19742   2.980   6.882  10.068 -0.4076 -0.2314 -0.2158
  174SAPI   H7S19743   3.025   6.966   9.922  0.6999  0.0039  1.5526
  174SAPI   C2819744   2.858   6.821   9.899  0.5768 -0.4631  0.4440
  174SAPI   H8R19745   2.793   6.760   9.964  0.6828 -0.4463  0.5669
  174SAPI   C2919746   2.855   6.785   9.766  0.1552 -0.6409  0.0121
  174SAPI   H9R19747   2.775   6.715   9.735 -1.5520  0.6731  1.2753
  174SAPI  C21019748   2.934   6.834   9.647 -0.0004  0.0333  0.4778
  174SAPI  H10R19749   2.930   6.762   9.563 -0.4532  1.6780 -0.9844
  174SAPI  H10S19750   3.039   6.853   9.679  0.0156  1.6598 -0.3958
  174SAPI  C21119751   2.887   6.963   9.592 -0.3364  0.0393 -0.2482
  174SAPI  H11R19752   2.870   7.046   9.662  0.0023  0.5127 -0.7160
  174SAPI  C21219753   2.865   6.998   9.464  0.2767 -0.8585 -0.5043
  174SAPI  H12R19754   2.810   7.091   9.445 -0.7270 -1.0241  1.3398
  174SAPI  C21319755   2.883   6.913   9.345 -0.4220  0.1740  1.0142
  174SAPI  H13R19756   2.800   6.916   9.270  1.6053  0.6831 -1.3644
  174SAPI  H13S19757   2.887   6.805   9.371  2.9171 -0.1199 -0.1520
  174SAPI  C21419758   3.011   6.922   9.270  0.3243  0.0594  0.1954
  174SAPI  H14R19759   3.094   6.958   9.333  0.9218 -1.1959  0.1743
  174SAPI  C21519760   3.033   6.888   9.141  0.0065  0.4055  0.8280
  174SAPI  H15R19761   3.139   6.882   9.110 -0.5817 -1.2631 -1.0541
  174SAPI  C21619762   2.929   6.835   9.041 -0.4201  0.1105 -0.4499
  174SAPI  H16R19763   2.836   6.795   9.087 -1.6265 -1.2187 -3.7524
  174SAPI  H16S19764   2.977   6.758   8.976 -0.1180 -0.5927  0.5822
  174SAPI  C21719765   2.883   6.933   8.933 -0.5324 -0.9470 -0.2488
  174SAPI  H17R19766   2.970   6.981   8.884 -0.6519  1.6079  1.8085
  174SAPI  H17S19767   2.828   7.016   8.984  0.3979 -0.2323 -0.3835
  174SAPI  C21819768   2.798   6.860   8.825 -0.5248 -0.1911 -0.4764
  174SAPI  H18R19769   2.715   6.821   8.887 -0.6529  2.1597  0.9395
  174SAPI  H18S19770   2.865   6.779   8.788 -0.0668 -0.1523  0.2590
  174SAPI  C21919771   2.743   6.944   8.714 -0.1734  0.9959  0.4544
  174SAPI  H19R19772   2.821   6.987   8.647 -0.2163  0.1959 -0.1227
  174SAPI  H19S19773   2.693   7.025   8.770 -2.5824 -0.0649 -0.0439
  174SAPI  C22019774   2.632   6.867   8.637 -0.2465  0.4374  0.4607
  174SAPI  H20R19775   2.673   6.764   8.626  1.6406  0.8455  2.7714
  174SAPI  H20S19776   2.608   6.921   8.544 -1.3260  0.1232  0.5381
  174SAPI  H20T19777   2.550   6.855   8.712  0.1737 -1.3969  0.6930
  174SAPI   C3319778   3.267   6.539   9.905 -0.4318  0.3743  0.0441
  174SAPI   H3X19779   3.232   6.441   9.864  1.2921  0.6805 -2.3934
  174SAPI   H3Y19780   3.362   6.513   9.955  0.8657  1.3755 -1.7633
  174SAPI   C3419781   3.282   6.622   9.780 -0.3782 -0.3562  0.7304
  174SAPI   H4X19782   3.310   6.725   9.809  0.3183 -0.3131 -0.0561
  174SAPI   H4Y19783   3.184   6.622   9.727 -0.4595  1.4037  0.8343
  174SAPI   C3519784   3.384   6.562   9.677 -0.2250  0.6985 -0.0491
  174SAPI   H5X19785   3.374   6.454   9.702 -3.7127  0.7343 -0.7185
  174SAPI   H5Y19786   3.483   6.598   9.711 -0.1178  1.3528 -1.0310
  174SAPI   C3619787   3.349   6.605   9.535 -0.1501  0.0585  0.0117
  174SAPI   H6X19788   3.331   6.714   9.523 -0.2290 -0.0524 -0.9291
  174SAPI   H6Y19789   3.253   6.562   9.497  0.2322  0.8379 -1.9713
  174SAPI   C3719790   3.466   6.568   9.444 -0.5961  0.3477 -0.0610
  174SAPI   H7X19791   3.473   6.458   9.444  0.6131  0.4022 -1.3997
  174SAPI   H7Y19792   3.563   6.596   9.491 -0.2822 -1.8783  0.7396
  174SAPI   C3819793   3.446   6.613   9.293 -0.0611  0.5854 -0.2044
  174SAPI   H8X19794   3.530   6.570   9.234  1.9025  0.1468  2.7118
  174SAPI   H8Y19795   3.458   6.724   9.296  0.2837  0.5328  0.5924
  174SAPI   C3919796   3.312   6.561   9.244  0.1194  0.6409 -0.0667
  174SAPI   H9X19797   3.225   6.621   9.278 -0.2464 -0.2907  0.6707
  174SAPI   H9Y19798   3.298   6.459   9.286 -0.3036  0.8789  0.3754
  174SAPI  C31019799   3.311   6.549   9.091 -0.1797  0.0860  0.1961
  174SAPI  H10X19800   3.400   6.490   9.058  0.3693  1.5852 -1.1258
  174SAPI  H10Y19801   3.307   6.644   9.034 -2.4935 -0.0479  0.0555
  174SAPI  C31119802   3.185   6.487   9.051  0.4084  0.0070  0.4420
  174SAPI  H11X19803   3.106   6.559   9.083  2.1861  2.5582 -0.5711
  174SAPI  H11Y19804   3.174   6.392   9.108  2.5137 -1.0103 -0.7263
  174SAPI  C31219805   3.165   6.467   8.894  0.5077  0.5714 -0.3676
  174SAPI  H12X19806   3.265   6.438   8.856  0.4479 -1.1787  0.6986
  174SAPI  H12Y19807   3.139   6.564   8.847 -0.9137  0.2327 -0.3212
  174SAPI  C31319808   3.055   6.365   8.877  0.4487  0.5371 -0.4195
  174SAPI  H13X19809   2.968   6.405   8.934  2.2453  2.5144  1.0900
  174SAPI  H13Y19810   3.088   6.267   8.916 -1.9413  0.2091  1.0180
  174SAPI  C31419811   3.007   6.357   8.731  0.3588  0.1766  0.2626
  174SAPI  H14X19812   2.911   6.301   8.733  1.7227 -2.4312 -1.3107
  174SAPI  H14Y19813   3.070   6.288   8.671 -0.2074  0.0145 -0.1605
  174SAPI  C31519814   2.995   6.488   8.653  0.2281  0.0995  0.2962
  174SAPI  H15X19815   3.095   6.521   8.619  1.2035 -3.5781 -0.9150
  174SAPI  H15Y19816   2.958   6.569   8.719  0.6072 -0.7600  1.5922
  174SAPI  C31619817   2.914   6.469   8.520  0.0142  0.2024  0.5014
  174SAPI  H16X19818   2.957   6.376   8.477  0.1057  0.1038  0.8030
  174SAPI  H16Y19819   2.930   6.557   8.454 -1.3577 -0.0036 -0.1274
  174SAPI  C31719820   2.761   6.453   8.543 -0.3860 -0.7379  0.2556
  174SAPI  H17X19821   2.728   6.547   8.592  1.7867 -2.2435  5.1651
  174SAPI  H17Y19822   2.747   6.371   8.616  0.9530 -1.0463  0.1825
  174SAPI  C31819823   2.688   6.405   8.422 -0.3175 -0.0705 -0.5127
  174SAPI  H18X19824   2.723   6.467   8.336 -1.1711  1.9663  0.5194
  174SAPI  H18Y19825   2.579   6.405   8.442 -0.0116  1.3799  1.3516
  174SAPI  H18Z19826   2.731   6.303   8.411 -1.6899 -0.6239 -0.9747
  175SAPI   C1219827   5.776   4.747   6.474  0.2207 -0.6747  0.1639
  175SAPI    H219828   5.838   4.725   6.563 -0.5883  0.2922  1.0023
  175SAPI    O219829   5.660   4.668   6.479  0.0004  0.4681 -0.2641
  175SAPI   HO219830   5.684   4.584   6.438  1.8213  0.4503  0.6889
  175SAPI   C1319831   5.744   4.901   6.486 -0.0641  0.6931  1.1648
  175SAPI    H319832   5.843   4.951   6.494  1.6941 -2.6366  2.1625
  175SAPI    O319833   5.685   4.928   6.613  0.1751  0.1874  0.3728
  175SAPI   HO319834   5.641   4.844   6.629 -0.7857  0.5786 -0.1226
  175SAPI   C1419835   5.667   4.955   6.371 -0.3345  0.0328  0.9535
  175SAPI    H419836   5.574   4.897   6.356 -1.0202  1.6342 -1.7263
  175SAPI    O419837   5.633   5.092   6.372  0.8934  0.4953  0.0523
  175SAPI   HO419838   5.667   5.122   6.457 -0.1343  0.1555  0.5912
  175SAPI   C1519839   5.735   4.923   6.236 -0.7328  0.1882 -0.3974
  175SAPI    H519840   5.832   4.977   6.233 -1.3554  1.3490 -0.3332
  175SAPI    O519841   5.644   4.963   6.132 -0.1841 -0.8021 -0.0673
  175SAPI   HO519842   5.587   5.032   6.166 -2.3335 -2.0087 -1.0586
  175SAPI   C1619843   5.755   4.769   6.228 -0.2137  0.4466 -0.0679
  175SAPI    H619844   5.656   4.721   6.237 -0.8582  1.7124 -0.2349
  175SAPI    O619845   5.814   4.739   6.102  0.1860 -0.6962  0.3197
  175SAPI   HO619846   5.888   4.681   6.119  0.7328 -0.4125 -1.0303
  175SAPI   C1119847   5.846   4.719   6.341  0.6760 -1.1621 -0.4103
  175SAPI    H119848   5.935   4.786   6.340  1.1537 -1.7899 -0.3582
  175SAPI     P19849   6.041   4.544   6.288 -0.4511  0.2225  0.0939
  175SAPI   O1319850   6.091   4.621   6.167 -0.5823  0.1312 -0.7964
  175SAPI   O1419851   6.049   4.399   6.261 -0.3738 -0.0769 -0.2342
  175SAPI   O1219852   5.884   4.584   6.328  0.2185 -0.1173  0.0359
  175SAPI   O1119853   6.125   4.575   6.419  0.2198  0.0930  0.1034
  175SAPI    C119854   6.248   4.647   6.401  0.4927 -0.4870  0.0439
  175SAPI    HA19855   6.330   4.578   6.374  1.3397  1.0448 -1.4356
  175SAPI    HB19856   6.242   4.727   6.325  0.7974 -0.5318 -0.0252
  175SAPI    C219857   6.271   4.695   6.541 -0.0321  0.4998 -0.2487
  175SAPI    HS19858   6.352   4.771   6.536  2.0549 -1.5990 -0.2115
  175SAPI   O2119859   6.313   4.576   6.618  0.0813 -0.5950 -0.5038
  175SAPI   C2119860   6.395   4.604   6.724 -0.4568 -0.1562 -0.3541
  175SAPI   O2219861   6.458   4.706   6.737 -0.4451 -0.3392  0.8597
  175SAPI   C2219862   6.386   4.492   6.823 -0.0335 -0.2383 -0.4192
  175SAPI   H2R19863   6.312   4.421   6.782  0.5336  0.0338 -1.9925
  175SAPI   H2S19864   6.482   4.437   6.838  0.8120  1.8963  3.2165
  175SAPI    C319865   6.145   4.760   6.601  0.0578 -0.4772 -0.4037
  175SAPI    HX19866   6.063   4.685   6.602 -0.6764  0.2981  0.7557
  175SAPI    HY19867   6.096   4.843   6.544 -0.0761 -1.4567 -1.7528
  175SAPI   O3119868   6.165   4.805   6.737  0.6087  0.4735  0.5413
  175SAPI   C3119869   6.183   4.942   6.749  0.0865  0.0473 -0.3060
  175SAPI   O3219870   6.170   5.018   6.658  0.6240  0.0846  0.6577
  175SAPI   C3219871   6.219   4.984   6.892 -0.7287 -0.0416 -0.2262
  175SAPI   H2X19872   6.209   4.896   6.958  2.4971 -0.3599  0.0206
  175SAPI   H2Y19873   6.145   5.056   6.932 -0.8720 -0.6582  0.6492
  175SAPI   C2319874   6.322   4.539   6.958 -0.1595 -0.7900 -0.1331
  175SAPI   H3R19875   6.235   4.605   6.936 -0.4465 -0.7724  0.9769
  175SAPI   H3S19876   6.398   4.601   7.010  0.1350 -1.8255  0.6946
  175SAPI   C2419877   6.298   4.427   7.060  1.0739  0.4441  1.0705
  175SAPI   H4R19878   6.275   4.464   7.162  0.8854  0.8998  0.8649
  175SAPI   H4S19879   6.390   4.365   7.067  0.2895 -1.0055 -0.6831
  175SAPI   C2519880   6.169   4.350   7.030 -0.7352  0.0430  0.8561
  175SAPI   H5R19881   6.115   4.388   6.942  0.7009  1.7873  0.6695
  175SAPI   C2619882   6.113   4.257   7.109  1.2057 -0.3259  0.2942
  175SAPI   H6R19883   6.014   4.214   7.088  0.8940  0.3711  0.3145
  175SAPI   C2719884   6.159   4.211   7.246 -0.5179 -0.2204 -0.9445
  175SAPI   H7R19885   6.268   4.192   7.241 -0.6971 -1.5348 -0.3822
  175SAPI   H7S19886   6.120   4.108   7.259 -0.9685  0.1178  0.5592
  175SAPI   C2819887   6.131   4.305   7.360 -0.2436 -0.0565 -0.1916
  175SAPI   H8R19888   6.117   4.409   7.327  0.5585  0.4380  0.9743
  175SAPI   C2919889   6.123   4.275   7.488 -0.0171  0.0098 -0.5303
  175SAPI   H9R19890   6.083   4.354   7.553 -4.5906 -1.9811 -0.5107
  175SAPI  C21019891   6.143   4.132   7.537 -0.3992  0.2142 -0.8173
  175SAPI  H10R19892   6.231   4.073   7.503 -0.3146 -1.0526  1.4032
  175SAPI  H10S19893   6.060   4.067   7.503  0.0122 -0.4521 -0.5551
  175SAPI  C21119894   6.150   4.124   7.688 -0.2037 -0.7881 -0.0553
  175SAPI  H11R19895   6.227   4.197   7.718 -1.3845  2.0217 -3.1861
  175SAPI  C21219896   6.087   4.040   7.773  0.4117 -0.6467 -0.3340
  175SAPI  H12R19897   6.112   4.050   7.880  1.2437  0.5578 -0.6218
  175SAPI  C21319898   5.994   3.933   7.737  0.1484  0.4197  0.2455
  175SAPI  H13R19899   6.020   3.847   7.801 -0.7753 -1.2967 -1.5911
  175SAPI  H13S19900   6.004   3.890   7.635  0.2872  1.0894 -0.0315
  175SAPI  C21419901   5.854   3.972   7.765 -0.1708 -0.4871 -0.2342
  175SAPI  H14R19902   5.817   4.057   7.705  0.6342 -0.6770 -1.0324
  175SAPI  C21519903   5.762   3.915   7.838  0.3401  0.0911 -0.4064
  175SAPI  H15R19904   5.667   3.970   7.845  0.5169  0.3824 -0.2754
  175SAPI  C21619905   5.773   3.790   7.922 -0.5697 -0.2916 -0.3570
  175SAPI  H16R19906   5.864   3.731   7.898  0.1966 -0.8601  3.2771
  175SAPI  H16S19907   5.690   3.719   7.904 -0.9726 -0.0921  0.6244
  175SAPI  C21719908   5.783   3.826   8.075  0.6573  0.1045 -0.0700
  175SAPI  H17R19909   5.689   3.871   8.113  0.6365 -0.2023  0.2411
  175SAPI  H17S19910   5.867   3.898   8.094 -0.3994  0.6607  3.1520
  175SAPI  C21819911   5.814   3.699   8.148  0.5084  0.4769  0.3147
  175SAPI  H18R19912   5.909   3.653   8.113 -1.9658 -3.0904 -2.3382
  175SAPI  H18S19913   5.731   3.633   8.117  1.6155 -0.5169 -0.6259
  175SAPI  C21919914   5.828   3.708   8.305 -1.0284 -0.6540 -0.1558
  175SAPI  H19R19915   5.918   3.773   8.309 -0.6658 -1.0292 -1.5480
  175SAPI  H19S19916   5.848   3.609   8.351 -1.4996 -0.6861 -0.0165
  175SAPI  C22019917   5.705   3.760   8.380 -0.0068 -0.1075  1.0142
  175SAPI  H20R19918   5.614   3.697   8.369 -1.0078  1.2325  1.3229
  175SAPI  H20S19919   5.676   3.864   8.355 -1.5856 -0.5674  0.8110
  175SAPI  H20T19920   5.729   3.765   8.488  4.2073 -0.5375  0.2828
  175SAPI   C3319921   6.359   5.053   6.905 -0.0047  0.6619 -0.2149
  175SAPI   H3X19922   6.368   5.148   6.848 -2.1846  1.4417  0.6369
  175SAPI   H3Y19923   6.436   4.986   6.861 -0.4084  0.1974 -0.2220
  175SAPI   C3419924   6.393   5.103   7.048 -0.0482 -0.4034 -0.5730
  175SAPI   H4X19925   6.312   5.177   7.065 -4.6082 -4.3819 -2.5542
  175SAPI   H4Y19926   6.495   5.147   7.044 -0.2989  0.4419  1.2732
  175SAPI   C3519927   6.395   5.006   7.164  0.0866 -0.4530 -0.5991
  175SAPI   H5X19928   6.426   4.907   7.124  1.8292 -0.1814 -0.0005
  175SAPI   H5Y19929   6.290   4.988   7.196  0.2262  0.5045  0.4792
  175SAPI   C3619930   6.491   5.045   7.277 -0.5554 -0.1624 -0.2690
  175SAPI   H6X19931   6.461   5.149   7.301  1.1163  0.0978  0.8449
  175SAPI   H6Y19932   6.597   5.055   7.246 -0.3146 -0.5212  0.4183
  175SAPI   C3719933   6.483   4.957   7.412 -0.2515  0.2856 -0.2714
  175SAPI   H7X19934   6.512   4.854   7.383  0.0614  0.1840  0.3879
  175SAPI   H7Y19935   6.378   4.950   7.448 -0.2834 -0.7556 -0.5442
  175SAPI   C3819936   6.577   5.006   7.521 -0.0433  0.5242 -0.5726
  175SAPI   H8X19937   6.554   5.111   7.547 -3.4218  0.2114 -1.8436
  175SAPI   H8Y19938   6.675   5.007   7.469  0.4938  2.3437  0.3861
  175SAPI   C3919939   6.585   4.915   7.651 -0.1669 -0.4033 -0.2367
  175SAPI   H9X19940   6.584   4.806   7.629  0.1546 -0.6978  1.1265
  175SAPI   H9Y19941   6.501   4.935   7.721  0.7251  1.0627  0.4451
  175SAPI  C31019942   6.713   4.940   7.735 -0.6840 -0.3510  0.2174
  175SAPI  H10X19943   6.699   5.043   7.776 -0.3596 -0.2352  0.0346
  175SAPI  H10Y19944   6.806   4.939   7.676 -1.3309 -1.2160 -0.8187
  175SAPI  C31119945   6.728   4.861   7.866 -0.4310  0.6078  0.0609
  175SAPI  H11X19946   6.763   4.760   7.835  0.2479  1.2756 -1.4763
  175SAPI  H11Y19947   6.626   4.830   7.897 -0.0082 -0.0100  0.8721
  175SAPI  C31219948   6.801   4.919   7.989 -0.2250 -0.2542  0.9070
  175SAPI  H12X19949   6.895   4.969   7.958  0.5831 -2.7572 -1.0911
  175SAPI  H12Y19950   6.821   4.844   8.068 -2.3878 -0.1397  1.6413
  175SAPI  C31319951   6.711   5.016   8.061  0.4335 -0.1494  0.2984
  175SAPI  H13X19952   6.614   4.961   8.065  0.3223  0.1100  1.4681
  175SAPI  H13Y19953   6.704   5.108   8.000 -1.7963  0.7068  1.7168
  175SAPI  C31419954   6.757   5.068   8.196  0.9293  0.5704  0.5529
  175SAPI  H14X19955   6.865   5.088   8.184  1.0856 -0.7589 -0.5777
  175SAPI  H14Y19956   6.742   4.990   8.274  1.6984  0.4323  0.5689
  175SAPI  C31519957   6.687   5.196   8.243  0.2701 -0.3859 -0.4542
  175SAPI  H15X19958   6.724   5.285   8.188 -0.4454  1.4387  1.8343
  175SAPI  H15Y19959   6.717   5.215   8.349  0.7378  0.0078 -0.6539
  175SAPI  C31619960   6.534   5.188   8.233  0.1669 -0.2113  0.0392
  175SAPI  H16X19961   6.515   5.103   8.302 -0.4732 -0.2815 -0.2149
  175SAPI  H16Y19962   6.501   5.163   8.130  1.0487 -1.1584 -0.0323
  175SAPI  C31719963   6.460   5.306   8.296  0.8117 -0.5405 -0.0406
  175SAPI  H17X19964   6.492   5.333   8.399  0.2208  0.5218 -0.1234
  175SAPI  H17Y19965   6.353   5.283   8.315  0.3143  0.5091 -1.4548
  175SAPI  C31819966   6.478   5.425   8.207 -0.2007  0.0980 -0.0217
  175SAPI  H18X19967   6.588   5.436   8.201 -0.2121  0.1995 -0.0606
  175SAPI  H18Y19968   6.431   5.517   8.249 -1.0160  0.2290 -1.1945
  175SAPI  H18Z19969   6.436   5.391   8.110  0.0731 -0.6955  0.1306
  176SAPI   C1219970   0.979   0.546   6.167  0.5700  0.2164 -0.0142
  176SAPI    H219971   1.008   0.562   6.273 -1.2918  2.1881  0.2728
  176SAPI    O219972   0.993   0.668   6.088 -0.6195  0.3137  0.0819
  176SAPI   HO219973   1.052   0.721   6.143 -1.1140  0.0428  0.9022
  176SAPI   C1319974   1.059   0.430   6.105 -0.3951  0.0900 -0.0575
  176SAPI    H319975   1.051   0.340   6.170  1.7800  1.4275  2.2851
  176SAPI    O319976   1.198   0.463   6.112  0.5033 -0.7594  0.0126
  176SAPI   HO319977   1.206   0.473   6.207  0.3931  0.1141 -0.0641
  176SAPI   C1419978   1.011   0.408   5.962 -0.6699 -0.1131 -0.1952
  176SAPI    H419979   1.042   0.502   5.910  0.8944 -0.5984 -0.1798
  176SAPI    O419980   1.085   0.297   5.909 -0.2110 -0.3667 -0.0131
  176SAPI   HO419981   1.107   0.318   5.818  3.1118 -0.2079  0.6958
  176SAPI   C1519982   0.864   0.374   5.958 -0.1783 -0.7332  0.2597
  176SAPI    H519983   0.847   0.276   6.006  1.6149 -1.5496 -0.6550
  176SAPI    O519984   0.830   0.354   5.821 -0.3009 -0.0042 -0.1290
  176SAPI   HO519985   0.739   0.382   5.806 -0.0041  0.4964 -1.1280
  176SAPI   C1619986   0.780   0.485   6.023  0.2207  0.0799 -0.3215
  176SAPI    H619987   0.784   0.572   5.954  0.3840 -0.3635 -0.8773
  176SAPI    O619988   0.647   0.442   6.032  0.0211 -0.2918 -0.7628
  176SAPI   HO619989   0.653   0.364   6.087 -1.2467  1.1012  1.4737
  176SAPI   C1119990   0.832   0.507   6.167 -0.1851  0.7516  0.4222
  176SAPI    H119991   0.820   0.407   6.214 -1.9592  0.3079 -0.8453
  176SAPI     P19992   0.626   0.559   6.330  0.2020  0.1965 -0.0289
  176SAPI   O1319993   0.593   0.414   6.310 -0.1397 -0.2240  0.4586
  176SAPI   O1419994   0.519   0.656   6.291 -0.7227  0.1562 -0.1060
  176SAPI   O1219995   0.765   0.603   6.248 -0.1466 -0.3868  0.3938
  176SAPI   O1119996   0.667   0.581   6.480 -0.1995  0.3981  0.5510
  176SAPI    C119997   0.795   0.525   6.526  1.2099  0.3084 -0.0374
  176SAPI    HA19998   0.881   0.535   6.456  0.1401  1.6638 -1.2262
  176SAPI    HB19999   0.821   0.582   6.617 -0.9420  0.6683  0.4100
  176SAPI    C220000   0.771   0.372   6.563 -0.0475  0.0759  0.4424
  176SAPI    HS20001   0.781   0.309   6.473 -2.0361  0.4038 -0.0731
  176SAPI   O2120002   0.637   0.366   6.626 -0.1688  0.0759 -0.0088
  176SAPI   C2120003   0.564   0.259   6.605  0.0536 -0.2550  0.4086
  176SAPI   O2220004   0.604   0.159   6.540  0.2554 -0.0582  0.2767
  176SAPI   C2220005   0.422   0.273   6.654  0.3297  0.6428 -0.2439
  176SAPI   H2R20006   0.404   0.381   6.675  2.7237  1.1588 -0.4957
  176SAPI   H2S20007   0.353   0.244   6.572  0.3454  1.6007 -0.6056
  176SAPI    C320008   0.878   0.331   6.671 -0.0899 -0.3514 -0.2774
  176SAPI    HX20009   0.859   0.395   6.759 -1.7776 -0.9529 -0.1642
  176SAPI    HY20010   0.980   0.362   6.638  1.1483  0.7191  3.9799
  176SAPI   O3120011   0.886   0.187   6.709 -0.0816 -0.0338 -0.5573
  176SAPI   C3120012   0.980   0.109   6.661  0.0764  0.4287  0.3902
  176SAPI   O3220013   1.073   0.148   6.596 -0.7529 -0.1283  0.0346
  176SAPI   C3220014   0.946  -0.045   6.701  0.2956 -0.2563 -0.5241
  176SAPI   H2X20015   0.972  -0.105   6.611  2.8269 -0.3558  0.2134
  176SAPI   H2Y20016   0.837  -0.035   6.724  0.5596 -0.1281  0.7243
  176SAPI   C2320017   0.401   0.193   6.779 -0.2253  0.2187 -0.3254
  176SAPI   H3R20018   0.433   0.086   6.777  1.5282  0.7217 -0.7274
  176SAPI   H3S20019   0.292   0.205   6.796 -0.3641  0.5887 -1.4166
  176SAPI   C2420020   0.448   0.264   6.907  0.2107 -0.5455 -0.2741
  176SAPI   H4R20021   0.399   0.219   6.996  2.4117 -1.2875  0.6387
  176SAPI   H4S20022   0.429   0.374   6.912  0.7870 -0.4803  0.8227
  176SAPI   C2520023   0.597   0.228   6.934 -0.5967 -0.4513 -0.0085
  176SAPI   H5R20024   0.650   0.210   6.839 -1.6455 -0.1260 -0.6710
  176SAPI   C2620025   0.661   0.198   7.055 -0.3732 -0.3958  0.7673
  176SAPI   H6R20026   0.764   0.160   7.049  0.6617  2.2423  0.4400
  176SAPI   C2720027   0.595   0.200   7.191 -0.1747  0.6258  0.2209
  176SAPI   H7R20028   0.515   0.124   7.183 -0.3597  0.6699  1.4835
  176SAPI   H7S20029   0.543   0.297   7.208 -2.2959  0.2013 -3.0979
  176SAPI   C2820030   0.699   0.191   7.303  0.0302  0.3250 -0.5865
  176SAPI   H8R20031   0.799   0.234   7.291 -0.2324  1.2505  0.3855
  176SAPI   C2920032   0.669   0.133   7.419 -0.0859 -0.0575 -0.8936
  176SAPI   H9R20033   0.736   0.135   7.506 -1.5355  0.6376  0.2579
  176SAPI  C21020034   0.535   0.075   7.458 -0.3284 -0.1345  0.0637
  176SAPI  H10R20035   0.560  -0.019   7.512  0.4300 -1.4465 -2.4134
  176SAPI  H10S20036   0.489   0.031   7.367  0.2349  0.6399 -0.6002
  176SAPI  C21120037   0.444   0.166   7.538 -0.2742  1.0552  0.3087
  176SAPI  H11R20038   0.402   0.248   7.478 -0.4300 -0.8581 -2.3988
  176SAPI  C21220039   0.408   0.149   7.668  0.1754 -0.0521  0.7119
  176SAPI  H12R20040   0.344   0.226   7.714 -0.1673 -1.6183  3.0522
  176SAPI  C21320041   0.462   0.043   7.758 -0.3152  0.2317 -0.2273
  176SAPI  H13R20042   0.497   0.096   7.849 -3.3520  0.2161  1.0931
  176SAPI  H13S20043   0.549  -0.011   7.716 -0.1375  1.3848 -1.4117
  176SAPI  C21420044   0.363  -0.066   7.810  0.0825 -0.2387  0.6858
  176SAPI  H14R20045   0.257  -0.041   7.792  0.3412 -0.9428 -2.4263
  176SAPI  C21520046   0.397  -0.188   7.849  0.6397 -0.0511  0.0019
  176SAPI  H15R20047   0.314  -0.250   7.884 -0.0682  0.7496 -0.2212
  176SAPI  C21620048   0.541  -0.240   7.867 -0.7477 -0.3783  0.4560
  176SAPI  H16R20049   0.615  -0.158   7.879 -0.6422 -0.4613  0.3747
  176SAPI  H16S20050   0.568  -0.293   7.773 -1.0235 -1.3535  0.9087
  176SAPI  C21720051   0.561  -0.326   7.991 -0.2341  0.1048 -0.3117
  176SAPI  H17R20052   0.667  -0.359   7.997  0.0729  1.2935  2.1191
  176SAPI  H17S20053   0.501  -0.419   7.985 -0.2628  0.1262 -0.3592
  176SAPI  C21820054   0.528  -0.248   8.113 -0.4026 -0.3643 -0.5076
  176SAPI  H18R20055   0.421  -0.227   8.131 -0.1410  0.0522  0.6758
  176SAPI  H18S20056   0.587  -0.154   8.109  0.3268 -0.6990  1.2626
  176SAPI  C21920057   0.580  -0.324   8.231  0.3539 -0.3439 -0.1786
  176SAPI  H19R20058   0.686  -0.351   8.211  0.7232  1.6282 -1.0315
  176SAPI  H19S20059   0.519  -0.413   8.260 -2.1525  1.0033 -1.0749
  176SAPI  C22020060   0.577  -0.241   8.360 -0.1843 -0.0766  0.1627
  176SAPI  H20R20061   0.632  -0.146   8.347 -0.3410  0.3655  2.3432
  176SAPI  H20S20062   0.631  -0.284   8.447  0.7657 -0.0538 -0.4016
  176SAPI  H20T20063   0.474  -0.223   8.397 -1.3465  0.4528 -2.9516
  176SAPI   C3320064   1.045  -0.113   6.799  0.2326 -0.6853 -0.2722
  176SAPI   H3X20065   1.146  -0.072   6.778 -0.6354  1.1561 -1.0835
  176SAPI   H3Y20066   1.052  -0.222   6.776 -0.6118 -0.6062 -0.9479
  176SAPI   C3420067   1.001  -0.089   6.946  0.7936  0.2147 -0.1677
  176SAPI   H4X20068   1.038  -0.168   7.015 -0.0400  1.4040  1.7366
  176SAPI   H4Y20069   0.891  -0.084   6.955  0.9641  1.8308  1.5990
  176SAPI   C3520070   1.066   0.043   7.005 -0.2219  0.5840 -0.3040
  176SAPI   H5X20071   1.020   0.128   6.949  0.0915  0.6741 -0.4287
  176SAPI   H5Y20072   1.176   0.049   6.992 -0.0456  1.6254  1.3393
  176SAPI   C3620073   1.049   0.062   7.155 -1.0540  0.0341 -1.3377
  176SAPI   H6X20074   1.080  -0.031   7.207 -3.5426 -0.2134 -0.1582
  176SAPI   H6Y20075   0.940   0.065   7.177 -0.9907 -0.5435 -0.9254
  176SAPI   C3720076   1.114   0.180   7.223 -0.4457  0.4783  0.3795
  176SAPI   H7X20077   1.071   0.272   7.178  2.4957  2.2139  0.8819
  176SAPI   H7Y20078   1.224   0.178   7.211 -0.4487 -0.6792  0.4696
  176SAPI   C3820079   1.096   0.187   7.380 -0.2662 -0.1196  0.1219
  176SAPI   H8X20080   0.990   0.176   7.409 -0.2673  3.1728  1.8312
  176SAPI   H8Y20081   1.138   0.282   7.419  1.2172 -0.7126  0.0508
  176SAPI   C3920082   1.177   0.079   7.456  0.3574  0.3282  0.2862
  176SAPI   H9X20083   1.288   0.081   7.448  0.3427 -0.7764 -0.3882
  176SAPI   H9Y20084   1.141  -0.020   7.420  0.6683 -0.2291  1.4591
  176SAPI  C31020085   1.153   0.067   7.608  0.3151 -0.2954 -0.5109
  176SAPI  H10X20086   1.204   0.153   7.656  0.8694 -0.8916 -0.0263
  176SAPI  H10Y20087   1.202  -0.023   7.649  0.5278  0.6138  1.3371
  176SAPI  C31120088   1.005   0.059   7.653 -0.2573  0.1298 -0.0706
  176SAPI  H11X20089   0.955  -0.015   7.587  0.6860  0.0905 -0.7526
  176SAPI  H11Y20090   0.943   0.150   7.640 -1.4928 -1.0302 -3.4496
  176SAPI  C31220091   0.980   0.013   7.800 -0.2412 -0.6201  0.3242
  176SAPI  H12X20092   1.079  -0.020   7.839  1.9511 -0.6366 -4.4412
  176SAPI  H12Y20093   0.922  -0.081   7.794  2.1077 -2.2693  1.8262
  176SAPI  C31320094   0.912   0.117   7.886 -0.0157 -0.4401  0.0967
  176SAPI  H13X20095   0.822   0.145   7.828 -0.2690 -1.9075 -0.2659
  176SAPI  H13Y20096   0.972   0.206   7.914 -2.2085  0.5574  2.0040
  176SAPI  C31420097   0.854   0.057   8.013  0.8379 -0.7927 -0.0887
  176SAPI  H14X20098   0.945   0.021   8.064  1.2936 -0.2995 -0.5363
  176SAPI  H14Y20099   0.775  -0.015   7.985 -0.6591  0.3015  1.1551
  176SAPI  C31520100   0.777   0.160   8.100  0.3700 -0.3207 -0.7004
  176SAPI  H15X20101   0.678   0.183   8.055  0.3089 -0.8504 -0.8443
  176SAPI  H15Y20102   0.832   0.255   8.121  0.1370  0.3243 -2.7976
  176SAPI  C31620103   0.734   0.111   8.234  0.3411 -0.4660 -0.8179
  176SAPI  H16X20104   0.717   0.001   8.237  2.5749 -0.8700 -0.9174
  176SAPI  H16Y20105   0.638   0.154   8.268 -0.2033 -1.7376 -0.6810
  176SAPI  C31720106   0.837   0.155   8.338 -0.3037 -0.0401  0.4255
  176SAPI  H17X20107   0.841   0.265   8.332 -1.0938  0.0336  1.0747
  176SAPI  H17Y20108   0.940   0.119   8.316 -0.4159 -1.7992  2.3983
  176SAPI  C31820109   0.802   0.118   8.475  0.2837  0.4279 -0.7866
  176SAPI  H18X20110   0.892   0.124   8.540 -0.6439 -2.6090  1.0105
  176SAPI  H18Y20111   0.767   0.012   8.481  0.2670  0.3481 -2.0288
  176SAPI  H18Z20112   0.731   0.185   8.527 -0.0723 -0.3648 -0.2165
  177SLPC     N20113   5.578   6.173  10.914  0.6643  0.4511  0.1732
  177SLPC   C1320114   5.446   6.179  10.983 -0.2342  0.4329 -0.4209
  177SLPC  H13A20115   5.386   6.258  10.940  0.8297  2.5281  1.7477
  177SLPC  H13B20116   5.396   6.084  10.966  0.8113 -0.2822  0.3739
  177SLPC  H13C20117   5.446   6.189  11.090 -4.3764 -1.2721 -0.0789
  177SLPC   C1420118   5.672   6.086  10.994 -0.2494  0.3530 -0.5098
  177SLPC  H14A20119   5.631   5.988  11.014  0.2417  0.0935 -0.7621
  177SLPC  H14B20120   5.771   6.073  10.952  1.1529 -0.8231  2.8350
  177SLPC  H14C20121   5.695   6.117  11.095 -1.5315 -0.4758  0.0560
  177SLPC   C1520122   5.637   6.306  10.909 -0.5841 -0.0390 -0.1739
  177SLPC  H15A20123   5.640   6.354  11.006 -1.4035 -1.7532  0.7342
  177SLPC  H15B20124   5.739   6.306  10.874 -0.3010  2.7523  0.4157
  177SLPC  H15C20125   5.571   6.364  10.846 -1.2825  1.8263  2.1280
  177SLPC   C1220126   5.565   6.121  10.771 -0.2174  0.8832  0.0679
  177SLPC  H12A20127   5.653   6.153  10.717  0.0795  0.6749  0.4181
  177SLPC  H12B20128   5.480   6.171  10.728 -0.9814 -2.2853 -2.5614
  177SLPC   C1120129   5.542   5.966  10.751  0.3845 -0.0113  0.2438
  177SLPC  H11A20130   5.505   5.949  10.647 -0.1096 -0.6448  0.5091
  177SLPC  H11B20131   5.461   5.922  10.814  1.7646 -2.2137  0.5968
  177SLPC     P20132   5.785   5.911  10.670  0.5866  0.3329  0.1081
  177SLPC   O1320133   5.809   6.051  10.637 -0.6801 -0.3248 -0.0122
  177SLPC   O1420134   5.898   5.824  10.713 -0.5178 -0.1400  0.4494
  177SLPC   O1220135   5.664   5.899  10.771 -0.0453 -0.0845 -0.4638
  177SLPC   O1120136   5.714   5.835  10.550  0.7285  0.2587  0.0932
  177SLPC    C120137   5.649   5.710  10.558 -0.2649  0.1846  0.2040
  177SLPC    HA20138   5.598   5.693  10.655 -2.5270 -1.0985 -1.1216
  177SLPC    HB20139   5.567   5.710  10.484  0.8534 -0.1739 -1.0817
  177SLPC    C220140   5.734   5.578  10.534 -0.7309 -0.0535 -0.5390
  177SLPC    HS20141   5.838   5.594  10.569  0.2929 -0.6175 -3.1519
  177SLPC   O2120142   5.732   5.532  10.396 -0.0925  0.2092 -0.6734
  177SLPC   C2120143   5.843   5.464  10.362  0.2208 -0.0349 -0.8126
  177SLPC   O2220144   5.915   5.412  10.441  0.1658 -0.0671 -0.3503
  177SLPC   C2220145   5.843   5.450  10.208  0.2864  0.5049 -0.4824
  177SLPC   H2R20146   5.745   5.455  10.156  0.1093  2.0598 -0.0702
  177SLPC   H2S20147   5.882   5.550  10.178 -0.3638  1.0089  0.2889
  177SLPC    C320148   5.667   5.465  10.625 -0.4188 -0.5094 -0.8667
  177SLPC    HX20149   5.653   5.509  10.726 -0.4230 -0.8849 -0.7029
  177SLPC    HY20150   5.730   5.376  10.650  0.3825  0.0511 -0.8470
  177SLPC   O3120151   5.537   5.437  10.565  0.4663 -0.5453 -0.0862
  177SLPC   C3120152   5.518   5.332  10.494  0.1574  0.3952 -0.0143
  177SLPC   O3220153   5.607   5.242  10.479 -0.0729 -1.0488  0.1963
  177SLPC   C3220154   5.393   5.328  10.406 -0.0936  0.2752  1.1491
  177SLPC   H2X20155   5.320   5.405  10.440  1.7512  1.8768  1.6163
  177SLPC   H2Y20156   5.343   5.230  10.420  0.4687 -0.6073 -2.1648
  177SLPC   C2320157   5.923   5.324  10.159  0.0567 -0.0895 -0.3106
  177SLPC   H3R20158   5.895   5.224  10.197  1.6645 -1.2535 -2.0129
  177SLPC   H3S20159   6.032   5.337  10.175 -0.0094 -0.5120  0.5136
  177SLPC   C2420160   5.912   5.302  10.006  0.1931 -0.1129 -0.7240
  177SLPC   H4R20161   5.808   5.273   9.978  0.0208 -0.6944  0.4847
  177SLPC   H4S20162   5.976   5.213   9.993  2.1551  0.8031  1.8032
  177SLPC   C2520163   5.951   5.427   9.926  0.5969 -0.0734 -0.1555
  177SLPC   H5R20164   6.054   5.452   9.958  0.5440 -0.1848  0.1088
  177SLPC   H5S20165   5.881   5.509   9.952  0.1303 -0.8672  1.1845
  177SLPC   C2620166   5.950   5.395   9.771  0.1422  0.3981 -0.1066
  177SLPC   H6R20167   5.855   5.349   9.735  0.4333  2.2100 -3.6167
  177SLPC   H6S20168   6.032   5.326   9.743 -0.1812  0.2130 -0.6052
  177SLPC   C2720169   5.983   5.515   9.685  0.3719  0.1691  1.2301
  177SLPC   H7R20170   6.074   5.559   9.731  0.8794 -0.2536  0.6324
  177SLPC   H7S20171   5.901   5.589   9.700 -0.8607 -0.5339 -1.3953
  177SLPC   C2820172   5.998   5.486   9.537  0.0349 -0.2978 -0.0761
  177SLPC   H8R20173   6.083   5.416   9.526  3.0988  3.1973 -0.6724
  177SLPC   H8S20174   6.025   5.582   9.488  0.0380 -1.1040 -1.7318
  177SLPC   C2920175   5.874   5.438   9.466  0.5709  0.2056  0.3073
  177SLPC   H9R20176   5.832   5.341   9.497 -0.0269 -0.5495 -2.5512
  177SLPC  C21020177   5.808   5.494   9.367 -0.5789 -0.3945  0.4388
  177SLPC  H10R20178   5.723   5.435   9.328  0.1529 -2.4335  1.7505
  177SLPC  C21120179   5.833   5.617   9.292  0.7932  0.7796  0.2528
  177SLPC  H11R20180   5.923   5.671   9.330  0.6848  0.9199  0.3078
  177SLPC  H11S20181   5.869   5.586   9.191  2.0612 -0.0511  0.9197
  177SLPC  C21220182   5.714   5.712   9.301  0.7628 -0.1086  0.1336
  177SLPC  H12R20183   5.692   5.773   9.390 -0.8454  1.4646 -1.2406
  177SLPC  C21320184   5.639   5.749   9.201  0.2765 -0.0314 -0.2932
  177SLPC  H13R20185   5.561   5.826   9.210  0.0631  0.2768 -3.4272
  177SLPC  C21420186   5.630   5.712   9.055 -0.0127 -0.4504 -0.0179
  177SLPC  H14R20187   5.527   5.737   9.024 -0.3254 -1.2711  0.3377
  177SLPC  H14S20188   5.649   5.604   9.034  0.3295 -0.2300 -0.9023
  177SLPC  C21520189   5.731   5.809   8.981  0.5677 -0.2713 -0.3866
  177SLPC  H15R20190   5.837   5.784   9.004  0.3661 -2.1154 -1.2724
  177SLPC  H15S20191   5.710   5.912   9.015  1.8350 -0.6392  1.7081
  177SLPC  C21620192   5.740   5.782   8.834  0.2952 -0.3655 -1.2442
  177SLPC  H16R20193   5.641   5.793   8.784 -1.0033 -2.5146  0.5969
  177SLPC  H16S20194   5.765   5.674   8.826  0.7661 -0.2779 -1.0068
  177SLPC  C21720195   5.850   5.858   8.765 -0.4252 -0.2704 -0.3073
  177SLPC  H17R20196   5.945   5.828   8.813  0.1758  3.1777  0.9870
  177SLPC  H17S20197   5.847   5.968   8.782  0.8017 -0.0997 -1.0230
  177SLPC  C21820198   5.860   5.834   8.610 -0.4476  0.4965 -0.0509
  177SLPC  H18R20199   5.836   5.728   8.587 -1.8525  0.8016 -0.0713
  177SLPC  H18S20200   5.961   5.857   8.571 -0.6252  0.2634 -0.6665
  177SLPC  H18T20201   5.787   5.902   8.561 -2.3842 -2.8874 -2.3101
  177SLPC   C3320202   5.437   5.350  10.254  0.1841  0.6347 -0.2211
  177SLPC   H3X20203   5.353   5.298  10.202 -0.1427  0.7258  0.2075
  177SLPC   H3Y20204   5.536   5.302  10.243 -0.3729 -0.6156  0.0652
  177SLPC   C3420205   5.422   5.492  10.199 -0.1140  0.0667  0.2594
  177SLPC   H4X20206   5.505   5.556  10.238  0.3319 -1.0378  1.1936
  177SLPC   H4Y20207   5.321   5.536  10.217 -1.5637 -2.4489 -1.2546
  177SLPC   C3520208   5.445   5.485  10.049 -0.4646 -0.5575  0.0453
  177SLPC   H5X20209   5.354   5.448   9.997 -1.1210  3.8245 -2.4283
  177SLPC   H5Y20210   5.528   5.414  10.028  0.8467  0.3503  1.9154
  177SLPC   C3620211   5.487   5.618   9.980  0.4280  0.0910 -0.2831
  177SLPC   H6X20212   5.556   5.683  10.038 -0.1509  0.0291  0.4993
  177SLPC   H6Y20213   5.394   5.678   9.977  0.6052  0.3095 -2.7254
  177SLPC   C3720214   5.541   5.592   9.836 -0.0961  0.1032 -0.4416
  177SLPC   H7X20215   5.617   5.511   9.841  0.1939  0.4355  1.1344
  177SLPC   H7Y20216   5.593   5.688   9.815  0.6015  0.0178  0.7920
  177SLPC   C3820217   5.432   5.560   9.743  0.0918 -0.7555  0.1989
  177SLPC   H8X20218   5.374   5.654   9.738 -1.7047 -1.8145 -4.0569
  177SLPC   H8Y20219   5.362   5.479   9.773  2.5546 -3.1392 -0.0743
  177SLPC   C3920220   5.482   5.520   9.603 -0.2047 -0.3478 -0.0743
  177SLPC   H9X20221   5.556   5.438   9.606 -1.0379 -1.1132 -0.2647
  177SLPC   H9Y20222   5.539   5.608   9.564  0.9270  1.5605  5.0402
  177SLPC  C31020223   5.368   5.464   9.508  0.0452  0.0502 -0.3974
  177SLPC  H10X20224   5.281   5.530   9.531  1.1789  1.7259 -0.7400
  177SLPC  H10Y20225   5.335   5.360   9.529 -0.1392 -0.1610 -1.6336
  177SLPC  C31120226   5.419   5.473   9.363 -0.1240  0.1170 -0.8487
  177SLPC  H11X20227   5.507   5.407   9.352  1.2920  1.9194 -0.9084
  177SLPC  H11Y20228   5.466   5.573   9.346 -1.3740  0.9169  0.1878
  177SLPC  C31220229   5.307   5.435   9.264  0.5261  0.1968  0.0752
  177SLPC  H12X20230   5.226   5.507   9.289 -0.0128 -0.3993  0.0833
  177SLPC  H12Y20231   5.270   5.334   9.293  2.4607 -0.5323  0.1660
  177SLPC  C31320232   5.349   5.431   9.119  0.7376 -0.0426  0.1821
  177SLPC  H13X20233   5.420   5.346   9.110 -0.9670 -1.8796  2.5563
  177SLPC  H13Y20234   5.407   5.525   9.106 -3.6370  2.9493  0.0514
  177SLPC  C31420235   5.244   5.419   9.007  1.0105 -0.5068  0.1307
  177SLPC  H14X20236   5.298   5.425   8.910 -0.0240 -0.1514 -0.4329
  177SLPC  H14Y20237   5.190   5.516   9.010  1.5639 -0.2171  1.2833
  177SLPC  C31520238   5.157   5.304   9.018 -0.8764  0.8190 -0.1146
  177SLPC  H15X20239   5.114   5.289   9.119  1.8253 -1.9282  0.7575
  177SLPC  H15Y20240   5.215   5.211   9.001 -1.2895 -0.3083  3.7485
  177SLPC  C31620241   5.054   5.308   8.904  0.1643  0.0615  0.5880
  177SLPC  H16X20242   5.113   5.334   8.814  2.0422  1.2018  2.0765
  177SLPC  H16Y20243   4.976   5.387   8.913 -0.0864  0.1134 -1.4963
  177SLPC  C31720244   4.979   5.178   8.884 -0.0714 -0.1571  0.1628
  177SLPC  H17X20245   5.038   5.104   8.827 -0.7897  0.9149 -2.0904
  177SLPC  H17Y20246   4.897   5.206   8.815  0.7354  0.3034 -0.6406
  177SLPC  C31820247   4.925   5.123   9.011  0.7514 -0.1531  0.1129
  177SLPC  H18X20248   4.896   5.213   9.069 -0.0843  2.0892 -3.4687
  177SLPC  H18Y20249   5.003   5.061   9.059 -0.3502 -0.4571  1.5869
  177SLPC  H18Z20250   4.842   5.049   9.002  0.1164  0.4268  0.9853
  178SLPC     N20251   6.248   5.342  11.050  0.1684 -0.4572  0.6792
  178SLPC   C1320252   6.336   5.470  11.083  0.9303 -0.8773  0.1051
  178SLPC  H13A20253   6.299   5.558  11.033  1.2771 -0.7109  0.1389
  178SLPC  H13B20254   6.341   5.487  11.189 -0.5623  3.1824 -0.3005
  178SLPC  H13C20255   6.434   5.462  11.037  0.3132 -0.7165 -1.2898
  178SLPC   C1420256   6.113   5.357  11.102 -0.0417 -0.1133 -0.1422
  178SLPC  H14A20257   6.086   5.459  11.078  1.1869  0.1126 -0.6469
  178SLPC  H14B20258   6.052   5.278  11.062  0.2699 -1.4975  1.9389
  178SLPC  H14C20259   6.103   5.332  11.207  1.4636 -3.6807 -0.7110
  178SLPC   C1520260   6.330   5.224  11.110  0.2863 -0.1859  0.2649
  178SLPC  H15A20261   6.264   5.138  11.114 -0.7819  0.5613 -0.7076
  178SLPC  H15B20262   6.407   5.204  11.038  0.6553 -0.8886  0.8399
  178SLPC  H15C20263   6.362   5.248  11.211 -0.3061  0.2101  0.3648
  178SLPC   C1220264   6.250   5.335  10.901 -0.2906 -0.4926  0.1979
  178SLPC  H12A20265   6.201   5.425  10.865  0.0734 -0.0869  0.7063
  178SLPC  H12B20266   6.183   5.261  10.857 -1.2420  0.1837  0.4723
  178SLPC   C1120267   6.382   5.321  10.820  0.5388  0.2758 -0.2625
  178SLPC  H11A20268   6.460   5.385  10.864  0.2513  0.8050 -0.5168
  178SLPC  H11B20269   6.357   5.347  10.715 -0.0006 -0.8488 -0.4347
  178SLPC     P20270   6.350   5.066  10.774 -0.2841 -0.2375  0.0445
  178SLPC   O1320271   6.420   4.942  10.820  0.2267  0.1756  0.8117
  178SLPC   O1420272   6.207   5.078  10.804 -0.0041  0.1527  0.7425
  178SLPC   O1220273   6.433   5.185  10.826 -0.0741 -0.7046 -0.1157
  178SLPC   O1120274   6.361   5.073  10.615 -0.5282 -0.6043  0.7042
  178SLPC    C120275   6.494   5.090  10.569 -0.1466  0.0170  0.2404
  178SLPC    HA20276   6.551   5.172  10.618 -0.2928 -0.3810  1.0926
  178SLPC    HB20277   6.553   4.996  10.575 -0.6034 -0.3305 -0.5629
  178SLPC    C220278   6.488   5.123  10.415 -0.4628  0.1000  0.9824
  178SLPC    HS20279   6.586   5.155  10.374 -0.9694  0.6555  0.1616
  178SLPC   O2120280   6.393   5.234  10.389 -0.1915  0.0907 -0.4560
  178SLPC   C2120281   6.433   5.355  10.433 -0.6357  0.3062 -0.8155
  178SLPC   O2220282   6.537   5.378  10.488 -0.1957 -0.4156  0.0018
  178SLPC   C2220283   6.340   5.464  10.387  0.3552  0.0970  0.2734
  178SLPC   H2R20284   6.239   5.429  10.357  0.5572 -0.0983 -0.1935
  178SLPC   H2S20285   6.308   5.531  10.470 -0.2965 -1.1271  1.0365
  178SLPC    C320286   6.433   5.002  10.338 -1.1202 -0.2035  0.3982
  178SLPC    HX20287   6.352   4.956  10.400 -3.7555  2.5121 -0.7634
  178SLPC    HY20288   6.517   4.931  10.329  3.0987  3.9235  3.0129
  178SLPC   O3120289   6.382   5.036  10.202 -0.9452 -1.1839 -0.0815
  178SLPC   C3120290   6.275   4.970  10.172  0.0742  0.2065  0.3999
  178SLPC   O3220291   6.240   4.861  10.217 -0.4739 -0.0507  0.0606
  178SLPC   C3220292   6.209   5.036  10.049 -0.1311 -0.0774 -0.6492
  178SLPC   H2X20293   6.208   5.147  10.057 -1.6242  0.0391 -1.8954
  178SLPC   H2Y20294   6.100   5.015  10.058 -0.3239  0.4970 -1.4869
  178SLPC   C2320295   6.399   5.545  10.265 -0.2148 -0.4049 -0.7491
  178SLPC   H3R20296   6.455   5.476  10.200  0.6650  0.0105 -0.4438
  178SLPC   H3S20297   6.472   5.623  10.294  0.6813 -1.6471  0.4470
  178SLPC   C2420298   6.296   5.613  10.177 -0.2065 -0.6841 -0.1913
  178SLPC   H4R20299   6.257   5.705  10.226  2.0882 -0.1412  0.7525
  178SLPC   H4S20300   6.217   5.536  10.168  1.0644 -2.0704  0.2161
  178SLPC   C2520301   6.344   5.646  10.033  0.3315  0.2187 -0.3873
  178SLPC   H5R20302   6.252   5.629   9.973  0.9913 -2.2097 -0.7857
  178SLPC   H5S20303   6.416   5.566  10.007 -2.4710 -2.7109  0.3344
  178SLPC   C2620304   6.393   5.797  10.012 -0.1446 -0.1524  0.1853
  178SLPC   H6R20305   6.469   5.820  10.089 -2.1281 -1.2661  2.6247
  178SLPC   H6S20306   6.305   5.862  10.031  1.8177  3.0677 -1.0506
  178SLPC   C2720307   6.457   5.816   9.875  0.5679  0.5876  0.3537
  178SLPC   H7R20308   6.529   5.899   9.887 -0.6175  1.6947  0.1054
  178SLPC   H7S20309   6.379   5.864   9.811  1.5863 -0.5504 -1.8284
  178SLPC   C2820310   6.499   5.687   9.801  0.2419 -0.3187  0.1893
  178SLPC   H8R20311   6.413   5.619   9.785  0.1396  0.0661 -1.0588
  178SLPC   H8S20312   6.576   5.632   9.859  1.4942 -1.9453 -2.7998
  178SLPC   C2920313   6.563   5.720   9.667 -0.0778 -0.2275  0.1806
  178SLPC   H9R20314   6.668   5.752   9.676  0.3137 -1.9361  2.8988
  178SLPC  C21020315   6.500   5.722   9.546  0.3449 -0.2482 -0.1967
  178SLPC  H10R20316   6.558   5.750   9.456  0.1543  2.0055  0.3234
  178SLPC  C21120317   6.356   5.694   9.516 -0.4297  0.2268  0.3363
  178SLPC  H11R20318   6.304   5.642   9.600 -0.3182 -0.9102 -0.2699
  178SLPC  H11S20319   6.348   5.615   9.438 -0.2814 -0.7931  1.3220
  178SLPC  C21220320   6.264   5.811   9.469 -0.2005  0.3877 -0.2846
  178SLPC  H12R20321   6.196   5.848   9.547  0.1981 -1.4453  1.0186
  178SLPC  C21320322   6.251   5.863   9.349 -0.9698 -0.3306  0.2581
  178SLPC  H13R20323   6.170   5.933   9.327 -2.1357 -1.8746 -0.5335
  178SLPC  C21420324   6.337   5.820   9.233  0.3544  1.3969  0.2267
  178SLPC  H14R20325   6.431   5.766   9.257 -0.8327 -0.5416  0.6919
  178SLPC  H14S20326   6.374   5.905   9.170  1.4118 -0.0877 -1.2606
  178SLPC  C21520327   6.250   5.729   9.140  0.1569 -0.5692  0.2278
  178SLPC  H15R20328   6.203   5.660   9.213 -0.2632  1.2751  1.7835
  178SLPC  H15S20329   6.306   5.671   9.064  0.3855 -2.2468  1.6211
  178SLPC  C21620330   6.131   5.814   9.086 -0.0385 -0.4162  0.4899
  178SLPC  H16R20331   6.066   5.835   9.174  0.3414  3.1575  0.0752
  178SLPC  H16S20332   6.088   5.736   9.019  0.5800 -0.6316  0.3372
  178SLPC  C21720333   6.179   5.941   9.013  0.2924  0.6393  0.7256
  178SLPC  H17R20334   6.236   6.012   9.078  1.3204 -0.9542  1.6164
  178SLPC  H17S20335   6.085   5.991   8.983  0.0656 -0.6368 -0.7680
  178SLPC  C21820336   6.245   5.932   8.875  0.0319  0.5735 -0.3655
  178SLPC  H18R20337   6.262   6.035   8.837 -0.1852 -0.0381 -2.2673
  178SLPC  H18S20338   6.179   5.886   8.798 -1.8937  0.2616  1.3761
  178SLPC  H18T20339   6.342   5.878   8.878 -0.4008 -0.2962  4.3212
  178SLPC   C3320340   6.281   5.002   9.925  0.3304 -0.2039  0.2040
  178SLPC   H3X20341   6.269   4.895   9.896  0.0930 -0.2079  0.3109
  178SLPC   H3Y20342   6.390   5.016   9.938  0.7655 -0.0164 -2.9884
  178SLPC   C3420343   6.233   5.090   9.806 -0.5012 -0.2044 -0.5226
  178SLPC   H4X20344   6.317   5.163   9.796  2.3222 -3.0169  0.7659
  178SLPC   H4Y20345   6.138   5.145   9.824 -0.0124  0.2922  0.7115
  178SLPC   C3520346   6.207   5.001   9.682 -0.4540 -0.4326 -0.3688
  178SLPC   H5X20347   6.137   4.917   9.702 -0.7511  0.0073  0.4504
  178SLPC   H5Y20348   6.308   4.971   9.647 -0.0057  1.6819 -1.0272
  178SLPC   C3620349   6.135   5.073   9.567 -0.5527 -0.2183 -0.1314
  178SLPC   H6X20350   6.169   5.177   9.546 -1.1859 -0.4546 -2.6938
  178SLPC   H6Y20351   6.028   5.073   9.597 -0.0214  0.6209  1.9871
  178SLPC   C3720352   6.149   4.999   9.433  0.2863  0.0261 -0.0024
  178SLPC   H7X20353   6.128   4.890   9.443  1.0554 -0.2274 -0.9650
  178SLPC   H7Y20354   6.254   5.001   9.398  0.0502  0.2794 -0.7142
  178SLPC   C3820355   6.061   5.052   9.320 -0.1852 -0.1987 -0.1151
  178SLPC   H8X20356   5.954   5.050   9.346 -0.0204  0.7771  0.7052
  178SLPC   H8Y20357   6.074   4.975   9.242 -0.0078  0.8653 -1.1731
  178SLPC   C3920358   6.104   5.191   9.274  0.3844  0.1706  0.4155
  178SLPC   H9X20359   6.213   5.213   9.283  0.7019 -1.3977  0.5392
  178SLPC   H9Y20360   6.072   5.267   9.349  0.0071 -0.5195  0.9621
  178SLPC  C31020361   6.063   5.227   9.137 -0.4771  0.0698  0.5266
  178SLPC  H10X20362   6.139   5.181   9.071  0.6847  1.4586  0.8585
  178SLPC  H10Y20363   6.067   5.337   9.120 -1.8257  0.0795  0.1353
  178SLPC  C31120364   5.922   5.181   9.088  0.7971  0.5146  0.3568
  178SLPC  H11X20365   5.850   5.204   9.169 -0.0816  3.9832 -1.2422
  178SLPC  H11Y20366   5.925   5.070   9.080 -2.0138  0.2905  1.2335
  178SLPC  C31220367   5.890   5.236   8.945  0.5338 -0.1512 -0.0070
  178SLPC  H12X20368   5.978   5.217   8.880  1.0277 -0.1535  0.6482
  178SLPC  H12Y20369   5.874   5.345   8.941  0.4178 -0.1393  0.6414
  178SLPC  C31320370   5.768   5.178   8.879  0.1121  0.0647 -0.2409
  178SLPC  H13X20371   5.686   5.168   8.954  1.9818 -1.7086  1.6820
  178SLPC  H13Y20372   5.796   5.071   8.869  1.8997  0.2962  1.7143
  178SLPC  C31420373   5.717   5.238   8.745 -0.2411 -0.5996 -0.6538
  178SLPC  H14X20374   5.627   5.187   8.703 -0.8526 -0.3669  0.3294
  178SLPC  H14Y20375   5.809   5.237   8.683  0.3208 -1.1094  0.1634
  178SLPC  C31520376   5.672   5.388   8.760 -0.0218 -0.0163  0.6402
  178SLPC  H15X20377   5.600   5.397   8.844 -0.0652 -1.7402  0.8295
  178SLPC  H15Y20378   5.762   5.447   8.786 -0.1027  1.1336 -1.5093
  178SLPC  C31620379   5.619   5.456   8.634 -0.1712 -0.2224 -0.0325
  178SLPC  H16X20380   5.582   5.560   8.649 -0.0922  0.1458 -2.1142
  178SLPC  H16Y20381   5.530   5.398   8.603 -0.4364  0.0217  0.2611
  178SLPC  C31720382   5.724   5.472   8.520 -0.1753  0.4348 -0.3934
  178SLPC  H17X20383   5.754   5.372   8.481  0.6854  1.3962 -2.3055
  178SLPC  H17Y20384   5.818   5.512   8.564  1.3748 -0.4811 -2.7076
  178SLPC  C31820385   5.676   5.556   8.401  0.3674 -0.1055 -0.4585
  178SLPC  H18X20386   5.588   5.505   8.358 -0.6230  0.4476  0.8409
  178SLPC  H18Y20387   5.757   5.574   8.327 -1.0010  1.9305 -1.5738
  178SLPC  H18Z20388   5.644   5.655   8.439  0.5604 -0.2850  0.1837
  179SLPC     N20389   2.296   4.349  10.724 -0.0621 -0.4564 -0.5516
  179SLPC   C1320390   2.381   4.245  10.797 -0.4847  0.3182 -0.1413
  179SLPC  H13A20391   2.486   4.267  10.806 -0.9443  2.0774  1.5822
  179SLPC  H13B20392   2.346   4.234  10.898 -0.9410  1.2737 -0.1835
  179SLPC  H13C20393   2.366   4.148  10.752 -0.4561  0.1138  0.2890
  179SLPC   C1420394   2.304   4.476  10.808  0.7179 -0.1431 -0.8319
  179SLPC  H14A20395   2.225   4.541  10.775  1.2982  0.5212 -0.9219
  179SLPC  H14B20396   2.296   4.453  10.914 -3.5898 -0.7636 -1.0992
  179SLPC  H14C20397   2.394   4.532  10.787  0.7976 -0.5568 -1.6119
  179SLPC   C1520398   2.150   4.306  10.733 -0.2435  1.0220  0.4834
  179SLPC  H15A20399   2.108   4.292  10.831  0.3821 -2.4274  0.3870
  179SLPC  H15B20400   2.084   4.373  10.680 -1.5460  0.5634  1.4919
  179SLPC  H15C20401   2.152   4.210  10.684  2.1767  1.7517 -1.1003
  179SLPC   C1220402   2.339   4.370  10.583  0.2453 -0.9410 -0.0066
  179SLPC  H12A20403   2.445   4.391  10.582  0.2696 -0.8413 -2.3370
  179SLPC  H12B20404   2.278   4.446  10.535  0.1612 -0.7421  0.4122
  179SLPC   C1120405   2.324   4.259  10.478 -0.3867 -0.0383  0.2635
  179SLPC  H11A20406   2.382   4.172  10.518  1.4841  1.6113  1.3642
  179SLPC  H11B20407   2.382   4.295  10.390 -1.7401 -0.3578 -0.7811
  179SLPC     P20408   2.082   4.303  10.386  0.0061 -0.0464  0.2871
  179SLPC   O1320409   2.001   4.221  10.293 -0.2117  0.4463  0.6245
  179SLPC   O1420410   2.006   4.371  10.493  0.6293 -0.2347  0.4611
  179SLPC   O1220411   2.192   4.209  10.446  0.3214 -0.4695 -0.0269
  179SLPC   O1120412   2.165   4.405  10.296 -0.3289 -0.2310 -0.2561
  179SLPC    C120413   2.196   4.372  10.166 -0.1699  0.0981  0.0998
  179SLPC    HA20414   2.290   4.428  10.148 -1.7017  3.0843  0.7144
  179SLPC    HB20415   2.210   4.263  10.149  1.0209 -0.0038  1.5781
  179SLPC    C220416   2.101   4.438  10.068  0.1700 -0.5135 -0.3974
  179SLPC    HS20417   2.008   4.376  10.070  0.1011 -0.3936  0.5404
  179SLPC   O2120418   2.163   4.432   9.936 -0.2731  0.3463  0.4663
  179SLPC   C2120419   2.161   4.318   9.876  0.0925  0.8264  0.5970
  179SLPC   O2220420   2.094   4.219   9.903  0.6632  0.0277 -0.3415
  179SLPC   C2220421   2.253   4.325   9.749  0.0969 -0.3600  0.1646
  179SLPC   H2R20422   2.213   4.406   9.685 -0.1746 -1.9691 -1.8200
  179SLPC   H2S20423   2.357   4.335   9.786 -0.3495  0.0029  1.3561
  179SLPC    C320424   2.069   4.583  10.107 -0.8153 -0.0647 -0.1916
  179SLPC    HX20425   2.160   4.637  10.141 -1.1811  0.8857 -0.6871
  179SLPC    HY20426   2.001   4.591  10.194  0.6101 -1.0076  1.0820
  179SLPC   O3120427   2.017   4.662   9.999  0.2844  0.2170  0.3264
  179SLPC   C3120428   1.879   4.670   9.996 -0.2019  0.0816 -0.3604
  179SLPC   O3220429   1.803   4.606  10.068 -0.3229  0.2893  0.3680
  179SLPC   C3220430   1.830   4.764   9.890  0.0214 -0.8192 -0.2899
  179SLPC   H2X20431   1.737   4.815   9.924 -0.9001 -0.9308 -2.4815
  179SLPC   H2Y20432   1.785   4.698   9.813 -3.4091 -1.4245  1.9836
  179SLPC   C2320433   2.253   4.195   9.672 -0.0728  0.1285  0.4009
  179SLPC   H3R20434   2.153   4.174   9.629  0.3080  0.5730 -0.7259
  179SLPC   H3S20435   2.294   4.108   9.730  0.8937 -1.5018 -2.5137
  179SLPC   C2420436   2.329   4.199   9.537  0.3504 -0.3339 -0.0066
  179SLPC   H4R20437   2.323   4.101   9.486 -3.6843  0.2381 -1.0285
  179SLPC   H4S20438   2.434   4.232   9.550  0.4308 -1.1850  1.6799
  179SLPC   C2520439   2.257   4.289   9.436 -0.4995 -0.4116  0.2526
  179SLPC   H5R20440   2.326   4.280   9.349 -0.5622 -1.6958  0.3121
  179SLPC   H5S20441   2.281   4.393   9.467  0.5128 -0.3048 -0.8066
  179SLPC   C2620442   2.117   4.269   9.395 -0.0291 -0.2320 -0.5331
  179SLPC   H6R20443   2.094   4.347   9.318  0.9178  0.1313 -0.4585
  179SLPC   H6S20444   2.046   4.280   9.480  0.8723  2.2079 -0.0228
  179SLPC   C2720445   2.098   4.123   9.335  0.5580  0.4237  0.0930
  179SLPC   H7R20446   2.131   4.052   9.413 -0.7707  1.5935  1.8080
  179SLPC   H7S20447   2.158   4.106   9.244 -2.2778  0.1325 -1.8480
  179SLPC   C2820448   1.948   4.092   9.306 -0.6244 -0.0500  0.2805
  179SLPC   H8R20449   1.917   4.166   9.228  0.3813 -1.6730 -1.7549
  179SLPC   H8S20450   1.888   4.119   9.396 -0.8764  1.7714 -0.3851
  179SLPC   C2920451   1.900   3.962   9.255 -0.0364  0.3695  0.3024
  179SLPC   H9R20452   1.847   3.899   9.328 -0.1132 -0.7776 -0.7011
  179SLPC  C21020453   1.895   3.916   9.136 -0.6771  0.1368 -0.2807
  179SLPC  H10R20454   1.870   3.810   9.123 -1.6487  0.2479  0.6339
  179SLPC  C21120455   1.925   3.988   9.007  0.0024  0.7769  1.0354
  179SLPC  H11R20456   2.035   4.005   9.005  0.3476 -1.2562 -1.0256
  179SLPC  H11S20457   1.862   4.079   9.002 -1.2119 -0.0098  1.6341
  179SLPC  C21220458   1.883   3.904   8.886 -0.7441  0.4683  0.2607
  179SLPC  H12R20459   1.944   3.814   8.865 -1.5285  0.3144 -1.5122
  179SLPC  C21320460   1.794   3.925   8.789 -0.1645 -0.5698 -0.1313
  179SLPC  H13R20461   1.769   3.841   8.723  1.4640 -2.0351  1.0037
  179SLPC  C21420462   1.699   4.039   8.791  0.1651  0.1847  0.0978
  179SLPC  H14R20463   1.676   4.057   8.898  1.6150 -1.7507  0.8013
  179SLPC  H14S20464   1.609   4.012   8.732 -0.3602 -3.0849  2.1084
  179SLPC  C21520465   1.744   4.177   8.738 -0.5051  0.6198  0.5357
  179SLPC  H15R20466   1.771   4.190   8.631  0.7808  2.1478  1.0032
  179SLPC  H15S20467   1.835   4.212   8.791 -0.0601  0.0666  0.1469
  179SLPC  C21620468   1.647   4.293   8.747 -0.4735  0.3229 -0.0323
  179SLPC  H16R20469   1.608   4.316   8.848  2.3768  1.3895  0.9299
  179SLPC  H16S20470   1.568   4.277   8.670  1.3170 -0.2610 -1.8277
  179SLPC  C21720471   1.721   4.427   8.699 -0.3872  1.3587 -0.3960
  179SLPC  H17R20472   1.760   4.414   8.596 -1.4879 -0.1238 -0.6506
  179SLPC  H17S20473   1.806   4.445   8.768 -0.2729 -0.0649 -0.1305
  179SLPC  C21820474   1.638   4.556   8.712 -0.0307  0.3408 -0.4136
  179SLPC  H18R20475   1.548   4.559   8.646  1.5884  1.3977 -2.7343
  179SLPC  H18S20476   1.704   4.638   8.678  0.6479 -0.0967 -0.1744
  179SLPC  H18T20477   1.609   4.564   8.819  0.0040  0.8199 -0.4384
  179SLPC   C3320478   1.939   4.849   9.827  0.0951  0.1108  0.9607
  179SLPC   H3X20479   2.014   4.783   9.779  0.6913  1.7158 -0.4361
  179SLPC   H3Y20480   2.003   4.895   9.905  1.8168  1.5138 -1.1253
  179SLPC   C3420481   1.874   4.956   9.738 -0.3664  0.2435 -0.5769
  179SLPC   H4X20482   1.957   5.028   9.721 -0.2373  0.8632  2.2432
  179SLPC   H4Y20483   1.793   5.007   9.795 -0.6275 -1.2503  0.4422
  179SLPC   C3520484   1.806   4.913   9.607  0.2158  0.2259  0.6447
  179SLPC   H5X20485   1.742   4.828   9.640  0.4237 -0.0119  0.4428
  179SLPC   H5Y20486   1.878   4.865   9.537  1.5470  1.0747  1.3884
  179SLPC   C3620487   1.727   5.014   9.525 -0.1504 -0.0095 -0.1447
  179SLPC   H6X20488   1.646   5.067   9.579 -0.8206 -1.7060  0.5854
  179SLPC   H6Y20489   1.677   4.959   9.443 -1.7203  3.1398 -1.4796
  179SLPC   C3720490   1.826   5.102   9.442  0.2955 -0.3463 -0.2293
  179SLPC   H7X20491   1.911   5.040   9.409  0.3124 -1.9170  2.4761
  179SLPC   H7Y20492   1.870   5.185   9.501  3.1799  0.0125 -2.6743
  179SLPC   C3820493   1.764   5.157   9.313 -0.4233 -0.7463  0.0311
  179SLPC   H8X20494   1.665   5.197   9.341  0.5626  0.5004  1.8933
  179SLPC   H8Y20495   1.732   5.065   9.259  0.3523 -0.6370 -0.6349
  179SLPC   C3920496   1.850   5.261   9.246 -0.2602  0.7267  0.6727
  179SLPC   H9X20497   1.934   5.204   9.200 -0.1084 -0.5830  2.4476
  179SLPC   H9Y20498   1.891   5.347   9.302 -0.0338  2.1196 -1.5300
  179SLPC  C31020499   1.773   5.338   9.132 -1.4648 -0.1154  0.4697
  179SLPC  H10X20500   1.702   5.416   9.167 -1.4302  2.3876 -4.1803
  179SLPC  H10Y20501   1.720   5.261   9.072  1.4303 -1.5954 -0.3973
  179SLPC  C31120502   1.863   5.408   9.028  0.7367  0.2052  0.0428
  179SLPC  H11X20503   1.946   5.344   8.991  1.7850  0.8664  1.1700
  179SLPC  H11Y20504   1.920   5.498   9.062  1.3774 -0.0954 -0.2073
  179SLPC  C31220505   1.774   5.451   8.905  0.5542 -0.1584  0.3518
  179SLPC  H12X20506   1.835   5.525   8.850 -0.1906  0.1874 -0.0190
  179SLPC  H12Y20507   1.681   5.508   8.925  0.0815  0.0445 -2.1053
  179SLPC  C31320508   1.747   5.339   8.806  0.5345 -0.5854  0.2373
  179SLPC  H13X20509   1.686   5.258   8.851 -0.7763 -0.3053 -0.9684
  179SLPC  H13Y20510   1.832   5.286   8.757  0.0669 -2.1520  1.0381
  179SLPC  C31420511   1.664   5.388   8.689  0.0537  0.0969 -0.0067
  179SLPC  H14X20512   1.671   5.311   8.609  0.9168  0.4238 -0.2498
  179SLPC  H14Y20513   1.722   5.476   8.655 -2.2249  2.4401  1.7559
  179SLPC  C31520514   1.518   5.438   8.711  0.4962 -0.2899  0.2409
  179SLPC  H15X20515   1.495   5.458   8.818 -2.6059  0.8420 -0.5419
  179SLPC  H15Y20516   1.451   5.351   8.691  1.4048 -1.1974  0.9820
  179SLPC  C31620517   1.487   5.557   8.627 -0.2520  0.0347 -0.3679
  179SLPC  H16X20518   1.523   5.543   8.522  0.3893  0.5330 -0.2213
  179SLPC  H16Y20519   1.552   5.643   8.654 -0.9328  0.5361 -0.2997
  179SLPC  C31720520   1.339   5.603   8.646 -0.0029  0.6660 -0.3155
  179SLPC  H17X20521   1.323   5.608   8.756  1.0783  1.0555 -0.1674
  179SLPC  H17Y20522   1.267   5.528   8.606 -0.8755 -0.4212  2.9756
  179SLPC  C31820523   1.314   5.742   8.596  0.2784 -0.1661  0.1014
  179SLPC  H18X20524   1.282   5.740   8.490 -3.0648 -3.6027  0.9504
  179SLPC  H18Y20525   1.411   5.795   8.608  1.1198 -1.6333  0.0213
  179SLPC  H18Z20526   1.238   5.795   8.657 -0.8348 -0.6199 -0.8526
  180SLPC     N20527   1.258   2.187  10.703  0.2501 -0.6352 -0.2635
  180SLPC   C1320528   1.360   2.292  10.706 -0.2843 -0.3676 -0.4807
  180SLPC  H13A20529   1.310   2.387  10.689 -0.4656 -0.5515 -0.9752
  180SLPC  H13B20530   1.420   2.298  10.795 -0.2662  1.4558 -0.5652
  180SLPC  H13C20531   1.428   2.284  10.622 -1.4498 -0.0401 -1.4906
  180SLPC   C1420532   1.207   2.179  10.567 -0.2250  0.3004 -0.5111
  180SLPC  H14A20533   1.165   2.273  10.535  0.7060  0.8709 -0.1004
  180SLPC  H14B20534   1.290   2.152  10.502  1.0223  1.4396  0.5387
  180SLPC  H14C20535   1.136   2.099  10.555 -0.2693  0.2775 -0.1032
  180SLPC   C1520536   1.141   2.231  10.786  0.2628 -0.1920 -0.0649
  180SLPC  H15A20537   1.177   2.222  10.887 -0.0534 -0.9857 -0.0144
  180SLPC  H15B20538   1.105   2.329  10.756 -2.3209 -0.6972  1.0709
  180SLPC  H15C20539   1.057   2.163  10.784 -1.3282  1.6361 -2.3064
  180SLPC   C1220540   1.304   2.049  10.742 -0.0670 -0.3147  0.2111
  180SLPC  H12A20541   1.330   2.040  10.846 -0.7307  1.9400  0.6141
  180SLPC  H12B20542   1.396   2.027  10.688  2.1431  2.4402  2.5197
  180SLPC   C1120543   1.199   1.936  10.712 -0.2209  1.0794  0.4563
  180SLPC  H11A20544   1.250   1.848  10.756  0.9781  1.3769 -0.2995
  180SLPC  H11B20545   1.194   1.915  10.603 -1.9127  0.6934  0.5721
  180SLPC     P20546   0.959   1.833  10.759 -0.0778 -0.2748 -0.1675
  180SLPC   O1320547   1.007   1.713  10.685 -0.4925  0.0470 -0.4215
  180SLPC   O1420548   0.900   1.807  10.893  0.1753  0.2998 -0.8821
  180SLPC   O1220549   1.070   1.949  10.775 -0.8228  0.6911  0.4514
  180SLPC   O1120550   0.840   1.891  10.672  0.0002 -0.0569 -0.6805
  180SLPC    C120551   0.809   2.032  10.648 -0.5567 -0.0579  0.0613
  180SLPC    HA20552   0.708   2.059  10.686 -1.2665  2.2240 -3.0922
  180SLPC    HB20553   0.885   2.094  10.699 -0.2349 -1.1149  0.8930
  180SLPC    C220554   0.811   2.062  10.495  0.1461 -0.7005  0.0498
  180SLPC    HS20555   0.734   1.999  10.445 -0.2112  0.0457 -0.3568
  180SLPC   O2120556   0.946   2.034  10.448  0.2911  0.3192  0.1252
  180SLPC   C2120557   0.960   1.919  10.380 -0.3198 -1.0853  0.6172
  180SLPC   O2220558   0.876   1.833  10.359  0.2619  0.0482 -0.3773
  180SLPC   C2220559   1.100   1.927  10.319  0.5050 -0.2932 -0.0181
  180SLPC   H2R20560   1.162   1.998  10.377 -1.9241  0.4948  1.7952
  180SLPC   H2S20561   1.151   1.828  10.316 -0.0368 -0.5633 -1.9085
  180SLPC    C320562   0.784   2.212  10.461 -0.1743  0.1861 -0.2759
  180SLPC    HX20563   0.848   2.274  10.528  1.9688 -0.6256 -1.4721
  180SLPC    HY20564   0.679   2.235  10.490 -0.4381 -0.7689 -0.4550
  180SLPC   O3120565   0.796   2.233  10.325 -0.4619 -0.2210  0.4853
  180SLPC   C3120566   0.894   2.300  10.283 -0.1292  0.4917  0.1845
  180SLPC   O3220567   0.964   2.364  10.352 -0.2109 -0.1893  0.4683
  180SLPC   C3220568   0.893   2.309  10.133 -0.2096  0.6845 -0.2087
  180SLPC   H2X20569   1.001   2.301  10.108 -0.2751 -0.2766 -0.2347
  180SLPC   H2Y20570   0.869   2.413  10.103 -1.3287  0.2947 -0.7111
  180SLPC   C2320571   1.102   1.989  10.181  0.5529  0.0592  0.4364
  180SLPC   H3R20572   1.050   2.087  10.187 -1.6084 -1.1144  3.6961
  180SLPC   H3S20573   1.053   1.921  10.108 -1.6901 -0.8147  2.6098
  180SLPC   C2420574   1.242   2.022  10.136 -0.0555  0.0956 -0.2897
  180SLPC   H4R20575   1.304   1.931  10.126 -1.1709 -0.6641 -0.4102
  180SLPC   H4S20576   1.287   2.093  10.209  0.3918  0.9662 -1.3783
  180SLPC   C2520577   1.248   2.093  10.003  0.3155 -0.6707  0.2390
  180SLPC   H5R20578   1.204   2.195  10.004  3.0313  0.5908  1.0460
  180SLPC   H5S20579   1.203   2.039   9.917 -0.3296 -2.6212  1.7249
  180SLPC   C2620580   1.389   2.120   9.952 -0.2586 -0.1545 -0.4456
  180SLPC   H6R20581   1.440   2.022   9.945  0.3902 -0.0360  1.7884
  180SLPC   H6S20582   1.443   2.154  10.043 -1.5942  0.5969  0.0869
  180SLPC   C2720583   1.391   2.209   9.831  0.1981  0.6196  0.6050
  180SLPC   H7R20584   1.355   2.313   9.845 -2.4872 -0.5148  3.0389
  180SLPC   H7S20585   1.335   2.153   9.754  3.3055 -0.7104 -0.8459
  180SLPC   C2820586   1.528   2.219   9.758  0.7316 -0.1047 -0.0307
  180SLPC   H8R20587   1.605   2.240   9.835  0.1031 -0.9907  0.8603
  180SLPC   H8S20588   1.519   2.305   9.688  1.3708 -1.2217 -1.5481
  180SLPC   C2920589   1.569   2.089   9.690 -0.3441 -0.4064 -0.3274
  180SLPC   H9R20590   1.610   2.007   9.751  0.9965  0.9388  0.6387
  180SLPC  C21020591   1.583   2.065   9.557 -0.5364 -0.1892 -0.3072
  180SLPC  H10R20592   1.638   1.974   9.527  0.8968 -0.2303  2.1514
  180SLPC  C21120593   1.547   2.166   9.453 -0.2573  0.3582  0.1467
  180SLPC  H11R20594   1.456   2.224   9.481  0.4645  1.1652  0.8633
  180SLPC  H11S20595   1.516   2.104   9.366 -1.0635  3.5844 -2.0659
  180SLPC  C21220596   1.646   2.283   9.418  0.2803 -0.3015  0.1434
  180SLPC  H12R20597   1.742   2.291   9.472 -0.6518  3.6944  1.6143
  180SLPC  C21320598   1.624   2.382   9.330 -0.8348  0.2106  0.5901
  180SLPC  H13R20599   1.699   2.462   9.317 -2.1634  1.2645 -1.0449
  180SLPC  C21420600   1.497   2.398   9.253  0.1477  0.3845 -0.5308
  180SLPC  H14R20601   1.475   2.505   9.235 -0.8677  0.4145  0.7332
  180SLPC  H14S20602   1.415   2.365   9.320  0.5512  2.0297  0.8436
  180SLPC  C21520603   1.490   2.311   9.124 -0.2743 -0.2808 -0.3161
  180SLPC  H15R20604   1.386   2.326   9.088 -0.4084  0.1497  0.2369
  180SLPC  H15S20605   1.504   2.202   9.144 -0.4328 -0.3385 -0.5070
  180SLPC  C21620606   1.583   2.348   9.020 -0.1106  0.1197 -0.5402
  180SLPC  H16R20607   1.688   2.325   9.047  1.0242  3.6685 -1.3977
  180SLPC  H16S20608   1.578   2.458   9.005 -0.3641  0.4291  1.5134
  180SLPC  C21720609   1.545   2.267   8.889 -0.2746  1.0570  0.2245
  180SLPC  H17R20610   1.435   2.262   8.876 -0.3825 -1.5687  1.4409
  180SLPC  H17S20611   1.584   2.164   8.905 -0.6288  0.8432 -0.2584
  180SLPC  C21820612   1.618   2.326   8.770 -0.4146 -0.0462  0.2114
  180SLPC  H18R20613   1.717   2.361   8.807 -0.9265 -0.5506  2.2138
  180SLPC  H18S20614   1.559   2.414   8.737  1.3580  1.7216  1.5083
  180SLPC  H18T20615   1.619   2.255   8.685  0.2689 -1.3633  1.2669
  180SLPC   C3320616   0.817   2.209  10.049  0.3283 -0.1182  0.2840
  180SLPC   H3X20617   0.708   2.225  10.065 -0.3123 -4.6408  1.6714
  180SLPC   H3Y20618   0.842   2.106  10.083 -0.7925 -1.0209 -1.5158
  180SLPC   C3420619   0.852   2.208   9.901 -0.7150  0.5862  0.5090
  180SLPC   H4X20620   0.764   2.173   9.842  1.2315 -1.7956 -1.1691
  180SLPC   H4Y20621   0.937   2.137   9.893  1.5383  3.0112  1.6451
  180SLPC   C3520622   0.915   2.330   9.834  0.0533  0.0300 -0.1106
  180SLPC   H5X20623   1.019   2.353   9.865 -0.3194  0.0331  1.1922
  180SLPC   H5Y20624   0.845   2.411   9.862 -2.2800 -1.0863 -2.3792
  180SLPC   C3620625   0.916   2.309   9.681 -0.0661  0.2074  0.7656
  180SLPC   H6X20626   0.924   2.407   9.629 -0.6891 -0.7209 -1.1747
  180SLPC   H6Y20627   0.819   2.274   9.641  0.6075 -1.1667  0.2674
  180SLPC   C3720628   1.028   2.223   9.618 -1.0890  0.1813 -0.3063
  180SLPC   H7X20629   1.022   2.120   9.658 -1.3426  0.3605  0.1228
  180SLPC   H7Y20630   1.125   2.260   9.657 -3.0315  2.4658  2.8639
  180SLPC   C3820631   1.030   2.218   9.459 -0.4520  0.4677 -0.4512
  180SLPC   H8X20632   1.043   2.322   9.422  0.6203  0.1809 -0.9458
  180SLPC   H8Y20633   0.935   2.173   9.426 -0.8198  0.6838  0.2897
  180SLPC   C3920634   1.149   2.136   9.405  0.9673  0.0928  0.1622
  180SLPC   H9X20635   1.184   2.065   9.484 -0.0722  1.4426  1.9254
  180SLPC   H9Y20636   1.236   2.204   9.390  2.2428 -1.4644  0.1343
  180SLPC  C31020637   1.112   2.075   9.268  0.1837  1.0342 -0.0478
  180SLPC  H10X20638   1.086   2.164   9.207  3.1959  1.0366 -1.5041
  180SLPC  H10Y20639   1.026   2.005   9.265  1.5541 -0.8269  1.5397
  180SLPC  C31120640   1.233   2.014   9.205 -0.0762 -0.7706 -0.9266
  180SLPC  H11X20641   1.259   1.916   9.249  1.9726  0.0155 -0.3069
  180SLPC  H11Y20642   1.327   2.069   9.228 -1.1189  0.8190 -0.2498
  180SLPC  C31220643   1.213   2.022   9.053  0.3695 -0.3139  0.5822
  180SLPC  H12X20644   1.220   2.129   9.024 -0.1012 -0.9468 -2.1608
  180SLPC  H12Y20645   1.110   1.984   9.036 -0.5009  0.5935  3.2197
  180SLPC  C31320646   1.325   1.951   8.973  0.4312  0.0855  0.2946
  180SLPC  H13X20647   1.319   1.843   9.001 -1.5735  0.1920  0.4189
  180SLPC  H13Y20648   1.420   1.982   9.021 -0.6895  0.7381  2.2278
  180SLPC  C31420649   1.306   1.953   8.828  0.4549  0.4808  0.5904
  180SLPC  H14X20650   1.292   2.058   8.797 -1.9522  0.1227  0.2494
  180SLPC  H14Y20651   1.215   1.892   8.808 -0.7003  1.0528  3.5085
  180SLPC  C31520652   1.422   1.901   8.740  0.1936  0.5468  0.0095
  180SLPC  H15X20653   1.442   1.802   8.787  1.2908  2.0470  2.9537
  180SLPC  H15Y20654   1.506   1.965   8.775  0.0534 -0.1126  1.6090
  180SLPC  C31620655   1.401   1.908   8.593 -0.1775  0.2697 -0.8645
  180SLPC  H16X20656   1.363   2.011   8.582 -0.7689  0.7040  3.4062
  180SLPC  H16Y20657   1.326   1.831   8.565  0.6233 -0.7029 -0.4079
  180SLPC  C31720658   1.535   1.897   8.513 -0.3294 -0.8132 -0.3892
  180SLPC  H17X20659   1.580   1.796   8.521  0.4305 -0.4914 -0.5112
  180SLPC  H17Y20660   1.622   1.948   8.560 -1.2608  0.4601  0.0164
  180SLPC  C31820661   1.518   1.934   8.367  0.3718 -1.4581  0.1520
  180SLPC  H18X20662   1.485   2.040   8.361 -0.6800 -1.8617 -2.8503
  180SLPC  H18Y20663   1.439   1.879   8.311 -1.3200 -0.0214  1.0417
  180SLPC  H18Z20664   1.608   1.913   8.306  1.1089 -0.9338  1.0361
  181SLPC     N20665   0.670   0.561  11.019  1.0509  0.1502  0.7271
  181SLPC   C1320666   0.673   0.500  11.156 -0.4104  0.3034  0.2565
  181SLPC  H13A20667   0.596   0.426  11.172  0.7793 -1.3361 -1.1693
  181SLPC  H13B20668   0.764   0.443  11.166 -0.2591  0.4871 -0.0399
  181SLPC  H13C20669   0.668   0.570  11.238  1.2411  0.0396  0.6306
  181SLPC   C1420670   0.560   0.660  11.013  0.2010  0.2163 -0.7202
  181SLPC  H14A20671   0.467   0.605  11.017  1.7737 -2.6037  1.2568
  181SLPC  H14B20672   0.571   0.717  11.104  0.1508 -1.0269  0.0831
  181SLPC  H14C20673   0.575   0.730  10.932  1.7666  1.3180  0.4612
  181SLPC   C1520674   0.632   0.445  10.927 -0.7065 -0.5484  0.6977
  181SLPC  H15A20675   0.687   0.353  10.942 -2.4949 -2.2529 -2.1976
  181SLPC  H15B20676   0.530   0.415  10.948 -0.5702 -1.9831 -0.5152
  181SLPC  H15C20677   0.624   0.464  10.821 -1.0637  0.5064  0.9076
  181SLPC   C1220678   0.798   0.625  10.995  0.5871 -0.1300  1.2210
  181SLPC  H12A20679   0.873   0.547  11.006  0.2760 -0.5724  0.3085
  181SLPC  H12B20680   0.824   0.698  11.070  0.1683  2.2460 -0.8414
  181SLPC   C1120681   0.827   0.686  10.856  0.2490  0.0752  0.1586
  181SLPC  H11A20682   0.811   0.604  10.782 -1.2622 -2.0720  2.6880
  181SLPC  H11B20683   0.931   0.723  10.866  0.7284 -0.5753 -1.9801
  181SLPC     P20684   0.764   0.938  10.883 -0.2894  0.2133 -0.2618
  181SLPC   O1320685   0.626   1.000  10.894 -0.1005  0.6378 -0.7247
  181SLPC   O1420686   0.845   0.938  11.009 -0.3928 -0.0771 -0.5945
  181SLPC   O1220687   0.741   0.794  10.827 -0.5988  0.5189 -0.0371
  181SLPC   O1120688   0.837   0.998  10.760  0.1149 -0.0716  0.4966
  181SLPC    C120689   0.846   0.957  10.623 -0.8827  0.5127 -0.6478
  181SLPC    HA20690   0.948   0.983  10.587  0.0135 -1.7354  0.0763
  181SLPC    HB20691   0.833   0.850  10.600  0.6464  0.3651 -0.9497
  181SLPC    C220692   0.748   1.037  10.538 -0.0908  0.0392 -0.3846
  181SLPC    HS20693   0.641   1.023  10.564  0.0234 -1.2647 -0.5559
  181SLPC   O2120694   0.763   1.009  10.400  0.2745  0.3694  0.1524
  181SLPC   C2120695   0.656   1.006  10.324 -0.0824 -0.3599  0.5441
  181SLPC   O2220696   0.540   1.012  10.358  0.7368 -0.1532 -0.2591
  181SLPC   C2220697   0.706   0.980  10.186 -0.3693 -0.7063  0.4016
  181SLPC   H2R20698   0.636   1.041  10.125 -1.5183 -0.6891  1.6675
  181SLPC   H2S20699   0.803   1.031  10.173 -0.7556 -0.1188 -0.1996
  181SLPC    C320700   0.783   1.191  10.562 -0.3229 -0.3491  0.5348
  181SLPC    HX20701   0.891   1.218  10.561 -0.7971  1.9196  2.3243
  181SLPC    HY20702   0.748   1.211  10.666  0.9297  1.1252  0.7066
  181SLPC   O3120703   0.711   1.279  10.471 -0.1101  0.3418  0.7753
  181SLPC   C3120704   0.772   1.303  10.360 -0.4816 -0.6508 -0.1283
  181SLPC   O3220705   0.877   1.255  10.317 -0.2466  0.6752  0.2238
  181SLPC   C3220706   0.677   1.396  10.293 -0.3580 -0.1655 -0.2892
  181SLPC   H2X20707   0.674   1.484  10.360 -2.3304 -0.6793  0.3595
  181SLPC   H2Y20708   0.571   1.364  10.304 -0.0026 -1.3744 -0.1851
  181SLPC   C2320709   0.725   0.832  10.130  0.0061  0.5167 -0.1579
  181SLPC   H3R20710   0.646   0.759  10.154  0.5899  0.4355  1.6218
  181SLPC   H3S20711   0.815   0.791  10.180  0.1927  0.4444 -0.5510
  181SLPC   C2420712   0.748   0.824   9.973 -0.0398  0.9915 -0.5924
  181SLPC   H4R20713   0.792   0.729   9.934 -0.6667  0.6856 -0.5658
  181SLPC   H4S20714   0.810   0.907   9.932  1.9057  0.2190  0.6724
  181SLPC   C2520715   0.616   0.804   9.906 -0.2508  0.4187 -0.0465
  181SLPC   H5R20716   0.541   0.872   9.952 -2.0508 -0.8611 -1.0198
  181SLPC   H5S20717   0.576   0.701   9.917  0.9882 -0.2267 -1.2538
  181SLPC   C2620718   0.632   0.838   9.754  0.0788 -0.0420 -0.0153
  181SLPC   H6R20719   0.701   0.763   9.709  2.1928 -1.5437  5.0320
  181SLPC   H6S20720   0.685   0.936   9.748  2.7563 -1.4212 -0.7008
  181SLPC   C2720721   0.488   0.850   9.697 -0.7608  0.4779  0.3309
  181SLPC   H7R20722   0.426   0.931   9.741 -0.8816 -0.3037  1.6314
  181SLPC   H7S20723   0.434   0.753   9.704 -0.2056  0.1362 -0.0244
  181SLPC   C2820724   0.499   0.886   9.552  0.2996  0.8213 -0.0611
  181SLPC   H8R20725   0.582   0.826   9.509 -0.4845 -0.0960 -0.3361
  181SLPC   H8S20726   0.544   0.988   9.548  0.4711  0.6997 -2.7470
  181SLPC   C2920727   0.369   0.879   9.477 -0.4745 -0.2866  0.1474
  181SLPC   H9R20728   0.293   0.944   9.522  1.1625  1.4350  0.5728
  181SLPC  C21020729   0.356   0.819   9.357  0.3508  0.4629 -0.4710
  181SLPC  H10R20730   0.256   0.806   9.314  0.4610 -0.3620 -0.4950
  181SLPC  C21120731   0.464   0.737   9.286  0.5351 -0.5165  0.4850
  181SLPC  H11R20732   0.564   0.760   9.329  0.5204 -1.6361  1.1660
  181SLPC  H11S20733   0.486   0.780   9.186  0.7045  2.3334  1.6589
  181SLPC  C21220734   0.427   0.590   9.290 -0.7315 -0.4565 -0.4169
  181SLPC  H12R20735   0.477   0.526   9.365  0.7894  0.8012 -0.3262
  181SLPC  C21320736   0.344   0.521   9.213  0.9010  0.1635  0.4160
  181SLPC  H13R20737   0.339   0.412   9.226  3.2696 -0.8094 -4.3147
  181SLPC  C21420738   0.259   0.579   9.099  0.1413 -0.3463 -0.1245
  181SLPC  H14R20739   0.314   0.571   9.003 -1.2194  2.3679 -1.2491
  181SLPC  H14S20740   0.257   0.689   9.118  0.3588 -0.5145  0.9331
  181SLPC  C21520741   0.115   0.535   9.075 -0.3836 -0.0310  0.7044
  181SLPC  H15R20742   0.073   0.582   8.983 -0.4784 -0.3373  0.5869
  181SLPC  H15S20743   0.047   0.560   9.159 -0.6361 -0.1386  0.5350
  181SLPC  C21620744   0.109   0.380   9.056 -0.0317  0.2444  0.5313
  181SLPC  H16R20745   0.085   0.338   9.156  0.8259  0.4970  0.8592
  181SLPC  H16S20746   0.214   0.345   9.042  0.1727  0.3971  1.5413
  181SLPC  C21720747   0.018   0.334   8.943  0.2125  0.0958  0.3195
  181SLPC  H17R20748  -0.081   0.381   8.964  0.1762 -0.5226  1.6387
  181SLPC  H17S20749  -0.012   0.228   8.954 -0.1481  0.2066  0.4462
  181SLPC  C21820750   0.071   0.361   8.806 -0.0247 -0.2359 -0.1341
  181SLPC  H18R20751  -0.010   0.371   8.730  1.7314  0.8989 -1.9522
  181SLPC  H18S20752   0.134   0.280   8.764  0.7470  0.9578 -1.3513
  181SLPC  H18T20753   0.134   0.452   8.810 -1.2037  0.6362 -0.8267
  181SLPC   C3320754   0.707   1.434  10.144  0.1632  0.3498 -0.0878
  181SLPC   H3X20755   0.812   1.471  10.135  0.2028  0.1985 -0.2571
  181SLPC   H3Y20756   0.646   1.522  10.112 -0.2092  0.6013  1.2558
  181SLPC   C3420757   0.681   1.316  10.055 -0.3745 -0.0651  0.9751
  181SLPC   H4X20758   0.576   1.285  10.074 -0.7029  0.5145  0.1468
  181SLPC   H4Y20759   0.742   1.232  10.094  0.3353  0.3750  0.8202
  181SLPC   C3520760   0.698   1.337   9.902 -0.3456 -0.4069 -0.8850
  181SLPC   H5X20761   0.659   1.438   9.876  0.1353 -0.4834 -1.9410
  181SLPC   H5Y20762   0.637   1.263   9.847 -1.4832 -0.0040 -0.1942
  181SLPC   C3620763   0.843   1.335   9.866  0.2298  0.0279 -0.2080
  181SLPC   H6X20764   0.864   1.226   9.875 -0.9640 -0.3296 -1.3592
  181SLPC   H6Y20765   0.910   1.384   9.938  1.8718 -0.8686 -1.0656
  181SLPC   C3720766   0.866   1.388   9.724  0.8732 -0.6819  0.0633
  181SLPC   H7X20767   0.968   1.358   9.690  0.1828 -3.1768  0.0419
  181SLPC   H7Y20768   0.859   1.499   9.716 -0.0367 -0.6553  1.0333
  181SLPC   C3820769   0.769   1.331   9.620  0.5358 -0.1361 -0.5181
  181SLPC   H8X20770   0.664   1.357   9.644  1.1829  2.6229 -0.3377
  181SLPC   H8Y20771   0.769   1.221   9.633  1.0097 -0.6395 -3.8820
  181SLPC   C3920772   0.809   1.363   9.479 -0.0443  1.3398  0.4294
  181SLPC   H9X20773   0.918   1.346   9.465 -0.2060  0.3315  0.3506
  181SLPC   H9Y20774   0.776   1.466   9.452  0.6994  2.0394  2.0789
  181SLPC  C31020775   0.744   1.260   9.383  0.0378  0.1108 -0.6781
  181SLPC  H10X20776   0.635   1.269   9.367  0.0772 -1.3406 -1.9679
  181SLPC  H10Y20777   0.767   1.158   9.420  3.6169  1.4473  1.3508
  181SLPC  C31120778   0.817   1.264   9.249 -0.1855 -0.3372 -0.1164
  181SLPC  H11X20779   0.925   1.266   9.273  0.2376 -0.2707 -1.9109
  181SLPC  H11Y20780   0.799   1.361   9.199  3.9399  0.8763  0.3686
  181SLPC  C31220781   0.793   1.148   9.154 -0.4619 -0.6185 -0.4092
  181SLPC  H12X20782   0.833   1.052   9.193 -0.0466 -0.5591 -0.6828
  181SLPC  H12Y20783   0.854   1.172   9.064  1.5239  1.5278  1.3781
  181SLPC  C31320784   0.652   1.141   9.110  0.0901  0.5152  0.0825
  181SLPC  H13X20785   0.638   1.234   9.051  3.9789  1.4702  0.3942
  181SLPC  H13Y20786   0.576   1.140   9.192  0.0323  2.3400  0.1066
  181SLPC  C31420787   0.637   1.019   9.019  0.0846 -0.0708  0.4915
  181SLPC  H14X20788   0.642   0.930   9.085  0.2984 -0.7114 -0.3692
  181SLPC  H14Y20789   0.725   1.008   8.952 -0.0295  1.2086  0.1126
  181SLPC  C31520790   0.514   1.020   8.927 -0.1162 -0.4088 -0.1271
  181SLPC  H15X20791   0.523   1.103   8.854  0.6866  0.5486  1.0107
  181SLPC  H15Y20792   0.423   1.045   8.986 -0.2949 -1.2078 -0.0498
  181SLPC  C31620793   0.486   0.890   8.847 -0.3350 -0.0383 -0.1788
  181SLPC  H16X20794   0.515   0.799   8.903 -1.6074 -0.0738  0.4574
  181SLPC  H16Y20795   0.543   0.895   8.751  0.4128 -0.1881  0.2544
  181SLPC  C31720796   0.340   0.884   8.806 -0.2128 -0.3754  0.0549
  181SLPC  H17X20797   0.323   0.982   8.757  1.5653 -1.1401 -2.2661
  181SLPC  H17Y20798   0.274   0.889   8.895 -2.4214  0.5519 -1.5375
  181SLPC  C31820799   0.305   0.770   8.712 -0.3518 -0.3254  0.0599
  181SLPC  H18X20800   0.194   0.770   8.703 -0.4172  0.1244  0.8245
  181SLPC  H18Y20801   0.330   0.675   8.764 -2.1603 -0.8333  0.0951
  181SLPC  H18Z20802   0.354   0.775   8.612  0.3404 -0.4962  0.3844
  182SLPC     N20803   4.107   1.576  11.038 -0.0167 -0.4535 -0.2504
  182SLPC   C1320804   4.072   1.479  11.154 -0.3527 -0.1998  0.5171
  182SLPC  H13A20805   3.985   1.421  11.128  0.3436 -0.7937 -0.5534
  182SLPC  H13B20806   4.160   1.418  11.168  0.5058  0.4762 -1.5141
  182SLPC  H13C20807   4.060   1.534  11.246  0.3856 -0.8230  0.9928
  182SLPC   C1420808   4.226   1.660  11.086 -0.3017  0.3398  0.5221
  182SLPC  H14A20809   4.311   1.601  11.117 -0.5322 -1.3104 -1.7661
  182SLPC  H14B20810   4.262   1.708  10.996  0.1821  0.5382  0.8134
  182SLPC  H14C20811   4.212   1.742  11.156 -2.0531  0.6647 -0.1611
  182SLPC   C1520812   3.985   1.667  11.024 -0.2883  0.0455  0.3437
  182SLPC  H15A20813   3.961   1.723  11.113  3.9856  2.5610  0.2061
  182SLPC  H15B20814   4.010   1.741  10.950 -2.0207 -0.5555 -0.9128
  182SLPC  H15C20815   3.898   1.613  10.991 -0.5053 -1.5810  3.2009
  182SLPC   C1220816   4.129   1.500  10.909 -0.2410 -0.5758  0.0862
  182SLPC  H12A20817   4.039   1.448  10.879 -1.9276  2.4494 -0.5858
  182SLPC  H12B20818   4.206   1.426  10.922  0.7895  0.3728 -0.4204
  182SLPC   C1120819   4.179   1.577  10.782 -0.0978 -0.0130 -0.1296
  182SLPC  H11A20820   4.184   1.508  10.695  0.5994 -0.3986  0.2059
  182SLPC  H11B20821   4.281   1.608  10.812 -0.6993  0.6880  1.3080
  182SLPC     P20822   4.141   1.812  10.675  0.1072 -0.1108  0.4592
  182SLPC   O1320823   4.012   1.884  10.639  0.4272 -0.6115 -0.2631
  182SLPC   O1420824   4.231   1.882  10.769  0.8164  0.4893  0.1619
  182SLPC   O1220825   4.091   1.681  10.753  0.6469 -0.3679 -0.0950
  182SLPC   O1120826   4.216   1.746  10.554  0.3380 -0.4404 -0.2416
  182SLPC    C120827   4.140   1.665  10.457 -0.4129 -0.3620  0.3364
  182SLPC    HA20828   4.203   1.583  10.419  0.9916  0.3622  1.0282
  182SLPC    HB20829   4.040   1.625  10.484 -2.7223  2.5324 -2.9632
  182SLPC    C220830   4.110   1.756  10.341  0.3964  0.3400  0.6272
  182SLPC    HS20831   4.107   1.692  10.250  0.3887 -1.0665  1.5782
  182SLPC   O2120832   4.205   1.857  10.325  0.1011  0.1985 -0.2047
  182SLPC   C2120833   4.313   1.816  10.267  0.1264  0.5230 -0.1249
  182SLPC   O2220834   4.325   1.706  10.218  0.6796  0.3043 -0.1474
  182SLPC   C2220835   4.415   1.930  10.257  0.2323 -0.7029 -0.4378
  182SLPC   H2R20836   4.412   1.982  10.355  0.7021  0.8409 -1.2243
  182SLPC   H2S20837   4.520   1.894  10.251  0.2949 -1.2379  2.1989
  182SLPC    C320838   3.967   1.822  10.346  1.2856 -0.1622 -0.5681
  182SLPC    HX20839   3.971   1.910  10.415  0.0164  1.5024 -2.5186
  182SLPC    HY20840   3.904   1.748  10.399  1.4581  1.4374  2.0530
  182SLPC   O3120841   3.933   1.845  10.208 -0.3544  0.1567  0.5079
  182SLPC   C3120842   3.941   1.964  10.155  0.6557 -0.3837 -0.2117
  182SLPC   O3220843   3.956   2.068  10.212 -0.1638  0.3836 -0.6335
  182SLPC   C3220844   3.923   1.957  10.004 -0.3541  0.0629  0.0644
  182SLPC   H2X20845   3.919   2.059   9.961 -0.1553 -1.3633 -3.7715
  182SLPC   H2Y20846   3.832   1.897   9.982  0.7100 -1.2640 -0.8828
  182SLPC   C2320847   4.378   2.030  10.145 -0.6601  0.7488 -0.1110
  182SLPC   H3R20848   4.422   2.129  10.171  0.9364 -0.1146  0.6249
  182SLPC   H3S20849   4.268   2.031  10.127 -0.8869 -3.8171 -0.1160
  182SLPC   C2420850   4.428   1.978  10.012 -0.6610  0.7727 -0.3617
  182SLPC   H4R20851   4.373   1.883   9.991 -0.3792 -0.3001  3.1527
  182SLPC   H4S20852   4.539   1.973  10.017 -0.7205 -0.5247  0.0410
  182SLPC   C2520853   4.400   2.086   9.901  0.5929  0.2085  0.2111
  182SLPC   H5R20854   4.447   2.181   9.936  0.3542  1.1862 -1.9441
  182SLPC   H5S20855   4.293   2.111   9.888  0.5994 -0.1879 -0.6313
  182SLPC   C2620856   4.457   2.055   9.762  0.3400 -0.9125 -0.3152
  182SLPC   H6R20857   4.566   2.040   9.774  0.6701  1.2572 -0.0624
  182SLPC   H6S20858   4.457   2.140   9.690  1.3176 -1.1610 -0.6104
  182SLPC   C2720859   4.381   1.950   9.689  0.6262  0.3872  0.5494
  182SLPC   H7R20860   4.288   1.999   9.652  1.2283  0.7678 -0.4967
  182SLPC   H7S20861   4.346   1.863   9.749 -2.8046  1.3121  0.1215
  182SLPC   C2820862   4.455   1.902   9.558  0.0988 -0.3754 -0.1712
  182SLPC   H8R20863   4.540   1.847   9.606  0.4569 -1.3914 -1.8812
  182SLPC   H8S20864   4.491   1.996   9.512 -0.8090  0.0038 -0.1139
  182SLPC   C2920865   4.368   1.811   9.474 -0.3216  0.1195  0.0249
  182SLPC   H9R20866   4.372   1.703   9.495 -1.8031 -0.9512 -4.2006
  182SLPC  C21020867   4.289   1.846   9.376  0.3689  0.0653  0.1853
  182SLPC  H10R20868   4.235   1.771   9.318 -0.6221 -1.6509  3.1000
  182SLPC  C21120869   4.262   1.989   9.332 -1.0151 -0.7920 -0.5507
  182SLPC  H11R20870   4.351   2.050   9.357 -1.8679 -0.2026  1.2162
  182SLPC  H11S20871   4.179   2.022   9.399  1.0919  2.7563  0.5601
  182SLPC  C21220872   4.216   2.008   9.189  0.0631  0.4694 -0.9978
  182SLPC  H12R20873   4.123   2.066   9.187 -0.7126 -0.7778 -1.8137
  182SLPC  C21320874   4.257   1.953   9.075 -0.2864 -0.4434 -0.3565
  182SLPC  H13R20875   4.197   1.964   8.984  0.7019 -1.7003 -1.1914
  182SLPC  C21420876   4.373   1.851   9.066 -0.2843 -0.9185  0.3635
  182SLPC  H14R20877   4.338   1.751   9.030  1.1541 -1.6503  0.8955
  182SLPC  H14S20878   4.438   1.840   9.155  0.7419 -0.3510 -0.2932
  182SLPC  C21520879   4.463   1.892   8.942  0.0629  0.3716 -0.0501
  182SLPC  H15R20880   4.513   1.987   8.971 -1.1761  1.1300 -0.2876
  182SLPC  H15S20881   4.394   1.914   8.857 -0.3710  1.2309  0.5151
  182SLPC  C21620882   4.564   1.793   8.895 -0.7390  0.2900 -0.2999
  182SLPC  H16R20883   4.506   1.719   8.836 -1.1536  0.3689 -0.0021
  182SLPC  H16S20884   4.615   1.744   8.980 -0.9595  0.8823  0.1815
  182SLPC  C21720885   4.688   1.862   8.819  0.3277  0.3032  0.2544
  182SLPC  H17R20886   4.749   1.918   8.894 -0.5868 -1.1854  2.2054
  182SLPC  H17S20887   4.638   1.925   8.743 -0.8763 -0.1804  0.6268
  182SLPC  C21820888   4.782   1.754   8.750  0.0008 -0.2117  0.0171
  182SLPC  H18R20889   4.828   1.679   8.817  3.2285 -0.3429 -2.1391
  182SLPC  H18S20890   4.857   1.814   8.695 -0.3195 -1.9469 -2.4463
  182SLPC  H18T20891   4.731   1.700   8.667  0.3200 -0.9488  0.2936
  182SLPC   C3320892   4.031   1.872   9.942  0.2646 -0.3356 -0.5225
  182SLPC   H3X20893   4.011   1.765   9.960  1.5875 -0.6663 -0.8486
  182SLPC   H3Y20894   4.129   1.886   9.994 -0.7196  0.1428  1.2720
  182SLPC   C3420895   4.061   1.910   9.792  0.0561  0.0114  0.7254
  182SLPC   H4X20896   4.132   1.836   9.749 -0.2897  0.2891 -0.3610
  182SLPC   H4Y20897   4.107   2.012   9.796  3.3119 -1.2487 -0.6788
  182SLPC   C3520898   3.934   1.906   9.703  0.0862  0.0725 -0.1292
  182SLPC   H5X20899   3.859   1.978   9.743  1.4685  0.0170  2.8069
  182SLPC   H5Y20900   3.893   1.804   9.717 -0.7423  0.0607 -2.2584
  182SLPC   C3620901   3.963   1.936   9.559  0.7877  0.1506  0.1225
  182SLPC   H6X20902   4.048   1.866   9.542  0.9424  0.1026  1.0737
  182SLPC   H6Y20903   4.003   2.039   9.544  1.9023 -0.5883 -2.6311
  182SLPC   C3720904   3.852   1.899   9.459 -0.3995  0.6727 -0.0807
  182SLPC   H7X20905   3.760   1.951   9.495 -0.4874  2.0010 -2.0571
  182SLPC   H7Y20906   3.841   1.788   9.457  0.6848  0.5226 -3.4065
  182SLPC   C3820907   3.875   1.936   9.312  0.0476  0.2442 -0.2787
  182SLPC   H8X20908   3.956   1.864   9.284  0.0521  0.5121 -0.9644
  182SLPC   H8Y20909   3.902   2.043   9.305  0.5444  0.2485  1.2249
  182SLPC   C3920910   3.753   1.916   9.228  0.2635 -0.3553 -0.0160
  182SLPC   H9X20911   3.669   1.959   9.287 -0.0190  1.8387 -1.8571
  182SLPC   H9Y20912   3.731   1.809   9.211 -2.4980  0.4699 -2.4772
  182SLPC  C31020913   3.757   1.976   9.083  0.1922 -0.4182  0.4927
  182SLPC  H10X20914   3.749   2.086   9.090 -1.3342 -0.4373 -0.4043
  182SLPC  H10Y20915   3.665   1.940   9.031  0.9986  0.4612 -1.6309
  182SLPC  C31120916   3.881   1.939   8.998 -0.2576 -0.2189 -0.2374
  182SLPC  H11X20917   3.888   1.830   8.979 -1.8981 -0.7182  1.6967
  182SLPC  H11Y20918   3.975   1.969   9.050 -0.1092 -0.6974 -0.2252
  182SLPC  C31220919   3.862   2.014   8.864  0.0508  0.7277 -0.0997
  182SLPC  H12X20920   3.828   2.119   8.875 -2.6220 -0.2121  1.6391
  182SLPC  H12Y20921   3.784   1.955   8.811  1.6971 -0.2707 -1.5361
  182SLPC  C31320922   3.986   2.009   8.778  0.4072  0.1525  0.2956
  182SLPC  H13X20923   4.013   1.902   8.768 -0.2808 -0.1753  1.7920
  182SLPC  H13Y20924   4.072   2.062   8.824  0.3434 -1.1219  1.9747
  182SLPC  C31420925   3.975   2.064   8.633 -0.6303  0.6318  0.5958
  182SLPC  H14X20926   4.072   2.065   8.579  0.0921 -0.7005  1.7831
  182SLPC  H14Y20927   3.939   2.169   8.626  0.3535  0.9974  0.8703
  182SLPC  C31520928   3.893   1.972   8.546  0.1185 -0.0675 -0.1350
  182SLPC  H15X20929   3.790   1.959   8.588  0.2118  3.2996  1.5181
  182SLPC  H15Y20930   3.956   1.881   8.541 -0.8687 -0.7206 -1.2109
  182SLPC  C31620931   3.880   2.039   8.409 -0.1958  0.6499  0.9307
  182SLPC  H16X20932   3.853   1.958   8.338  2.0405  1.1574 -0.5893
  182SLPC  H16Y20933   3.978   2.082   8.380  0.7419 -1.8039  0.1891
  182SLPC  C31720934   3.768   2.140   8.390  0.7984 -0.5844  0.2971
  182SLPC  H17X20935   3.798   2.234   8.441 -1.8905 -1.4430  3.8680
  182SLPC  H17Y20936   3.680   2.102   8.446 -0.3434  0.5423 -0.6864
  182SLPC  C31820937   3.711   2.158   8.250 -0.4613 -0.1021 -0.9369
  182SLPC  H18X20938   3.796   2.211   8.202 -1.7228  2.7542 -0.2648
  182SLPC  H18Y20939   3.628   2.231   8.245 -0.6868 -0.3838 -1.3238
  182SLPC  H18Z20940   3.688   2.065   8.194 -0.4746 -1.6276  1.4876
  183SLPC     N20941   1.011   0.113  10.706  0.6652 -0.0617  0.7699
  183SLPC   C1320942   1.023   0.142  10.557 -0.1023 -0.5960 -0.1680
  183SLPC  H13A20943   1.076   0.061  10.509 -1.0044 -1.0165 -0.4843
  183SLPC  H13B20944   0.929   0.165  10.508 -0.4360 -1.5455 -0.0018
  183SLPC  H13C20945   1.084   0.229  10.543  0.1200 -0.4187  1.6873
  183SLPC   C1420946   0.916   0.002  10.715  0.0132 -0.5434  0.3834
  183SLPC  H14A20947   0.882  -0.007  10.817 -1.4927  1.0119  0.0611
  183SLPC  H14B20948   0.829   0.014  10.652 -0.3714 -0.1453  0.9910
  183SLPC  H14C20949   0.970  -0.089  10.692 -2.0324 -1.5940 -0.4632
  183SLPC   C1520950   0.949   0.229  10.780 -0.0756  0.1966  0.1563
  183SLPC  H15A20951   0.859   0.253  10.725  0.1927 -0.5532 -0.6282
  183SLPC  H15B20952   0.928   0.196  10.881  0.7565  0.0913  0.3003
  183SLPC  H15C20953   0.999   0.323  10.800  0.8568 -0.3553  0.4874
  183SLPC   C1220954   1.153   0.083  10.758  0.2204  0.3870 -0.2744
  183SLPC  H12A20955   1.141   0.059  10.862  1.3469  2.9799  0.5215
  183SLPC  H12B20956   1.210   0.175  10.754 -0.9726  1.3817  2.9931
  183SLPC   C1120957   1.243  -0.019  10.683 -0.3581 -0.2212 -0.2671
  183SLPC  H11A20958   1.345  -0.032  10.723 -0.0678 -1.4555 -1.3510
  183SLPC  H11B20959   1.269   0.006  10.578  0.5605 -2.1736 -0.5491
  183SLPC     P20960   1.183  -0.245  10.808  0.3145 -0.1234 -0.0954
  183SLPC   O1320961   1.310  -0.310  10.816 -0.1189  0.1219  0.3462
  183SLPC   O1420962   1.147  -0.181  10.938  0.0018 -0.1712  0.0052
  183SLPC   O1220963   1.184  -0.147  10.685 -0.1100 -0.0737 -0.0068
  183SLPC   O1120964   1.064  -0.352  10.770 -0.4120 -0.4296  0.6370
  183SLPC    C120965   1.057  -0.411  10.639 -0.0695 -0.1772 -0.3675
  183SLPC    HA20966   1.068  -0.327  10.567  0.9021  1.7650  1.8940
  183SLPC    HB20967   1.132  -0.487  10.610  0.2986 -0.2577  0.7527
  183SLPC    C220968   0.918  -0.481  10.627  0.1859 -0.2758 -0.8188
  183SLPC    HS20969   0.916  -0.572  10.691 -0.4669  2.1631  2.9808
  183SLPC   O2120970   0.901  -0.520  10.493 -0.0503 -0.5403 -0.0329
  183SLPC   C2120971   0.791  -0.578  10.454  0.1225  0.6558 -0.0472
  183SLPC   O2220972   0.698  -0.617  10.525 -0.0739 -0.1394 -0.0227
  183SLPC   C2220973   0.801  -0.602  10.303  0.1351 -1.3421 -0.2762
  183SLPC   H2R20974   0.806  -0.501  10.257  1.1724 -0.7615  1.0519
  183SLPC   H2S20975   0.899  -0.651  10.284  1.0000 -0.0392  0.6339
  183SLPC    C320976   0.799  -0.385  10.680 -0.0612 -0.4431  0.0477
  183SLPC    HX20977   0.816  -0.355  10.786 -0.2944  1.2069 -0.3581
  183SLPC    HY20978   0.702  -0.440  10.686 -0.5102  0.3254  0.0314
  183SLPC   O3120979   0.795  -0.258  10.606  0.4724  1.2502 -0.1771
  183SLPC   C3120980   0.695  -0.247  10.519 -0.5504 -1.2277  0.0236
  183SLPC   O3220981   0.616  -0.336  10.499  0.1653  0.1998  0.2430
  183SLPC   C3220982   0.710  -0.107  10.451 -0.2159 -0.0216  0.5334
  183SLPC   H2X20983   0.809  -0.110  10.401  0.0235  2.0030  0.8007
  183SLPC   H2Y20984   0.704  -0.037  10.538  1.8737  0.2416  0.5099
  183SLPC   C2320985   0.674  -0.661  10.244 -0.0041 -0.1775  0.0686
  183SLPC   H3R20986   0.577  -0.613  10.269  0.1951  0.7126 -0.7978
  183SLPC   H3S20987   0.669  -0.770  10.266  0.2242  0.1068  1.6959
  183SLPC   C2420988   0.676  -0.658  10.091 -0.5244  0.8553  0.3893
  183SLPC   H4R20989   0.715  -0.754  10.051 -0.3183  1.2307 -0.3345
  183SLPC   H4S20990   0.750  -0.579  10.068 -1.3772  1.5040 -0.1887
  183SLPC   C2520991   0.552  -0.616  10.019  0.4380 -0.4630  0.4830
  183SLPC   H5R20992   0.581  -0.613   9.912 -1.2865 -1.3483 -0.0534
  183SLPC   H5S20993   0.524  -0.512  10.046  1.7794 -0.1912  0.9100
  183SLPC   C2620994   0.427  -0.710  10.035 -0.1943 -0.3884  0.1826
  183SLPC   H6R20995   0.387  -0.688  10.136  3.9898 -1.3321  2.2514
  183SLPC   H6S20996   0.460  -0.815  10.025 -4.5194 -1.9140 -0.3466
  183SLPC   C2720997   0.321  -0.674   9.919  0.2167 -0.4095 -0.3069
  183SLPC   H7R20998   0.330  -0.564   9.911 -0.9867 -0.0339  2.3773
  183SLPC   H7S20999   0.221  -0.705   9.958 -0.6942  1.2158 -1.2708
  183SLPC   C2821000   0.360  -0.738   9.783 -0.2898 -0.1617 -0.4364
  183SLPC   H8R21001   0.378  -0.846   9.801  1.8332  0.0249 -1.2022
  183SLPC   H8S21002   0.462  -0.719   9.743 -0.2932 -1.3724 -1.0675
  183SLPC   C2921003   0.264  -0.695   9.677  0.0062 -0.4932 -0.1992
  183SLPC   H9R21004   0.214  -0.598   9.686 -2.5203 -1.5239 -1.8647
  183SLPC  C21021005   0.210  -0.778   9.578 -0.0215 -0.8337  0.2012
  183SLPC  H10R21006   0.128  -0.742   9.515 -0.7646 -0.4654  1.3500
  183SLPC  C21121007   0.237  -0.925   9.552  0.1135 -0.6432 -0.1417
  183SLPC  H11R21008   0.148  -0.978   9.592  0.1689  1.6521  3.5102
  183SLPC  H11S21009   0.323  -0.961   9.613 -0.3083 -1.2179  0.1279
  183SLPC  C21221010   0.252  -0.961   9.409 -0.1366  0.5826  0.8473
  183SLPC  H12R21011   0.353  -0.942   9.369 -0.2121 -2.5210 -1.1041
  183SLPC  C21321012   0.158  -0.996   9.320 -0.3223 -0.2574 -0.6469
  183SLPC  H13R21013   0.195  -1.021   9.219  1.5506 -0.3655  0.0126
  183SLPC  C21421014   0.009  -1.007   9.334 -0.1417 -0.3624 -0.9575
  183SLPC  H14R21015  -0.041  -0.925   9.277  1.2081  0.1754 -1.4060
  183SLPC  H14S21016  -0.025  -1.012   9.439 -1.0933 -3.1473 -1.3073
  183SLPC  C21521017  -0.037  -1.140   9.277 -0.2522 -0.4088 -0.7923
  183SLPC  H15R21018  -0.134  -1.161   9.327  0.3196 -0.5713  0.2989
  183SLPC  H15S21019   0.033  -1.213   9.324 -1.3097 -0.2027  1.2215
  183SLPC  C21621020  -0.036  -1.150   9.126  0.4004  1.0086  0.5267
  183SLPC  H16R21021  -0.076  -1.249   9.096 -0.7672  1.1496  1.5159
  183SLPC  H16S21022   0.068  -1.136   9.092 -0.7383  0.7070 -3.5953
  183SLPC  C21721023  -0.110  -1.039   9.049 -0.1033  0.0779 -0.5348
  183SLPC  H17R21024  -0.049  -0.946   9.060 -1.1456  0.9414 -1.8066
  183SLPC  H17S21025  -0.213  -1.017   9.084  0.1032  0.8092 -0.3556
  183SLPC  C21821026  -0.115  -1.079   8.901  0.5750  0.4974 -0.9301
  183SLPC  H18R21027  -0.177  -1.168   8.876 -0.0520  0.6249  0.1238
  183SLPC  H18S21028  -0.015  -1.110   8.865  0.8667 -1.6517  1.4610
  183SLPC  H18T21029  -0.153  -0.996   8.838 -1.4221  1.3674  1.2616
  183SLPC   C3321030   0.598  -0.077  10.339  0.5307  0.0382  0.5229
  183SLPC   H3X21031   0.494  -0.098  10.373  0.1124 -0.1634 -0.7996
  183SLPC   H3Y21032   0.623  -0.132  10.246  1.0325 -0.6815  1.0771
  183SLPC   C3421033   0.604   0.074  10.305  0.6679 -0.7372 -0.5199
  183SLPC   H4X21034   0.705   0.095  10.263 -0.3189  0.4541 -2.4468
  183SLPC   H4Y21035   0.592   0.134  10.398  1.7651 -0.8228 -0.3088
  183SLPC   C3521036   0.496   0.116  10.190 -0.7882  0.5946 -0.6634
  183SLPC   H5X21037   0.496   0.227  10.189  0.1323  0.6173 -0.0066
  183SLPC   H5Y21038   0.402   0.077  10.235  0.5565 -2.2184 -0.0633
  183SLPC   C3621039   0.519   0.069  10.046  0.3863  0.9981  0.1185
  183SLPC   H6X21040   0.498  -0.040  10.036  0.7174  1.1318 -3.0855
  183SLPC   H6Y21041   0.620   0.097  10.009  0.1416  2.0493  0.2171
  183SLPC   C3721042   0.407   0.126   9.943 -0.1549 -0.8422  0.5235
  183SLPC   H7X21043   0.411   0.237   9.938  2.4145 -0.7680  2.3121
  183SLPC   H7Y21044   0.315   0.098   9.998 -0.2261  1.7797  1.8939
  183SLPC   C3821045   0.414   0.065   9.798  0.0151 -0.2421  0.2628
  183SLPC   H8X21046   0.390  -0.043   9.806 -0.3881 -0.1219  0.7184
  183SLPC   H8Y21047   0.512   0.073   9.746  0.5470 -0.6107  1.1759
  183SLPC   C3921048   0.315   0.127   9.699 -0.4334 -1.0072  0.0595
  183SLPC   H9X21049   0.319   0.237   9.714 -0.8153 -0.6729 -1.9158
  183SLPC   H9Y21050   0.214   0.097   9.732 -0.0506 -0.7970  1.4902
  183SLPC  C31021051   0.343   0.087   9.555 -0.2105 -0.3750  0.2188
  183SLPC  H10X21052   0.348  -0.023   9.546  2.3334 -0.2791 -0.3356
  183SLPC  H10Y21053   0.443   0.133   9.541 -0.7313  1.6381  2.3457
  183SLPC  C31121054   0.245   0.158   9.458 -0.3546 -0.2593  0.0451
  183SLPC  H11X21055   0.250   0.267   9.480 -0.7491  0.0164 -1.1435
  183SLPC  H11Y21056   0.142   0.123   9.483 -0.4749 -0.1891 -0.3333
  183SLPC  C31221057   0.279   0.141   9.314  0.5193 -0.2274  0.6106
  183SLPC  H12X21058   0.384   0.170   9.295  0.1313 -0.3629 -2.2065
  183SLPC  H12Y21059   0.209   0.210   9.261  1.8032  0.1494 -0.6442
  183SLPC  C31321060   0.249  -0.003   9.260 -0.8364 -0.5992  0.2583
  183SLPC  H13X21061   0.140  -0.022   9.272 -0.3886 -2.2357  2.2687
  183SLPC  H13Y21062   0.297  -0.069   9.336 -0.2223  0.8831  1.1854
  183SLPC  C31421063   0.287  -0.015   9.115 -0.0846 -0.1233  0.5547
  183SLPC  H14X21064   0.392   0.018   9.098 -0.3970  0.6378  0.0352
  183SLPC  H14Y21065   0.217   0.042   9.051 -0.1512 -0.3916  0.3880
  183SLPC  C31521066   0.277  -0.162   9.067 -0.0069  0.3695 -0.6808
  183SLPC  H15X21067   0.173  -0.200   9.079  0.9268 -1.7891  1.4492
  183SLPC  H15Y21068   0.333  -0.230   9.134  0.3121 -1.1420 -2.4107
  183SLPC  C31621069   0.331  -0.188   8.926  0.2747 -0.1710 -0.3507
  183SLPC  H16X21070   0.442  -0.191   8.927  0.2859 -1.6202 -2.0131
  183SLPC  H16Y21071   0.289  -0.104   8.866 -0.0039 -0.0306  0.0290
  183SLPC  C31721072   0.268  -0.316   8.869 -0.3544  0.1782  0.3289
  183SLPC  H17X21073   0.161  -0.301   8.841 -0.4187  0.6656  0.8229
  183SLPC  H17Y21074   0.286  -0.389   8.950  1.1163  1.0535  0.8334
  183SLPC  C31821075   0.345  -0.370   8.752 -0.0776  0.1038  0.0103
  183SLPC  H18X21076   0.441  -0.415   8.787 -0.6943 -1.4092 -0.1738
  183SLPC  H18Y21077   0.361  -0.292   8.675 -0.5227 -0.9432 -1.1591
  183SLPC  H18Z21078   0.283  -0.453   8.713  0.7412 -0.6090  0.1808
  184SLPC     N21079   0.999   6.287  11.087 -0.7141 -0.5561 -0.4118
  184SLPC   C1321080   1.058   6.424  11.123 -0.1577 -0.3619 -0.0109
  184SLPC  H13A21081   1.041   6.497  11.045 -2.9058 -0.1716  0.6426
  184SLPC  H13B21082   1.013   6.459  11.215  1.0155  3.0281 -0.5740
  184SLPC  H13C21083   1.165   6.417  11.128  0.0858  1.0317 -2.1143
  184SLPC   C1421084   0.870   6.315  11.026  0.8646 -0.3133  0.4096
  184SLPC  H14A21085   0.872   6.377  10.938 -1.3718 -1.1873 -0.3334
  184SLPC  H14B21086   0.817   6.230  10.987  0.3064  0.5733 -0.8172
  184SLPC  H14C21087   0.796   6.364  11.088 -0.2952 -1.1894 -0.2416
  184SLPC   C1521088   0.982   6.198  11.208  0.6733  0.4495  0.4616
  184SLPC  H15A21089   0.934   6.262  11.281 -0.3951 -0.1773  0.3369
  184SLPC  H15B21090   0.909   6.119  11.199  0.2945  0.9716 -1.3622
  184SLPC  H15C21091   1.075   6.160  11.248 -0.0262  0.6884  2.4447
  184SLPC   C1221092   1.094   6.220  10.994 -0.2674  0.1299 -0.0525
  184SLPC  H12A21093   1.193   6.209  11.034  1.5308  1.1792 -3.7757
  184SLPC  H12B21094   1.113   6.284  10.909  0.3409  1.4348  1.0387
  184SLPC   C1121095   1.051   6.085  10.938 -0.1874 -0.2162 -0.6519
  184SLPC  H11A21096   1.040   6.007  11.016 -0.6516 -0.4980 -0.9950
  184SLPC  H11B21097   1.141   6.051  10.882  0.8320 -0.6599  1.1576
  184SLPC     P21098   0.849   5.967  10.828  0.8376 -0.1828  0.1025
  184SLPC   O1321099   0.892   5.845  10.898  0.0867  0.0882 -0.0968
  184SLPC   O1421100   0.707   5.995  10.852  0.5191 -0.2778 -0.3737
  184SLPC   O1221101   0.934   6.095  10.859 -0.5651  0.4530 -0.0460
  184SLPC   O1121102   0.859   5.952  10.675  0.0453  0.2470  0.1422
  184SLPC    C121103   0.987   5.971  10.615  0.7826 -0.6851 -0.6387
  184SLPC    HA21104   1.001   6.081  10.602  1.5506 -0.6347  0.4777
  184SLPC    HB21105   1.068   5.942  10.685  0.1854 -1.2804 -0.1810
  184SLPC    C221106   1.009   5.899  10.481  0.5788  0.4018 -0.5553
  184SLPC    HS21107   1.081   5.815  10.490  0.2432  0.1790  0.0601
  184SLPC   O2121108   1.053   5.991  10.388 -0.4019  0.3031  0.6154
  184SLPC   C2121109   1.183   6.013  10.373 -0.2750  0.5865 -0.4106
  184SLPC   O2221110   1.273   5.947  10.422 -0.4454  0.0337  0.0959
  184SLPC   C2221111   1.203   6.133  10.277 -0.3610  0.1127 -1.0152
  184SLPC   H2R21112   1.133   6.107  10.194 -1.2636 -1.4525  0.1707
  184SLPC   H2S21113   1.166   6.222  10.332 -0.5312  0.6995 -2.0399
  184SLPC    C321114   0.875   5.817  10.433  0.1082  0.1690 -0.3312
  184SLPC    HX21115   0.784   5.881  10.432  0.1670  0.2940  0.8753
  184SLPC    HY21116   0.853   5.742  10.511  0.3347 -0.3794 -0.7829
  184SLPC   O3121117   0.882   5.760  10.298 -0.1395  0.2550  0.0783
  184SLPC   C3121118   0.954   5.648  10.288 -0.0083  0.0945  0.0395
  184SLPC   O3221119   1.013   5.596  10.379 -0.2239  0.1390 -0.2769
  184SLPC   C3221120   0.951   5.599  10.148  0.1543  0.7029 -0.1478
  184SLPC   H2X21121   0.876   5.517  10.150  1.6562 -0.7532 -0.9305
  184SLPC   H2Y21122   1.048   5.547  10.127 -1.0271 -2.5054  1.6508
  184SLPC   C2321123   1.351   6.152  10.229 -0.5501  0.1935 -0.7094
  184SLPC   H3R21124   1.409   6.068  10.185 -0.4453  1.3824 -2.9395
  184SLPC   H3S21125   1.403   6.180  10.324 -1.9329  0.5323 -0.0354
  184SLPC   C2421126   1.376   6.262  10.123  0.0681  0.0682  0.1577
  184SLPC   H4R21127   1.485   6.281  10.132  0.2126  0.1348 -1.4820
  184SLPC   H4S21128   1.334   6.360  10.154  1.1079  0.5125  0.1693
  184SLPC   C2521129   1.343   6.222   9.981  0.2857 -0.4459  0.4990
  184SLPC   H5R21130   1.234   6.216   9.962  0.6552 -1.0398 -1.6273
  184SLPC   H5S21131   1.388   6.122   9.963  2.8077  0.7855 -0.4475
  184SLPC   C2621132   1.405   6.320   9.884 -0.1103 -0.2875  0.2816
  184SLPC   H6R21133   1.516   6.309   9.892  0.0889 -0.6229 -2.1716
  184SLPC   H6S21134   1.377   6.423   9.913 -0.0164 -0.1048 -0.2567
  184SLPC   C2721135   1.350   6.285   9.745 -0.4736  0.2525  0.6973
  184SLPC   H7R21136   1.240   6.287   9.758 -0.3975  2.1934  1.3488
  184SLPC   H7S21137   1.387   6.181   9.727 -1.3940 -0.0063  0.2593
  184SLPC   C2821138   1.410   6.367   9.629 -0.0729  0.1903  0.6676
  184SLPC   H8R21139   1.378   6.306   9.542 -0.7444 -0.5362  1.4078
  184SLPC   H8S21140   1.521   6.366   9.627 -0.0833 -1.0264 -0.2761
  184SLPC   C2921141   1.350   6.504   9.641 -0.1568 -0.0548 -0.2769
  184SLPC   H9R21142   1.400   6.570   9.714 -3.2669  1.7586  0.4103
  184SLPC  C21021143   1.235   6.545   9.578  0.2537  0.0127  0.1557
  184SLPC  H10R21144   1.213   6.650   9.602 -0.3791  0.2852 -1.4996
  184SLPC  C21121145   1.152   6.463   9.488 -0.6787  0.4953  0.1819
  184SLPC  H11R21146   1.114   6.373   9.540  0.0393 -0.1553 -0.3894
  184SLPC  H11S21147   1.216   6.425   9.405 -1.5737  0.0565 -0.3231
  184SLPC  C21221148   1.037   6.549   9.441  0.4440 -0.4920  0.8842
  184SLPC  H12R21149   0.973   6.588   9.522  0.5274  0.8947  0.3004
  184SLPC  C21321150   1.006   6.599   9.319  0.2418  0.2251  0.4387
  184SLPC  H13R21151   0.912   6.655   9.306  0.8610  0.9193 -1.4614
  184SLPC  C21421152   1.082   6.561   9.195 -0.2757 -0.3986 -0.0971
  184SLPC  H14R21153   1.047   6.457   9.177 -3.0545  0.0881  1.8511
  184SLPC  H14S21154   1.191   6.566   9.217 -0.2768  1.2283 -0.3349
  184SLPC  C21521155   1.050   6.652   9.079 -0.2411 -0.6909 -0.1736
  184SLPC  H15R21156   1.074   6.758   9.104  0.2220 -1.1833  1.5725
  184SLPC  H15S21157   0.943   6.637   9.055 -0.2018 -1.9412  0.3616
  184SLPC  C21621158   1.122   6.615   8.940 -0.6090  0.9581 -0.1098
  184SLPC  H16R21159   1.099   6.507   8.932  0.7361  0.6129  0.2831
  184SLPC  H16S21160   1.230   6.631   8.964 -0.8256 -1.3045  2.9903
  184SLPC  C21721161   1.061   6.689   8.826  0.1991 -0.0925 -0.5156
  184SLPC  H17R21162   1.064   6.797   8.854 -0.2011  0.2908 -1.8486
  184SLPC  H17S21163   0.953   6.661   8.828  0.1591  0.1097  0.7938
  184SLPC  C21821164   1.117   6.651   8.685 -0.1933  0.4953  0.1822
  184SLPC  H18R21165   1.105   6.544   8.659 -1.4791  0.1862  1.9178
  184SLPC  H18S21166   1.226   6.674   8.684  0.1124 -0.8053  1.1281
  184SLPC  H18T21167   1.079   6.716   8.604 -1.1750  0.1808  0.3764
  184SLPC   C3321168   0.941   5.701  10.037  0.1103 -0.4814  0.3593
  184SLPC   H3X21169   0.854   5.767  10.056 -1.6329 -2.5180 -0.0703
  184SLPC   H3Y21170   0.927   5.643   9.943  2.1567 -1.1506  0.4111
  184SLPC   C3421171   1.067   5.785   9.998  0.4553  0.1789 -0.1162
  184SLPC   H4X21172   1.139   5.707   9.967 -2.2910 -2.0470 -1.2912
  184SLPC   H4Y21173   1.107   5.843  10.085  1.0838 -0.1741 -0.1699
  184SLPC   C3521174   1.042   5.878   9.880 -0.2583 -0.3367 -0.8758
  184SLPC   H5X21175   0.993   5.812   9.805 -1.9124 -0.2903  0.1190
  184SLPC   H5Y21176   1.139   5.915   9.841 -0.1936  1.9172  1.2062
  184SLPC   C3621177   0.964   6.007   9.915 -0.0427  0.7013 -0.3024
  184SLPC   H6X21178   1.011   6.068   9.995  0.3672  1.5401 -1.1726
  184SLPC   H6Y21179   0.867   5.976   9.959 -0.9799  1.6643 -1.6267
  184SLPC   C3721180   0.921   6.090   9.802 -0.4926 -0.5315  0.9724
  184SLPC   H7X21181   1.009   6.131   9.749  0.4171  0.5348  3.1839
  184SLPC   H7Y21182   0.871   6.180   9.843 -1.1092  1.6318 -3.8264
  184SLPC   C3821183   0.829   6.029   9.703 -0.2311 -0.4777 -0.3763
  184SLPC   H8X21184   0.754   5.973   9.763  0.1207 -0.2035  0.3400
  184SLPC   H8Y21185   0.883   5.969   9.627 -0.8761 -0.9036 -0.5056
  184SLPC   C3921186   0.744   6.127   9.621 -0.1446 -0.0773 -0.7224
  184SLPC   H9X21187   0.807   6.212   9.586 -1.7276  1.0967 -0.8354
  184SLPC   H9Y21188   0.673   6.172   9.693 -0.5308 -1.5825 -0.1228
  184SLPC  C31021189   0.674   6.059   9.513 -0.0078  0.2983  0.3498
  184SLPC  H10X21190   0.569   6.092   9.496 -1.1844 -3.1605  0.1769
  184SLPC  H10Y21191   0.661   5.951   9.537  0.9744  0.5724  2.3737
  184SLPC  C31121192   0.754   6.075   9.382 -0.2947  0.1154 -0.5949
  184SLPC  H11X21193   0.860   6.055   9.407 -0.3129  2.1122  1.3162
  184SLPC  H11Y21194   0.756   6.182   9.355  0.5893  0.9446  2.4232
  184SLPC  C31221195   0.715   5.977   9.265  0.0210  0.0761  0.2523
  184SLPC  H12X21196   0.604   5.982   9.260  0.0286 -0.2462 -0.3602
  184SLPC  H12Y21197   0.728   5.869   9.290  1.6812 -0.5178 -2.6790
  184SLPC  C31321198   0.781   6.005   9.126  0.4063  0.1632  0.3664
  184SLPC  H13X21199   0.804   5.910   9.072  2.4229  0.2576  1.0079
  184SLPC  H13Y21200   0.870   6.070   9.129  0.4091  0.5507 -3.2674
  184SLPC  C31421201   0.677   6.074   9.036  0.7379 -0.5474  0.0637
  184SLPC  H14X21202   0.652   6.165   9.093  1.5205 -1.3676  1.7846
  184SLPC  H14Y21203   0.585   6.012   9.023 -0.1162  0.7370 -0.2424
  184SLPC  C31521204   0.735   6.099   8.895  0.3219  0.8540 -0.2544
  184SLPC  H15X21205   0.675   6.042   8.821  1.4593 -1.4889  0.5193
  184SLPC  H15Y21206   0.840   6.065   8.891 -0.3905 -1.3498 -2.2056
  184SLPC  C31621207   0.725   6.248   8.853 -0.1645  0.4452 -0.4435
  184SLPC  H16X21208   0.796   6.302   8.919  0.9604 -2.2336  0.6736
  184SLPC  H16Y21209   0.620   6.271   8.881 -0.6009 -1.5114 -0.3399
  184SLPC  C31721210   0.745   6.274   8.702  0.0770 -0.0658  0.0266
  184SLPC  H17X21211   0.661   6.228   8.645  0.4182  0.9430 -1.3434
  184SLPC  H17Y21212   0.838   6.220   8.674  1.4405 -0.1359  4.1609
  184SLPC  C31821213   0.758   6.419   8.684  0.1019 -0.1711 -0.3507
  184SLPC  H18X21214   0.663   6.472   8.705  0.3699  0.4797 -0.7560
  184SLPC  H18Y21215   0.767   6.436   8.574  1.1053  1.9739  0.0125
  184SLPC  H18Z21216   0.847   6.458   8.737  1.7026 -2.6020 -1.0587
  185SLPC     N21217   5.948   3.298   6.412  0.0081 -0.0868  0.6648
  185SLPC   C1321218   5.815   3.278   6.361 -0.3668  0.2990 -0.2903
  185SLPC  H13A21219   5.766   3.215   6.434  1.4722 -1.8218 -0.8083
  185SLPC  H13B21220   5.761   3.372   6.352 -1.8795 -0.6674 -2.1491
  185SLPC  H13C21221   5.814   3.227   6.266  0.0803 -2.4764  1.1224
  185SLPC   C1421222   6.019   3.378   6.308  0.0771 -0.1078  0.8637
  185SLPC  H14A21223   6.045   3.321   6.220  0.9315  1.1493  0.2722
  185SLPC  H14B21224   5.960   3.462   6.275 -2.1456 -1.8726  0.0905
  185SLPC  H14C21225   6.112   3.419   6.346 -0.8997  1.0442  2.1139
  185SLPC   C1521226   6.011   3.168   6.421 -0.4353  0.0079 -0.5266
  185SLPC  H15A21227   5.969   3.090   6.482 -0.5996  1.6885  1.6199
  185SLPC  H15B21228   6.002   3.132   6.319 -0.9636 -0.5334 -0.2966
  185SLPC  H15C21229   6.116   3.159   6.444 -0.9194 -0.1729  1.8932
  185SLPC   C1221230   5.963   3.370   6.542  0.1562 -0.3197 -0.5619
  185SLPC  H12A21231   6.066   3.364   6.574  0.7445  2.1266 -1.7714
  185SLPC  H12B21232   5.902   3.322   6.617  0.6586  2.9136  2.1715
  185SLPC   C1121233   5.934   3.521   6.543  0.1552 -0.0795  0.2860
  185SLPC  H11A21234   5.895   3.551   6.642 -1.5994  0.0196 -0.3945
  185SLPC  H11B21235   5.855   3.547   6.469  0.9263  3.1348  0.4581
  185SLPC     P21236   6.065   3.737   6.458 -0.3516 -0.0383  0.0312
  185SLPC   O1321237   6.207   3.774   6.472  0.0103  0.1210  0.4863
  185SLPC   O1421238   6.008   3.749   6.322  0.3277  0.5778 -0.0032
  185SLPC   O1221239   6.060   3.589   6.519  0.0134 -0.3114  0.5415
  185SLPC   O1121240   5.972   3.824   6.547 -0.3539  0.0942  0.2058
  185SLPC    C121241   6.017   3.915   6.644 -0.0945  0.3776 -0.6424
  185SLPC    HA21242   6.117   3.961   6.623  1.6788 -1.9212  2.0398
  185SLPC    HB21243   5.951   4.005   6.643  0.0255  0.5159  1.0544
  185SLPC    C221244   6.038   3.860   6.784  0.4044 -0.1339  0.7058
  185SLPC    HS21245   6.096   3.767   6.767  0.8627 -0.1023  1.9718
  185SLPC   O2121246   5.907   3.818   6.834 -0.0322 -0.1919 -0.0453
  185SLPC   C2121247   5.899   3.734   6.935  0.5748  0.1173  0.9309
  185SLPC   O2221248   5.987   3.661   6.973 -0.5365 -0.6692 -0.2303
  185SLPC   C2221249   5.756   3.740   6.991  0.1141 -0.5934 -0.7693
  185SLPC   H2R21250   5.745   3.843   7.030  3.2536  0.2434 -1.7486
  185SLPC   H2S21251   5.679   3.727   6.912 -0.1577 -1.1855 -0.4090
  185SLPC    C321252   6.102   3.965   6.878 -0.0818  0.0205 -0.8513
  185SLPC    HX21253   6.040   4.056   6.861 -2.1144 -1.2306 -0.4506
  185SLPC    HY21254   6.204   3.992   6.842 -0.1471  1.8674  0.2031
  185SLPC   O3121255   6.106   3.932   7.024  0.3799 -0.2097  0.4028
  185SLPC   C3121256   6.203   3.853   7.062 -0.5521  0.1085 -0.0748
  185SLPC   O3221257   6.280   3.805   6.979 -0.1865 -0.1051  0.2450
  185SLPC   C3221258   6.197   3.840   7.213  0.7290  0.0940  0.6449
  185SLPC   H2X21259   6.090   3.818   7.233 -0.1154  1.3798 -1.9487
  185SLPC   H2Y21260   6.226   3.934   7.265  0.5175 -0.0878  1.0942
  185SLPC   C2321261   5.740   3.637   7.102 -0.3952  0.1519  0.5441
  185SLPC   H3R21262   5.655   3.675   7.163  0.8488  4.3989 -0.0373
  185SLPC   H3S21263   5.835   3.631   7.160 -0.6510 -0.2622  0.9302
  185SLPC   C2421264   5.698   3.499   7.047 -0.5410  0.0887 -0.1804
  185SLPC   H4R21265   5.790   3.460   7.000 -0.7561  1.2088 -1.5936
  185SLPC   H4S21266   5.617   3.506   6.972  0.3433  0.3114 -1.1326
  185SLPC   C2521267   5.653   3.401   7.159  0.4740  0.7237  0.1825
  185SLPC   H5R21268   5.747   3.396   7.218  0.6536 -0.7640 -0.1905
  185SLPC   H5S21269   5.623   3.306   7.111 -0.0941  0.7394  0.4964
  185SLPC   C2621270   5.537   3.440   7.257 -0.9092  0.5954  0.5197
  185SLPC   H6R21271   5.458   3.452   7.180  2.4868  0.9713 -3.2292
  185SLPC   H6S21272   5.563   3.536   7.306 -0.8690  0.4964  0.6947
  185SLPC   C2721273   5.507   3.335   7.359 -0.5649 -0.3943 -0.0540
  185SLPC   H7R21274   5.603   3.314   7.410 -1.0231  0.4663  1.2080
  185SLPC   H7S21275   5.467   3.245   7.308 -1.9908 -0.5964  1.3580
  185SLPC   C2821276   5.403   3.380   7.463  0.8230  0.5082  0.6955
  185SLPC   H8R21277   5.458   3.468   7.503  4.2884 -1.0020 -0.4334
  185SLPC   H8S21278   5.400   3.308   7.547  2.1599 -2.0852 -1.3434
  185SLPC   C2921279   5.264   3.407   7.416 -0.1905 -0.3860  0.1422
  185SLPC   H9R21280   5.263   3.500   7.357  1.6897 -1.1458 -1.1529
  185SLPC  C21021281   5.159   3.322   7.430  0.5290 -0.1379  0.1140
  185SLPC  H10R21282   5.057   3.360   7.413  0.2701 -0.9480 -0.2227
  185SLPC  C21121283   5.157   3.186   7.502 -0.0080 -0.3616  0.0859
  185SLPC  H11R21284   5.234   3.121   7.454 -1.2022 -1.7866  0.0254
  185SLPC  H11S21285   5.059   3.136   7.487 -0.9866  1.7772 -1.1502
  185SLPC  C21221286   5.169   3.212   7.651  0.9008  0.2527  0.4191
  185SLPC  H12R21287   5.105   3.294   7.686  3.5675  2.1701  1.1184
  185SLPC  C21321288   5.248   3.146   7.736 -0.6545  0.1436 -0.0611
  185SLPC  H13R21289   5.245   3.168   7.844 -1.3543 -1.7100  0.3487
  185SLPC  C21421290   5.343   3.028   7.712  0.6800 -0.4163 -0.3754
  185SLPC  H14R21291   5.447   3.063   7.694  0.1888  1.3305 -0.0239
  185SLPC  H14S21292   5.316   2.992   7.610  2.0668 -1.3587 -0.4422
  185SLPC  C21521293   5.320   2.928   7.826 -0.0996  0.9505 -0.2341
  185SLPC  H15R21294   5.352   2.966   7.925  1.5513 -0.5523 -0.1506
  185SLPC  H15S21295   5.380   2.837   7.807 -0.6008  0.4555  0.5126
  185SLPC  C21621296   5.177   2.865   7.828  0.8226 -0.9411 -0.5618
  185SLPC  H16R21297   5.160   2.799   7.740 -0.6382 -0.4951 -0.6384
  185SLPC  H16S21298   5.101   2.945   7.839  1.7156 -0.4195  3.6900
  185SLPC  C21721299   5.152   2.779   7.956  0.6265 -0.1006  0.2475
  185SLPC  H17R21300   5.236   2.709   7.973 -0.7154 -2.2200 -1.4280
  185SLPC  H17S21301   5.071   2.713   7.921 -0.6577  1.1063  0.8544
  185SLPC  C21821302   5.125   2.866   8.080  0.4616  0.0175  0.7982
  185SLPC  H18R21303   5.056   2.820   8.153  0.1966  1.5845  1.5732
  185SLPC  H18S21304   5.083   2.966   8.056 -1.0673 -0.3462  1.8060
  185SLPC  H18T21305   5.227   2.887   8.120  0.5335 -1.8433  1.7423
  185SLPC   C3321306   6.297   3.736   7.269 -0.4480 -0.8332  0.5140
  185SLPC   H3X21307   6.397   3.781   7.284 -0.6154 -1.1311  3.0617
  185SLPC   H3Y21308   6.303   3.641   7.211 -1.5221 -1.2822  1.1025
  185SLPC   C3421309   6.243   3.662   7.396 -0.1632  0.2167  0.1337
  185SLPC   H4X21310   6.300   3.567   7.409 -2.3447 -1.1716  0.0695
  185SLPC   H4Y21311   6.137   3.633   7.378 -0.0654  0.4114 -0.7550
  185SLPC   C3521312   6.258   3.749   7.522 -0.6152 -0.1873  0.1869
  185SLPC   H5X21313   6.203   3.841   7.493  2.5707  1.9578  0.4474
  185SLPC   H5Y21314   6.367   3.767   7.526 -0.9651  2.6116 -0.4309
  185SLPC   C3621315   6.202   3.689   7.651 -0.1482 -0.2910  0.0777
  185SLPC   H6X21316   6.103   3.643   7.630 -0.2217  0.2547 -0.8205
  185SLPC   H6Y21317   6.192   3.762   7.735 -4.0755 -2.7800  2.0751
  185SLPC   C3721318   6.304   3.584   7.698  0.2654  0.0329 -1.5106
  185SLPC   H7X21319   6.399   3.630   7.732 -0.1782  1.2180 -1.8202
  185SLPC   H7Y21320   6.320   3.504   7.624  1.7262 -0.3308 -0.8331
  185SLPC   C3821321   6.249   3.506   7.817  0.2428 -0.3514  0.1173
  185SLPC   H8X21322   6.307   3.414   7.835  1.7554 -0.2530 -3.5833
  185SLPC   H8Y21323   6.147   3.473   7.787  0.5158  0.4959 -1.9095
  185SLPC   C3921324   6.244   3.596   7.939  0.0784  0.1195 -0.1572
  185SLPC   H9X21325   6.167   3.672   7.913  2.5516  2.1669 -2.0630
  185SLPC   H9Y21326   6.346   3.640   7.945  1.3031 -2.3406 -1.4781
  185SLPC  C31021327   6.205   3.512   8.059 -0.1411  0.2090  0.6375
  185SLPC  H10X21328   6.268   3.420   8.059 -0.2895  0.0969 -0.0497
  185SLPC  H10Y21329   6.100   3.477   8.046  0.2225 -0.2200 -1.4489
  185SLPC  C31121330   6.218   3.590   8.188 -0.5806  0.0357  0.1013
  185SLPC  H11X21331   6.140   3.670   8.191 -1.4487 -0.6725 -1.6447
  185SLPC  H11Y21332   6.309   3.652   8.172 -0.2979 -0.3962  0.0257
  185SLPC  C31221333   6.225   3.495   8.307  0.1144  0.8842 -1.0208
  185SLPC  H12X21334   6.266   3.540   8.399  2.1937 -2.4701 -0.0987
  185SLPC  H12Y21335   6.293   3.413   8.274  1.2365  1.1865  0.4588
  185SLPC  C31321336   6.092   3.438   8.344  0.0693 -0.1819  0.2869
  185SLPC  H13X21337   6.022   3.467   8.263  2.3851  0.6528 -1.5112
  185SLPC  H13Y21338   6.055   3.489   8.436  3.8929  3.1960  0.1986
  185SLPC  C31421339   6.092   3.278   8.354  0.0040 -0.1442  0.2460
  185SLPC  H14X21340   6.107   3.245   8.249  0.9671 -3.1889  1.2390
  185SLPC  H14Y21341   5.987   3.251   8.378  1.0201 -3.2851  1.5877
  185SLPC  C31521342   6.194   3.218   8.464  0.3607 -0.8714  0.0128
  185SLPC  H15X21343   6.169   3.288   8.547 -3.4482 -0.0165 -1.6209
  185SLPC  H15Y21344   6.298   3.250   8.439 -0.3189  0.8346 -0.7816
  185SLPC  C31621345   6.182   3.063   8.484 -0.5175 -0.5289  0.0513
  185SLPC  H16X21346   6.074   3.040   8.487 -0.7781  0.6782  0.4788
  185SLPC  H16Y21347   6.239   3.031   8.574 -1.5856 -0.6143  0.7142
  185SLPC  C31721348   6.256   2.989   8.361  0.1951 -0.5437  0.0064
  185SLPC  H17X21349   6.190   3.020   8.277  1.3474  3.1225  0.2769
  185SLPC  H17Y21350   6.245   2.879   8.375  0.0288 -0.8001 -1.8412
  185SLPC  C31821351   6.403   3.023   8.326  0.0131 -0.0597 -0.3135
  185SLPC  H18X21352   6.454   2.937   8.277 -0.1024 -1.0189  1.1499
  185SLPC  H18Y21353   6.455   3.041   8.423 -0.1815 -1.6761  0.1287
  185SLPC  H18Z21354   6.409   3.117   8.267  1.7918  0.3057  0.3629
  186SLPC     N21355   5.879   6.175   6.055 -0.0271  0.4461  0.1310
  186SLPC   C1321356   5.878   6.033   6.003  0.2898  0.5398 -0.3879
  186SLPC  H13A21357   5.939   6.035   5.914 -2.1638  2.0492 -2.1521
  186SLPC  H13B21358   5.916   5.961   6.074 -2.1619 -0.4113  0.0323
  186SLPC  H13C21359   5.782   6.002   5.965 -0.2324  1.1402  0.4076
  186SLPC   C1421360   5.806   6.258   5.947  0.3770  0.0946 -0.0995
  186SLPC  H14A21361   5.865   6.269   5.857  1.3308  1.1976  0.6374
  186SLPC  H14B21362   5.714   6.207   5.920 -0.5730  0.7798  1.6790
  186SLPC  H14C21363   5.791   6.363   5.968 -0.4431  0.3300 -1.6481
  186SLPC   C1521364   6.028   6.216   6.054  0.6265 -0.3293 -0.4082
  186SLPC  H15A21365   6.031   6.322   6.075 -0.5399 -0.7030  2.0380
  186SLPC  H15B21366   6.091   6.165   6.124  2.3155 -0.1549 -1.7338
  186SLPC  H15C21367   6.066   6.203   5.954 -1.6442 -2.4336 -1.0907
  186SLPC   C1221368   5.810   6.188   6.193 -0.1666  0.1782 -0.5086
  186SLPC  H12A21369   5.837   6.106   6.258  0.1953 -0.3243 -1.2844
  186SLPC  H12B21370   5.706   6.160   6.181  0.1757 -1.5883  0.4081
  186SLPC   C1121371   5.819   6.327   6.264  0.1139 -0.0656 -0.5134
  186SLPC  H11A21372   5.925   6.360   6.264 -0.1108  0.6887 -1.4116
  186SLPC  H11B21373   5.797   6.320   6.373  1.6782  1.2754 -0.0769
  186SLPC     P21374   5.582   6.422   6.221  0.0779 -0.3772 -0.4732
  186SLPC   O1321375   5.519   6.536   6.153 -0.7545  0.1000 -0.1337
  186SLPC   O1421376   5.528   6.287   6.191 -0.5541  0.1892 -0.0436
  186SLPC   O1221377   5.741   6.420   6.194  0.6003  0.4075 -0.2435
  186SLPC   O1121378   5.568   6.438   6.379 -0.0722 -0.1544 -0.2858
  186SLPC    C121379   5.584   6.554   6.456 -0.1098 -0.4021 -0.4020
  186SLPC    HA21380   5.690   6.587   6.448  0.0541 -1.2960 -2.3632
  186SLPC    HB21381   5.516   6.635   6.423  1.0243  0.9817  0.4956
  186SLPC    C221382   5.570   6.532   6.608 -0.7350 -0.2877 -0.2793
  186SLPC    HS21383   5.636   6.447   6.637 -0.6074  0.5359  2.0373
  186SLPC   O2121384   5.429   6.506   6.629  0.0426 -0.1289 -0.3227
  186SLPC   C2121385   5.411   6.413   6.730 -0.3597 -0.2652  0.3896
  186SLPC   O2221386   5.489   6.328   6.761 -0.0431  0.5409 -0.1966
  186SLPC   C2221387   5.279   6.441   6.801 -0.7761 -0.1144 -0.7466
  186SLPC   H2R21388   5.285   6.551   6.808  0.5838 -0.2331  0.3909
  186SLPC   H2S21389   5.199   6.411   6.729  0.0063 -0.4914 -1.4742
  186SLPC    C321390   5.619   6.659   6.683  0.8072  0.7676  0.3000
  186SLPC    HX21391   5.556   6.744   6.649 -2.5164 -0.9076  1.7974
  186SLPC    HY21392   5.723   6.666   6.644  0.2642  0.0423 -1.3921
  186SLPC   O3121393   5.604   6.643   6.827  0.1838 -0.1426  0.0958
  186SLPC   C3121394   5.688   6.553   6.886  0.7264 -1.3372 -0.3612
  186SLPC   O3221395   5.786   6.509   6.832  0.0371 -0.4711 -0.3599
  186SLPC   C3221396   5.635   6.543   7.029 -0.0235  0.3378 -0.2633
  186SLPC   H2X21397   5.536   6.593   7.032 -0.7932 -1.1204 -0.0092
  186SLPC   H2Y21398   5.697   6.599   7.101 -0.5719  0.4859  0.0986
  186SLPC   C2321399   5.267   6.372   6.939 -0.1583  0.0828  0.4069
  186SLPC   H3R21400   5.355   6.409   6.996 -0.3421 -0.2969  0.9426
  186SLPC   H3S21401   5.269   6.263   6.918 -1.6830  0.1172  0.0065
  186SLPC   C2421402   5.134   6.401   7.016  0.1754 -0.1332  0.9049
  186SLPC   H4R21403   5.039   6.378   6.963 -1.7065 -0.3143  4.1016
  186SLPC   H4S21404   5.125   6.509   7.042  0.1252  0.1747 -0.3478
  186SLPC   C2521405   5.155   6.329   7.154 -0.3088  0.5881 -0.3263
  186SLPC   H5R21406   5.239   6.374   7.212 -0.0319  0.9622 -1.0041
  186SLPC   H5S21407   5.173   6.223   7.125 -0.7212 -0.1482  1.9203
  186SLPC   C2621408   5.032   6.313   7.246 -0.0211 -0.0288 -0.0941
  186SLPC   H6R21409   4.931   6.308   7.199 -0.2456  3.0028 -0.1475
  186SLPC   H6S21410   5.022   6.412   7.296 -3.0761  0.5019 -1.4937
  186SLPC   C2721411   5.047   6.199   7.354 -0.4916  0.3211 -0.1567
  186SLPC   H7R21412   5.136   6.213   7.419 -0.2558 -0.1702 -0.3733
  186SLPC   H7S21413   5.050   6.098   7.308 -0.2105  0.4335 -0.3808
  186SLPC   C2821414   4.934   6.194   7.467  0.1157  0.5409 -0.4047
  186SLPC   H8R21415   4.945   6.116   7.546  2.0634 -0.1814 -1.3098
  186SLPC   H8S21416   4.849   6.157   7.406  1.0494  0.2031 -1.5622
  186SLPC   C2921417   4.901   6.325   7.523 -0.0262  0.2449  0.8684
  186SLPC   H9R21418   4.846   6.389   7.453 -0.4076 -0.3472  0.6213
  186SLPC  C21021419   4.927   6.366   7.645 -0.0351  0.3505 -0.5472
  186SLPC  H10R21420   4.906   6.472   7.664 -0.4263  0.4416 -1.4311
  186SLPC  C21121421   4.992   6.292   7.762 -0.2993 -0.3563  0.1462
  186SLPC  H11R21422   5.100   6.265   7.752 -0.0921  0.3153  0.5491
  186SLPC  H11S21423   4.940   6.195   7.780  0.3698 -1.0216 -1.3253
  186SLPC  C21221424   4.965   6.363   7.890  0.2073 -0.1815 -0.2858
  186SLPC  H12R21425   4.908   6.457   7.885 -0.7444 -0.7090  0.2868
  186SLPC  C21321426   5.003   6.312   8.009  0.2852  0.1041 -0.6799
  186SLPC  H13R21427   4.965   6.357   8.103  1.2806  1.9853 -1.1158
  186SLPC  C21421428   5.083   6.180   8.022 -0.0401 -0.0250  0.1563
  186SLPC  H14R21429   5.183   6.210   7.985 -0.7695  1.0348 -1.0362
  186SLPC  H14S21430   5.055   6.101   7.949  0.2278 -2.0710  2.1527
  186SLPC  C21521431   5.098   6.115   8.159 -0.0764 -0.2899  0.6586
  186SLPC  H15R21432   5.133   6.010   8.150 -1.6907 -0.7869 -0.2061
  186SLPC  H15S21433   4.993   6.103   8.195 -0.1436 -2.4341 -0.1080
  186SLPC  C21621434   5.200   6.193   8.252  0.0576  0.1883  0.1783
  186SLPC  H16R21435   5.148   6.288   8.278 -1.8902 -1.0263  0.9330
  186SLPC  H16S21436   5.290   6.216   8.190 -0.0358  1.0914  0.3636
  186SLPC  C21721437   5.235   6.109   8.376  0.4311  0.1204  0.3525
  186SLPC  H17R21438   5.334   6.144   8.413  0.5062  0.1218  0.1488
  186SLPC  H17S21439   5.236   6.003   8.342 -0.5182 -0.0328  0.7731
  186SLPC  C21821440   5.134   6.130   8.489  0.1816 -0.7222 -0.7055
  186SLPC  H18R21441   5.140   6.047   8.563  1.8645 -1.4589 -1.6203
  186SLPC  H18S21442   5.031   6.128   8.446 -1.6258  0.4044  3.1043
  186SLPC  H18T21443   5.136   6.233   8.532  0.9881 -0.4369 -1.4006
  186SLPC   C3321444   5.632   6.392   7.067 -0.1286 -0.1665  1.3353
  186SLPC   H3X21445   5.734   6.350   7.059  0.9999  2.6710 -1.3996
  186SLPC   H3Y21446   5.579   6.317   7.005 -0.6626 -0.8545  2.5686
  186SLPC   C3421447   5.578   6.394   7.215  0.3896  0.7897 -0.3297
  186SLPC   H4X21448   5.476   6.436   7.234  1.3942  3.0051  0.5045
  186SLPC   H4Y21449   5.648   6.456   7.274  2.3452  0.6579 -2.3977
  186SLPC   C3521450   5.588   6.249   7.277 -0.5742 -0.6706 -0.2763
  186SLPC   H5X21451   5.694   6.218   7.265 -0.1792 -0.1264  1.3762
  186SLPC   H5Y21452   5.518   6.183   7.223 -1.8807  1.8830 -1.8725
  186SLPC   C3621453   5.557   6.263   7.432 -0.5086  0.5411  0.1365
  186SLPC   H6X21454   5.609   6.352   7.473  0.7218  0.7830 -1.8379
  186SLPC   H6Y21455   5.600   6.174   7.484  0.8477  1.0209 -0.1303
  186SLPC   C3721456   5.412   6.272   7.479 -0.1746  0.2993  0.1756
  186SLPC   H7X21457   5.357   6.180   7.448 -2.7081  1.5709  0.6596
  186SLPC   H7Y21458   5.364   6.361   7.433  1.5207  2.2092  1.9269
  186SLPC   C3821459   5.396   6.273   7.634  0.1390  0.1449 -0.2105
  186SLPC   H8X21460   5.415   6.169   7.670 -1.8115 -0.4178 -0.6715
  186SLPC   H8Y21461   5.289   6.299   7.652  0.0722 -1.3483  1.9035
  186SLPC   C3921462   5.489   6.364   7.716 -0.1856  0.0537  0.4217
  186SLPC   H9X21463   5.462   6.469   7.691 -1.1919 -0.0791  0.8699
  186SLPC   H9Y21464   5.597   6.350   7.698 -0.1377  1.0413 -0.0962
  186SLPC  C31021465   5.463   6.338   7.863 -1.1194 -0.5220  0.6670
  186SLPC  H10X21466   5.503   6.242   7.901 -2.6907 -0.6061  2.2361
  186SLPC  H10Y21467   5.353   6.340   7.876 -1.1094  1.7741  0.7906
  186SLPC  C31121468   5.524   6.446   7.956 -0.3173  1.1181 -0.2612
  186SLPC  H11X21469   5.496   6.540   7.904  0.0662  1.3492 -0.0566
  186SLPC  H11Y21470   5.633   6.439   7.935 -0.5612 -0.6226 -1.1530
  186SLPC  C31221471   5.472   6.437   8.102 -0.5637  0.0360 -0.0246
  186SLPC  H12X21472   5.486   6.339   8.152 -1.3860  0.2095  0.5621
  186SLPC  H12Y21473   5.363   6.456   8.111 -0.6908 -0.4358 -0.4964
  186SLPC  C31321474   5.536   6.541   8.198 -0.1204 -0.0843 -0.5155
  186SLPC  H13X21475   5.490   6.642   8.186  1.0646  0.4456 -0.7797
  186SLPC  H13Y21476   5.646   6.549   8.192  0.2095 -2.4116  1.1906
  186SLPC  C31421477   5.509   6.493   8.343 -0.6365 -0.1714  0.3682
  186SLPC  H14X21478   5.539   6.388   8.366 -0.8044 -0.3378 -0.1531
  186SLPC  H14Y21479   5.404   6.510   8.374 -1.0077 -0.6242 -0.5782
  186SLPC  C31521480   5.601   6.562   8.450 -0.2685 -0.3564  0.1002
  186SLPC  H15X21481   5.553   6.542   8.548 -0.8105  1.0401  0.1467
  186SLPC  H15Y21482   5.602   6.673   8.437 -1.8376 -0.1953  1.0622
  186SLPC  C31621483   5.743   6.514   8.457 -0.1526  0.0853  0.0235
  186SLPC  H16X21484   5.775   6.506   8.351 -0.2112  0.7444 -0.0447
  186SLPC  H16Y21485   5.743   6.415   8.509 -1.0112 -0.1513 -0.4131
  186SLPC  C31721486   5.820   6.614   8.537  0.0215  0.0044 -0.1784
  186SLPC  H17X21487   5.766   6.654   8.625  1.9172  0.8117  0.6532
  186SLPC  H17Y21488   5.838   6.700   8.469 -2.4021  0.3266 -0.5331
  186SLPC  C31821489   5.958   6.552   8.571  1.0761  0.9074  0.0149
  186SLPC  H18X21490   6.020   6.518   8.485  0.9524  1.3925 -0.2723
  186SLPC  H18Y21491   5.945   6.464   8.637  0.1707  0.0746 -1.2077
  186SLPC  H18Z21492   6.012   6.630   8.628  1.6680 -0.7175  1.7877
  187SLPC     N21493   6.782   2.414   6.672 -0.1552 -0.1188 -0.5218
  187SLPC   C1321494   6.802   2.417   6.821  0.0158 -0.0866  0.0177
  187SLPC  H13A21495   6.711   2.436   6.876 -0.0676 -1.3785  0.3365
  187SLPC  H13B21496   6.826   2.321   6.864 -4.0284 -0.8638  0.9614
  187SLPC  H13C21497   6.874   2.494   6.844 -0.0991 -0.1550  0.6247
  187SLPC   C1421498   6.684   2.306   6.636 -0.0406 -0.4161 -0.0211
  187SLPC  H14A21499   6.589   2.315   6.686 -0.4809  1.7452 -1.1121
  187SLPC  H14B21500   6.654   2.326   6.534 -2.1923  0.4175  0.7137
  187SLPC  H14C21501   6.731   2.209   6.643  1.4247  0.3376  1.1066
  187SLPC   C1521502   6.901   2.402   6.586 -0.3420  0.7499  0.1615
  187SLPC  H15A21503   6.946   2.305   6.606  1.7314  1.6494  0.1272
  187SLPC  H15B21504   6.875   2.410   6.481  2.7831  1.1483 -0.6809
  187SLPC  H15C21505   6.977   2.475   6.608  0.8520 -0.6719  0.9954
  187SLPC   C1221506   6.722   2.548   6.637 -0.6087  0.2581  0.3258
  187SLPC  H12A21507   6.794   2.622   6.669 -0.7643  1.7419 -2.4671
  187SLPC  H12B21508   6.635   2.566   6.699 -1.1647  2.2132 -0.9296
  187SLPC   C1121509   6.679   2.587   6.489 -0.1396 -0.1628  0.0572
  187SLPC  H11A21510   6.773   2.588   6.431  1.2363 -0.0015  2.1914
  187SLPC  H11B21511   6.647   2.693   6.499  2.5380  0.7167 -0.1138
  187SLPC     P21512   6.425   2.524   6.478  0.3663 -0.2291  0.5237
  187SLPC   O1321513   6.369   2.641   6.414  0.2465  0.4082  0.4322
  187SLPC   O1421514   6.357   2.395   6.472 -0.1636  0.6878 -0.1124
  187SLPC   O1221515   6.575   2.504   6.434  0.2857 -0.3281 -0.3242
  187SLPC   O1121516   6.437   2.565   6.631  0.3064  0.7259 -0.4757
  187SLPC    C121517   6.337   2.627   6.708 -0.1505 -0.0258  0.0522
  187SLPC    HA21518   6.370   2.731   6.732 -0.3368 -0.0583  0.4539
  187SLPC    HB21519   6.236   2.620   6.662  0.2223 -1.0730 -0.6271
  187SLPC    C221520   6.320   2.558   6.854 -0.3455 -0.1488  0.3017
  187SLPC    HS21521   6.238   2.484   6.840 -1.8151  1.0176  2.2276
  187SLPC   O2121522   6.281   2.666   6.943 -0.3449  0.4578 -0.0855
  187SLPC   C2121523   6.157   2.705   6.932 -0.1814  0.2188  0.3627
  187SLPC   O2221524   6.077   2.672   6.845  0.1783  0.3930 -0.1133
  187SLPC   C2221525   6.125   2.793   7.055  0.5272  0.2567  0.0442
  187SLPC   H2R21526   6.200   2.874   7.039  2.0699 -1.1156  0.0821
  187SLPC   H2S21527   6.019   2.827   7.049 -0.4268 -2.1907  1.5125
  187SLPC    C321528   6.452   2.490   6.909 -0.1838  0.0248  0.0418
  187SLPC    HX21529   6.519   2.577   6.925 -0.3722 -0.1934  2.2993
  187SLPC    HY21530   6.486   2.416   6.832  1.5439  0.4507  0.3441
  187SLPC   O3121531   6.416   2.416   7.027 -0.2797 -0.0295 -0.1102
  187SLPC   C3121532   6.517   2.364   7.090 -0.2685  0.7882  0.2158
  187SLPC   O3221533   6.631   2.368   7.055 -0.5081 -0.4031  0.0629
  187SLPC   C3221534   6.468   2.287   7.214  0.1719 -0.0839 -0.0299
  187SLPC   H2X21535   6.410   2.199   7.179  1.6312 -1.6122  1.1792
  187SLPC   H2Y21536   6.403   2.361   7.267  0.7664  0.7559 -0.4517
  187SLPC   C2321537   6.154   2.722   7.185  0.5886  0.4780  0.2306
  187SLPC   H3R21538   6.252   2.672   7.169  0.5445  0.6802 -0.6784
  187SLPC   H3S21539   6.077   2.643   7.197 -1.9369  2.6682 -0.6076
  187SLPC   C2421540   6.149   2.818   7.306  0.5915  0.8259 -0.6146
  187SLPC   H4R21541   6.057   2.879   7.303  1.6197  2.5215  0.5786
  187SLPC   H4S21542   6.234   2.888   7.297  0.8088  0.4326 -1.7893
  187SLPC   C2521543   6.170   2.747   7.441  0.4495 -0.5643  0.4614
  187SLPC   H5R21544   6.260   2.682   7.447  1.3175  0.3219 -1.6255
  187SLPC   H5S21545   6.086   2.676   7.458 -0.7494  0.4570 -0.8866
  187SLPC   C2621546   6.179   2.848   7.562  0.1796  0.2804 -0.4216
  187SLPC   H6R21547   6.092   2.917   7.572 -0.2616 -0.4833  1.5192
  187SLPC   H6S21548   6.269   2.912   7.550 -0.4948  1.3334 -0.0042
  187SLPC   C2721549   6.193   2.769   7.695 -0.3656 -0.0342 -1.0213
  187SLPC   H7R21550   6.253   2.676   7.687 -1.4185 -1.0407  1.6742
  187SLPC   H7S21551   6.088   2.747   7.724  0.1505  0.7854  1.8296
  187SLPC   C2821552   6.264   2.856   7.803 -0.5490  0.2187  0.3162
  187SLPC   H8R21553   6.339   2.920   7.751 -1.4152  0.1988 -1.0081
  187SLPC   H8S21554   6.322   2.788   7.869 -0.5140 -0.1020 -0.0409
  187SLPC   C2921555   6.166   2.946   7.874 -0.4205  0.4950 -1.0164
  187SLPC   H9R21556   6.132   3.034   7.818 -0.3514  1.5317  0.5043
  187SLPC  C21021557   6.100   2.920   7.991  0.3203  0.2403  0.1471
  187SLPC  H10R21558   6.032   2.994   8.037  0.9412  0.6170  0.4716
  187SLPC  C21121559   6.101   2.790   8.069  0.5270 -0.1512 -0.3548
  187SLPC  H11R21560   6.166   2.809   8.157 -0.7564  1.6059  0.2526
  187SLPC  H11S21561   6.152   2.711   8.009  0.3393 -0.6248  0.0969
  187SLPC  C21221562   5.967   2.728   8.110  0.5313  0.0652 -0.0690
  187SLPC  H12R21563   5.877   2.781   8.077  0.2829 -0.9197 -1.0423
  187SLPC  C21321564   5.956   2.624   8.201 -0.3535 -0.1451 -0.0224
  187SLPC  H13R21565   5.854   2.590   8.226  0.2316 -1.6300  0.4574
  187SLPC  C21421566   6.069   2.557   8.281 -0.3201  0.3106  0.0681
  187SLPC  H14R21567   6.172   2.590   8.252 -0.3647 -0.9955 -1.7561
  187SLPC  H14S21568   6.076   2.447   8.270  0.5562  0.2686  0.9575
  187SLPC  C21521569   6.041   2.583   8.429  0.6619  0.2528  0.8169
  187SLPC  H15R21570   6.061   2.688   8.459  2.0773  0.0713  0.5987
  187SLPC  H15S21571   6.113   2.520   8.485 -0.1455  0.1104  1.7219
  187SLPC  C21621572   5.907   2.542   8.496  0.4428 -0.4513  0.0287
  187SLPC  H16R21573   5.886   2.437   8.468  0.4944 -0.3236 -0.4941
  187SLPC  H16S21574   5.835   2.609   8.445  1.4321 -0.1034 -0.9473
  187SLPC  C21721575   5.909   2.561   8.638  0.0510 -0.0822 -0.5894
  187SLPC  H17R21576   5.935   2.663   8.671 -0.3399 -0.6386  1.5606
  187SLPC  H17S21577   5.987   2.493   8.679  0.1186  1.6304  2.3045
  187SLPC  C21821578   5.784   2.515   8.710  0.4369 -0.4377  0.1944
  187SLPC  H18R21579   5.766   2.409   8.682  1.2564 -0.3728 -0.6342
  187SLPC  H18S21580   5.697   2.577   8.678  1.0415  0.3825  0.0942
  187SLPC  H18T21581   5.789   2.524   8.821  3.3894  0.9467  0.0411
  187SLPC   C3321582   6.581   2.255   7.318  0.1161 -0.3154 -0.1510
  187SLPC   H3X21583   6.626   2.354   7.340 -0.7537  0.5354 -1.9490
  187SLPC   H3Y21584   6.657   2.187   7.276  0.7219  0.2088  0.0824
  187SLPC   C3421585   6.522   2.186   7.447 -0.7488 -0.5840  0.3673
  187SLPC   H4X21586   6.506   2.083   7.410  1.6198  0.0287 -2.8221
  187SLPC   H4Y21587   6.427   2.237   7.474 -1.1800  0.0757 -2.1479
  187SLPC   C3521588   6.620   2.177   7.567  0.3039  0.6137  0.5148
  187SLPC   H5X21589   6.716   2.152   7.516 -0.2949 -0.4578 -0.1261
  187SLPC   H5Y21590   6.598   2.087   7.628  2.5607 -0.6550 -0.3985
  187SLPC   C3621591   6.640   2.303   7.649 -0.9525 -0.3252 -0.5351
  187SLPC   H6X21592   6.658   2.386   7.577 -0.8795  0.3425  0.2417
  187SLPC   H6Y21593   6.740   2.281   7.691 -0.9968  0.5267  0.0289
  187SLPC   C3721594   6.544   2.332   7.752 -0.2239  0.0581 -0.5727
  187SLPC   H7X21595   6.435   2.344   7.730 -0.5950 -0.5310  0.8051
  187SLPC   H7Y21596   6.539   2.246   7.823 -1.0588  0.2698 -0.3528
  187SLPC   C3821597   6.569   2.455   7.833 -0.2261 -0.8842  0.1725
  187SLPC   H8X21598   6.507   2.536   7.789 -2.3989 -1.7419  1.4563
  187SLPC   H8Y21599   6.675   2.483   7.822  0.4041 -3.6098 -1.6915
  187SLPC   C3921600   6.544   2.447   7.989  0.1742 -0.0481  0.4408
  187SLPC   H9X21601   6.622   2.385   8.037  0.0995 -0.6111 -0.1512
  187SLPC   H9Y21602   6.437   2.417   7.985  0.3496 -0.5554 -1.3271
  187SLPC  C31021603   6.539   2.587   8.060 -0.1521  0.8697  0.4120
  187SLPC  H10X21604   6.483   2.670   8.011 -1.9386  0.6304  1.9239
  187SLPC  H10Y21605   6.642   2.626   8.076 -0.0548 -0.0111  2.1697
  187SLPC  C31121606   6.483   2.572   8.199  0.2011 -0.2216 -0.0120
  187SLPC  H11X21607   6.392   2.508   8.197 -1.0801  1.3818  2.2035
  187SLPC  H11Y21608   6.454   2.670   8.243 -2.0704 -0.2876 -1.2074
  187SLPC  C31221609   6.584   2.512   8.304  0.1306  0.2852  0.6033
  187SLPC  H12X21610   6.688   2.549   8.292  1.0116 -2.8056 -4.0086
  187SLPC  H12Y21611   6.595   2.404   8.279 -2.0674 -0.2925  1.8529
  187SLPC  C31321612   6.545   2.533   8.453 -0.6935  0.2210  0.9505
  187SLPC  H13X21613   6.622   2.482   8.514  2.4214  2.5635 -0.7692
  187SLPC  H13Y21614   6.448   2.486   8.480  0.2295 -2.7580 -0.4908
  187SLPC  C31421615   6.571   2.675   8.498 -0.1057 -0.2416  0.4319
  187SLPC  H14X21616   6.506   2.742   8.438 -1.4926 -2.3786 -0.5913
  187SLPC  H14Y21617   6.674   2.709   8.478 -0.0957  0.7438  1.9872
  187SLPC  C31521618   6.552   2.687   8.649 -0.4961  0.0394  0.2129
  187SLPC  H15X21619   6.586   2.786   8.689 -0.3363 -0.5860  1.7055
  187SLPC  H15Y21620   6.604   2.606   8.704 -1.8329 -1.6698 -0.9511
  187SLPC  C31621621   6.403   2.671   8.676 -0.3458 -0.0069  0.7290
  187SLPC  H16X21622   6.362   2.574   8.639 -2.4181  0.7306  0.9319
  187SLPC  H16Y21623   6.355   2.745   8.608 -0.0905  0.1664  0.7370
  187SLPC  C31721624   6.349   2.697   8.817  0.5895  0.8082 -0.4976
  187SLPC  H17X21625   6.357   2.801   8.856  1.2123  1.0092 -1.1282
  187SLPC  H17Y21626   6.409   2.634   8.886  1.3320  1.2894 -0.6848
  187SLPC  C31821627   6.205   2.661   8.839  0.3617  0.2065 -0.0135
  187SLPC  H18X21628   6.129   2.732   8.801 -2.0840 -1.1185  2.1165
  187SLPC  H18Y21629   6.185   2.660   8.948  0.7014  0.6854  0.0561
  187SLPC  H18Z21630   6.170   2.560   8.810 -1.9820  0.4066  1.8417
  188SLPC     N21631   3.518   4.002   6.515  0.3286 -0.1818 -0.2715
  188SLPC   C1321632   3.532   4.133   6.591 -0.0827  0.0583 -0.4506
  188SLPC  H13A21633   3.438   4.185   6.595 -0.8668 -1.3227 -0.4180
  188SLPC  H13B21634   3.565   4.118   6.693 -1.4066 -1.5837 -0.2278
  188SLPC  H13C21635   3.612   4.195   6.554  0.9700 -0.8158  0.2753
  188SLPC   C1421636   3.632   3.916   6.559 -0.2842  0.2576  0.1727
  188SLPC  H14A21637   3.726   3.957   6.527  1.4128 -2.4907  1.2596
  188SLPC  H14B21638   3.638   3.903   6.666  0.1073 -0.7194  0.0407
  188SLPC  H14C21639   3.625   3.825   6.502 -3.5164  0.5867 -0.1688
  188SLPC   C1521640   3.520   4.024   6.372 -0.2345 -0.2821  0.9048
  188SLPC  H15A21641   3.505   3.932   6.319  2.5089 -0.7451  0.7828
  188SLPC  H15B21642   3.450   4.102   6.346  0.2167 -0.1003  0.2312
  188SLPC  H15C21643   3.616   4.060   6.339 -0.8865  0.3565 -0.3953
  188SLPC   C1221644   3.391   3.924   6.550 -0.3601  0.7415  0.4512
  188SLPC  H12A21645   3.305   3.978   6.512 -0.5916  0.0395 -0.0359
  188SLPC  H12B21646   3.381   3.907   6.656 -0.0842 -1.3518  0.1824
  188SLPC   C1121647   3.378   3.783   6.493  0.4481  0.1796 -0.2165
  188SLPC  H11A21648   3.288   3.734   6.537  1.7388  0.5827  3.1602
  188SLPC  H11B21649   3.466   3.728   6.533  1.1237  1.5321  0.2190
  188SLPC     P21650   3.232   3.815   6.278  0.1115 -0.2503  0.6186
  188SLPC   O1321651   3.252   3.840   6.133  0.2614  0.6367 -0.3674
  188SLPC   O1421652   3.132   3.717   6.306 -0.0541  0.4848 -0.3751
  188SLPC   O1221653   3.368   3.786   6.348  0.3401 -0.9071  0.2710
  188SLPC   O1121654   3.190   3.954   6.347  0.1733  0.4636  0.4991
  188SLPC    C121655   3.059   4.016   6.336  0.2156 -0.2663  0.0573
  188SLPC    HA21656   3.067   4.124   6.310 -3.2323  0.1696  0.4547
  188SLPC    HB21657   2.994   3.980   6.253  0.6293 -1.0800  0.0733
  188SLPC    C221658   2.975   4.017   6.464  0.1556  0.4406 -0.2262
  188SLPC    HS21659   2.893   4.092   6.460  0.0305  0.3189  0.0486
  188SLPC   O2121660   3.064   4.057   6.570  0.2672 -0.3907 -0.5235
  188SLPC   C2121661   3.073   4.185   6.592  0.1181 -0.0120 -0.8841
  188SLPC   O2221662   3.009   4.278   6.540 -0.3561  0.2268 -0.2059
  188SLPC   C2221663   3.172   4.208   6.712  0.1950 -0.7859  0.3135
  188SLPC   H2R21664   3.265   4.149   6.690  0.5068  0.3823 -1.8183
  188SLPC   H2S21665   3.191   4.317   6.719  1.0130 -0.9726  1.2406
  188SLPC    C321666   2.900   3.880   6.494  0.3030  0.3686 -1.0143
  188SLPC    HX21667   2.974   3.796   6.493  0.8374  0.6711  2.1082
  188SLPC    HY21668   2.828   3.866   6.411 -0.1417 -0.7377 -0.4660
  188SLPC   O3121669   2.820   3.883   6.617 -0.2235  0.0754 -0.2058
  188SLPC   C3121670   2.851   3.809   6.719 -0.2744  0.4781  0.4284
  188SLPC   O3221671   2.950   3.739   6.729  0.0194  0.1745  0.5235
  188SLPC   C3221672   2.745   3.822   6.827  0.7219 -0.1114 -0.3541
  188SLPC   H2X21673   2.650   3.785   6.784  0.5564 -0.8802  0.6356
  188SLPC   H2Y21674   2.746   3.929   6.859 -0.2373 -0.2121  0.0487
  188SLPC   C2321675   3.114   4.153   6.848 -0.0790 -0.7106 -0.1307
  188SLPC   H3R21676   3.203   4.101   6.890 -0.0231  0.7158  1.6459
  188SLPC   H3S21677   3.029   4.081   6.849 -3.0864  2.5596  0.1236
  188SLPC   C2421678   3.063   4.270   6.934  0.2473  0.5973 -0.1553
  188SLPC   H4R21679   2.973   4.320   6.890  1.1537  0.8743 -1.7793
  188SLPC   H4S21680   3.144   4.343   6.954  1.0984 -0.2026 -0.5929
  188SLPC   C2521681   3.017   4.224   7.083  0.2920 -0.3831 -0.3991
  188SLPC   H5R21682   3.105   4.217   7.150 -2.0244 -2.1891  2.7229
  188SLPC   H5S21683   2.975   4.121   7.088 -0.2288 -0.1792 -0.5077
  188SLPC   C2621684   2.915   4.324   7.138  0.2842  0.3714 -0.8486
  188SLPC   H6R21685   2.812   4.302   7.100 -0.8607  3.9182 -0.1374
  188SLPC   H6S21686   2.943   4.429   7.116 -1.2068  0.7921 -0.8252
  188SLPC   C2721687   2.885   4.299   7.288 -0.7773 -0.3583  0.1442
  188SLPC   H7R21688   2.979   4.281   7.344  0.1187  1.0250 -0.8592
  188SLPC   H7S21689   2.827   4.205   7.306  0.8761 -0.9375  3.0304
  188SLPC   C2821690   2.813   4.420   7.350 -0.1081  0.9491 -0.0619
  188SLPC   H8R21691   2.761   4.378   7.439  2.3593 -3.3698 -0.3650
  188SLPC   H8S21692   2.733   4.456   7.283  0.1255  0.7542 -0.4478
  188SLPC   C2921693   2.908   4.538   7.380  0.2829  0.9198  0.1748
  188SLPC   H9R21694   2.929   4.603   7.294 -2.4678 -1.0284 -2.1493
  188SLPC  C21021695   2.944   4.573   7.503 -0.3687  0.3277  0.0595
  188SLPC  H10R21696   3.007   4.663   7.508 -1.2604  1.0769 -1.4116
  188SLPC  C21121697   2.914   4.509   7.634 -0.4275  0.3477 -0.3922
  188SLPC  H11R21698   2.830   4.437   7.620 -1.0757  1.3473 -1.9038
  188SLPC  H11S21699   2.885   4.585   7.710 -0.6765 -0.5506  0.4393
  188SLPC  C21221700   3.036   4.432   7.676  0.9138  0.5137  0.1229
  188SLPC  H12R21701   3.058   4.340   7.621 -1.3787  0.2126 -0.3790
  188SLPC  C21321702   3.122   4.473   7.770 -0.0997  0.8408 -0.5857
  188SLPC  H13R21703   3.215   4.417   7.787  0.4681  1.0609 -2.7103
  188SLPC  C21421704   3.117   4.587   7.855  0.0266 -0.7660 -0.1478
  188SLPC  H14R21705   3.010   4.603   7.884 -0.1621 -3.9924  1.4006
  188SLPC  H14S21706   3.159   4.679   7.808  2.5783 -1.1552  1.2113
  188SLPC  C21521707   3.206   4.560   7.978  0.2091 -0.1800 -1.0244
  188SLPC  H15R21708   3.305   4.515   7.955  1.1738 -0.6851  3.2022
  188SLPC  H15S21709   3.147   4.490   8.040  0.3362  1.3050  0.8913
  188SLPC  C21621710   3.235   4.688   8.069  0.4864  0.3997  0.3314
  188SLPC  H16R21711   3.133   4.710   8.108  0.5129 -0.7178  1.0755
  188SLPC  H16S21712   3.266   4.776   8.010 -0.6105  0.9868  0.5975
  188SLPC  C21721713   3.341   4.659   8.171 -0.1616  0.1331  0.5895
  188SLPC  H17R21714   3.441   4.664   8.123  0.1918  0.6879  1.3617
  188SLPC  H17S21715   3.329   4.565   8.228 -0.7488 -0.1433  0.0263
  188SLPC  C21821716   3.368   4.761   8.283  0.9236 -0.2654 -0.6097
  188SLPC  H18R21717   3.470   4.762   8.328  0.8592  1.4978 -0.4020
  188SLPC  H18S21718   3.291   4.748   8.362  0.6747  1.2986 -0.5482
  188SLPC  H18T21719   3.351   4.858   8.231 -0.1472 -0.7696 -1.2264
  188SLPC   C3321720   2.772   3.736   6.951  0.7215  0.3149  0.0343
  188SLPC   H3X21721   2.880   3.735   6.979  0.8643  0.1731 -0.4967
  188SLPC   H3Y21722   2.742   3.630   6.940 -0.2008  0.6905 -1.4171
  188SLPC   C3421723   2.689   3.789   7.074  0.1784  0.3498  0.0308
  188SLPC   H4X21724   2.706   3.713   7.153 -0.8805 -0.3927 -0.4478
  188SLPC   H4Y21725   2.581   3.793   7.049  0.1489  0.8757  0.2208
  188SLPC   C3521726   2.739   3.927   7.131 -0.1585  0.6227  0.1151
  188SLPC   H5X21727   2.727   4.008   7.056 -0.6889  2.5762  2.1861
  188SLPC   H5Y21728   2.847   3.906   7.149  0.0201  2.6433  1.7617
  188SLPC   C3621729   2.669   3.966   7.264  0.4463 -0.1564  0.1297
  188SLPC   H6X21730   2.754   3.996   7.328  0.8219 -0.0176 -0.4381
  188SLPC   H6Y21731   2.615   3.877   7.304  2.9088 -2.7858 -1.9921
  188SLPC   C3721732   2.570   4.073   7.244  0.4303 -0.0670  0.2555
  188SLPC   H7X21733   2.501   4.045   7.161 -0.1256 -0.4447  0.8328
  188SLPC   H7Y21734   2.616   4.172   7.225  0.7331 -0.5100 -1.4813
  188SLPC   C3821735   2.475   4.089   7.362  0.0054  0.5178  1.0024
  188SLPC   H8X21736   2.396   4.012   7.352 -0.4691  1.3186 -4.3101
  188SLPC   H8Y21737   2.420   4.185   7.356  1.7493  1.4765 -1.7735
  188SLPC   C3921738   2.538   4.101   7.496 -0.4349  0.4234 -0.7838
  188SLPC   H9X21739   2.612   4.184   7.492 -0.0199 -0.0052 -2.9186
  188SLPC   H9Y21740   2.609   4.018   7.518  1.1410  1.6570 -1.0526
  188SLPC  C31021741   2.439   4.126   7.609 -0.5667 -0.0904 -0.2917
  188SLPC  H10X21742   2.359   4.050   7.595 -1.4778  0.4819  1.3907
  188SLPC  H10Y21743   2.380   4.219   7.591 -0.2956 -0.1888 -1.8148
  188SLPC  C31121744   2.504   4.118   7.748 -0.6380 -0.2738  0.4422
  188SLPC  H11X21745   2.538   4.015   7.767  2.9359  0.4034 -1.4747
  188SLPC  H11Y21746   2.432   4.138   7.831 -0.6570 -0.7253  0.5343
  188SLPC  C31221747   2.622   4.210   7.770 -0.0194 -0.2480  0.4110
  188SLPC  H12X21748   2.584   4.299   7.714 -2.4149 -0.9858  0.7687
  188SLPC  H12Y21749   2.703   4.152   7.721 -0.1169 -0.0502  0.0074
  188SLPC  C31321750   2.657   4.235   7.922 -0.0577  0.6317  0.0817
  188SLPC  H13X21751   2.565   4.278   7.967  0.1979  1.2665  0.0044
  188SLPC  H13Y21752   2.754   4.290   7.920  1.4271 -1.8106 -0.3548
  188SLPC  C31421753   2.676   4.109   8.004  0.3878 -0.7492 -0.4605
  188SLPC  H14X21754   2.583   4.049   7.994 -0.7977  0.7776  0.9035
  188SLPC  H14Y21755   2.692   4.143   8.109 -0.7376  0.7580 -0.7407
  188SLPC  C31521756   2.795   4.018   7.970  0.6020 -0.0916 -0.0244
  188SLPC  H15X21757   2.894   4.069   7.967  1.2626 -1.3740 -0.6114
  188SLPC  H15Y21758   2.787   3.986   7.864  0.6070  0.9039 -0.3410
  188SLPC  C31621759   2.809   3.902   8.065 -0.2393  0.5093  0.2142
  188SLPC  H16X21760   2.735   3.830   8.023 -1.8344  3.4055 -2.2948
  188SLPC  H16Y21761   2.788   3.936   8.169 -0.2740  2.1160 -0.2916
  188SLPC  C31721762   2.951   3.847   8.056 -0.3004  0.0694  0.1941
  188SLPC  H17X21763   3.017   3.922   8.104 -3.1665  2.0782  1.3015
  188SLPC  H17Y21764   2.958   3.823   7.948  0.1142 -0.9551  0.4381
  188SLPC  C31821765   2.964   3.707   8.115 -0.8464 -0.1620 -0.6429
  188SLPC  H18X21766   2.889   3.637   8.073 -1.1237 -0.1390 -0.1884
  188SLPC  H18Y21767   2.946   3.719   8.224  0.2358 -1.9709 -0.2140
  188SLPC  H18Z21768   3.069   3.671   8.105 -0.5543  0.1889  0.9390
  189SLPC     N21769   5.760   1.846   6.123  0.3759 -0.1810 -0.1914
  189SLPC   C1321770   5.659   1.771   6.199 -0.4926  0.2838  0.4944
  189SLPC  H13A21771   5.696   1.723   6.289 -1.5429  0.8490  1.2508
  189SLPC  H13B21772   5.573   1.829   6.229 -2.4124 -0.2296 -3.3958
  189SLPC  H13C21773   5.626   1.694   6.132  3.7873 -0.5551 -0.9483
  189SLPC   C1421774   5.692   1.902   6.000 -0.0795  0.2278 -0.3538
  189SLPC  H14A21775   5.614   1.972   6.025  0.4275  0.9320 -0.7173
  189SLPC  H14B21776   5.759   1.955   5.934 -0.0032  0.6154  0.0337
  189SLPC  H14C21777   5.650   1.821   5.942 -0.2443  0.9367 -1.2376
  189SLPC   C1521778   5.876   1.758   6.084 -0.0694 -1.3681  0.4426
  189SLPC  H15A21779   5.841   1.659   6.062  0.4138 -1.2748 -0.8472
  189SLPC  H15B21780   5.923   1.786   5.991 -0.1127  0.8792  1.0187
  189SLPC  H15C21781   5.952   1.758   6.161 -1.5456  0.0885  2.0007
  189SLPC   C1221782   5.825   1.962   6.210 -0.1380  0.0434 -0.2855
  189SLPC  H12A21783   5.856   1.914   6.302  2.5908  2.5843  0.2674
  189SLPC  H12B21784   5.747   2.031   6.236  0.5074  0.3327  0.9419
  189SLPC   C1121785   5.948   2.041   6.165  0.5722 -0.1702  0.5233
  189SLPC  H11A21786   5.968   2.127   6.232 -0.4068  1.0366 -0.6891
  189SLPC  H11B21787   5.930   2.093   6.069  1.3431  2.4733  1.7146
  189SLPC     P21788   6.150   1.937   6.293  0.0817  0.3088  0.2374
  189SLPC   O1321789   6.263   1.850   6.266 -0.4671 -0.4898 -0.0630
  189SLPC   O1421790   6.184   2.070   6.344 -0.0261 -0.9202  0.7025
  189SLPC   O1221791   6.066   1.965   6.162 -0.1530  0.1961 -0.3668
  189SLPC   O1121792   6.049   1.865   6.387  0.5958 -0.6740 -0.1970
  189SLPC    C121793   6.093   1.773   6.481  0.3008  0.0756 -0.3544
  189SLPC    HA21794   6.196   1.799   6.511  0.3493 -0.6771  0.1679
  189SLPC    HB21795   6.049   1.798   6.581  1.8479 -3.3655  1.3562
  189SLPC    C221796   6.057   1.625   6.452  0.5039  0.6352  0.0005
  189SLPC    HS21797   5.994   1.621   6.361  0.9128  1.1985 -0.3160
  189SLPC   O2121798   5.973   1.566   6.561 -0.4623  0.2000  0.2067
  189SLPC   C2121799   5.860   1.637   6.594 -0.8038  0.1158 -0.5832
  189SLPC   O2221800   5.819   1.729   6.529  0.2385 -0.0544  0.2070
  189SLPC   C2221801   5.789   1.588   6.718  0.2771 -0.0395  0.7856
  189SLPC   H2R21802   5.699   1.645   6.749 -2.4637 -4.2600  1.2335
  189SLPC   H2S21803   5.744   1.488   6.705 -0.4612  0.1610  1.6856
  189SLPC    C321804   6.188   1.549   6.431  0.0196  0.9603 -0.0253
  189SLPC    HX21805   6.243   1.594   6.345  0.6258  2.4814  1.1113
  189SLPC    HY21806   6.156   1.444   6.414  2.6664 -0.3337  2.0956
  189SLPC   O3121807   6.274   1.547   6.547 -0.0760 -0.9947  0.1918
  189SLPC   C3121808   6.299   1.429   6.607 -0.2639 -0.0928  1.0534
  189SLPC   O3221809   6.256   1.318   6.570 -0.2376  0.0309  0.2689
  189SLPC   C3221810   6.363   1.454   6.745 -0.1721 -0.0395 -0.5166
  189SLPC   H2X21811   6.305   1.533   6.798  0.3269  0.7135 -1.0686
  189SLPC   H2Y21812   6.461   1.498   6.718 -0.5346  0.2416 -1.4290
  189SLPC   C2321813   5.874   1.558   6.842 -0.0574 -0.3434 -0.3872
  189SLPC   H3R21814   5.975   1.528   6.806 -0.3883  0.5491 -2.2216
  189SLPC   H3S21815   5.841   1.468   6.898 -0.8665  0.2146  0.0519
  189SLPC   C2421816   5.889   1.680   6.925 -0.3488  0.7268 -0.4430
  189SLPC   H4R21817   5.918   1.771   6.868 -0.7259  0.5320 -0.9475
  189SLPC   H4S21818   5.969   1.659   7.000 -0.9732 -1.0794 -0.2492
  189SLPC   C2521819   5.756   1.714   7.001 -0.2136  0.4525 -0.1362
  189SLPC   H5R21820   5.720   1.624   7.056  0.5348  0.8261  1.0019
  189SLPC   H5S21821   5.671   1.744   6.936  0.9289 -1.0142 -2.4481
  189SLPC   C2621822   5.784   1.806   7.118  0.6181 -0.2756 -0.1939
  189SLPC   H6R21823   5.780   1.906   7.069  1.0602  0.6742  1.6179
  189SLPC   H6S21824   5.888   1.794   7.156  0.5801  1.1614  0.4389
  189SLPC   C2721825   5.680   1.794   7.228  0.4221  0.3867 -0.0744
  189SLPC   H7R21826   5.579   1.793   7.183 -1.7626 -1.6023  4.2424
  189SLPC   H7S21827   5.683   1.884   7.293  1.8980  0.1490  0.2330
  189SLPC   C2821828   5.711   1.679   7.324 -0.7549  0.1447 -0.5963
  189SLPC   H8R21829   5.742   1.598   7.256  0.3911  0.6280 -0.6765
  189SLPC   H8S21830   5.619   1.661   7.384  0.1477  0.0894  0.8334
  189SLPC   C2921831   5.826   1.717   7.418 -0.1673 -0.3150 -0.0652
  189SLPC   H9R21832   5.905   1.783   7.380 -1.8165  2.5790  1.2496
  189SLPC  C21021833   5.823   1.690   7.548 -0.1501 -0.1855 -0.2554
  189SLPC  H10R21834   5.899   1.734   7.615 -0.2891  0.8502 -0.7561
  189SLPC  C21121835   5.711   1.623   7.626 -0.4364  0.3093  0.4914
  189SLPC  H11R21836   5.613   1.666   7.598 -0.5857 -0.6425 -0.5143
  189SLPC  H11S21837   5.725   1.655   7.732 -1.7756  1.3616  0.3870
  189SLPC  C21221838   5.701   1.475   7.622 -0.4817  0.4081  0.1893
  189SLPC  H12R21839   5.750   1.426   7.537 -1.3699  2.9774 -1.9450
  189SLPC  C21321840   5.629   1.405   7.711  0.0548 -0.2970  0.3889
  189SLPC  H13R21841   5.619   1.296   7.699 -1.4454 -0.1361  0.0852
  189SLPC  C21421842   5.545   1.453   7.829  0.4346  0.5810 -0.4143
  189SLPC  H14R21843   5.439   1.417   7.830  0.3729  0.5442  3.1099
  189SLPC  H14S21844   5.524   1.562   7.835 -0.4906  0.4738 -1.3311
  189SLPC  C21521845   5.599   1.403   7.968 -0.1086  0.0066 -0.1513
  189SLPC  H15R21846   5.625   1.295   7.962  1.1232  0.3198 -0.6849
  189SLPC  H15S21847   5.522   1.400   8.048  1.1184 -1.0143  1.0526
  189SLPC  C21621848   5.716   1.481   8.033 -0.3405 -0.6107  0.4011
  189SLPC  H16R21849   5.686   1.585   8.058 -0.4159 -0.1548 -1.4315
  189SLPC  H16S21850   5.794   1.495   7.956  0.3661 -3.2854  0.5333
  189SLPC  C21721851   5.787   1.401   8.153  0.4507 -0.3614 -0.1132
  189SLPC  H17R21852   5.872   1.466   8.184 -0.9782  0.8482  1.4755
  189SLPC  H17S21853   5.835   1.309   8.113  0.8829 -0.0140 -0.4027
  189SLPC  C21821854   5.695   1.356   8.276  0.0680  0.0190 -0.1142
  189SLPC  H18R21855   5.660   1.444   8.335  0.2005  1.7615 -2.4578
  189SLPC  H18S21856   5.752   1.285   8.339 -1.8523 -4.1583 -2.6242
  189SLPC  H18T21857   5.604   1.306   8.235  0.1853 -0.5012  0.2532
  189SLPC   C3321858   6.384   1.323   6.829  0.2064  0.5762 -0.1144
  189SLPC   H3X21859   6.461   1.255   6.787 -0.6415  0.2006 -1.1144
  189SLPC   H3Y21860   6.288   1.268   6.816 -0.2176  1.3566 -0.3633
  189SLPC   C3421861   6.400   1.331   6.979  0.3353 -0.8252  0.9694
  189SLPC   H4X21862   6.496   1.384   6.997 -0.2184  1.3097 -1.7665
  189SLPC   H4Y21863   6.390   1.228   7.020  0.3333 -2.2624 -2.3543
  189SLPC   C3521864   6.289   1.413   7.045 -0.6092 -0.6682  0.8135
  189SLPC   H5X21865   6.187   1.388   7.009  0.4766 -3.0006 -0.9057
  189SLPC   H5Y21866   6.305   1.517   7.012 -2.2849 -0.8597 -0.7809
  189SLPC   C3621867   6.293   1.407   7.195  0.5278  0.4222  0.0861
  189SLPC   H6X21868   6.283   1.297   7.210  2.5513  0.3131  0.9500
  189SLPC   H6Y21869   6.207   1.448   7.251  0.6974 -2.5823  2.8515
  189SLPC   C3721870   6.414   1.462   7.262 -0.6494 -0.0028 -0.0567
  189SLPC   H7X21871   6.428   1.569   7.234 -2.4860  0.0773 -0.8316
  189SLPC   H7Y21872   6.504   1.402   7.239  0.6897  2.6708 -2.4575
  189SLPC   C3821873   6.390   1.449   7.414  0.5301 -0.6010 -0.5806
  189SLPC   H8X21874   6.394   1.343   7.448 -0.6523 -0.2864  0.6035
  189SLPC   H8Y21875   6.294   1.484   7.456  0.9446 -1.1041  0.8598
  189SLPC   C3921876   6.506   1.524   7.491 -0.0255 -0.1571  0.6640
  189SLPC   H9X21877   6.503   1.631   7.459 -1.0063 -0.0125  1.2208
  189SLPC   H9Y21878   6.603   1.486   7.452 -0.6777  0.9988 -2.3702
  189SLPC  C31021879   6.482   1.506   7.641  0.7093  0.4142  0.5216
  189SLPC  H10X21880   6.581   1.511   7.692  1.2494  1.3946 -0.5843
  189SLPC  H10Y21881   6.449   1.400   7.647 -0.5440  0.7825  0.4097
  189SLPC  C31121882   6.381   1.606   7.721 -0.3427  0.1673  0.3112
  189SLPC  H11X21883   6.282   1.594   7.674  0.2295 -1.4742 -0.5376
  189SLPC  H11Y21884   6.427   1.708   7.721  0.0675 -0.0139 -0.0385
  189SLPC  C31221885   6.366   1.560   7.868 -0.4111  0.5879  0.1733
  189SLPC  H12X21886   6.386   1.451   7.863 -1.7450  0.0494  3.6324
  189SLPC  H12Y21887   6.259   1.567   7.898 -1.0216 -2.6423 -0.8933
  189SLPC  C31321888   6.460   1.621   7.969 -0.8476  0.2352 -0.4030
  189SLPC  H13X21889   6.447   1.731   7.964 -0.7238  0.2426 -0.5870
  189SLPC  H13Y21890   6.569   1.613   7.947 -0.9976  1.0224 -1.5648
  189SLPC  C31421891   6.426   1.586   8.115 -0.1428  0.6701 -0.1035
  189SLPC  H14X21892   6.496   1.512   8.161 -1.5911  0.6408  2.2175
  189SLPC  H14Y21893   6.322   1.549   8.126  0.5208 -0.6257  3.2825
  189SLPC  C31521894   6.437   1.705   8.221 -0.4077  0.3718  0.5134
  189SLPC  H15X21895   6.344   1.759   8.195 -0.2880  0.5227  0.3986
  189SLPC  H15Y21896   6.523   1.769   8.193 -0.6650  0.2656 -0.5804
  189SLPC  C31621897   6.425   1.646   8.367  0.2888  0.3728 -0.2509
  189SLPC  H16X21898   6.335   1.581   8.370  1.0867 -0.8440 -1.5037
  189SLPC  H16Y21899   6.419   1.723   8.447  1.4182  0.2311 -0.0199
  189SLPC  C31721900   6.557   1.578   8.405  0.0602  0.1791  0.5137
  189SLPC  H17X21901   6.639   1.637   8.359  0.3255  0.0408  0.8034
  189SLPC  H17Y21902   6.566   1.474   8.368  1.8857  0.8728 -1.1668
  189SLPC  C31821903   6.596   1.593   8.552  0.4240 -0.5713  0.4016
  189SLPC  H18X21904   6.517   1.548   8.616  0.2196 -0.6987  0.0597
  189SLPC  H18Y21905   6.604   1.696   8.593  0.0806 -0.1986 -0.4420
  189SLPC  H18Z21906   6.693   1.545   8.575 -0.2171 -2.6237 -0.9138
  190SLPC     N21907   4.592   4.449   6.171  0.1000  0.8032 -0.0895
  190SLPC   C1321908   4.508   4.374   6.075 -0.0958  0.2773  0.5294
  190SLPC  H13A21909   4.430   4.431   6.027 -0.1901 -1.1152 -1.0462
  190SLPC  H13B21910   4.570   4.337   5.995 -1.1270  3.3353 -1.9094
  190SLPC  H13C21911   4.464   4.291   6.127  0.7194 -0.4764  0.0477
  190SLPC   C1421912   4.648   4.569   6.109  0.3850 -0.2407  0.3960
  190SLPC  H14A21913   4.572   4.635   6.069  1.9791  0.8322 -0.9964
  190SLPC  H14B21914   4.707   4.620   6.183  0.3420 -0.0460  0.2965
  190SLPC  H14C21915   4.706   4.553   6.019 -1.0411  1.9416 -1.0254
  190SLPC   C1521916   4.701   4.368   6.226 -0.2805 -0.1408 -0.8963
  190SLPC  H15A21917   4.665   4.280   6.277 -3.0878  0.8255 -1.0660
  190SLPC  H15B21918   4.758   4.349   6.136 -1.5191  0.1714 -1.7674
  190SLPC  H15C21919   4.757   4.417   6.304 -2.1833 -1.5218  1.4718
  190SLPC   C1221920   4.496   4.501   6.279  0.7034 -0.3015 -0.2127
  190SLPC  H12A21921   4.449   4.421   6.334  0.5493  0.6625  1.1149
  190SLPC  H12B21922   4.416   4.553   6.227 -0.6472 -0.0639  1.9675
  190SLPC   C1121923   4.553   4.597   6.384 -0.6612 -0.3643  0.3190
  190SLPC  H11A21924   4.625   4.553   6.457  2.3004  2.3229 -0.7377
  190SLPC  H11B21925   4.468   4.638   6.442  0.6282  3.3662 -0.1981
  190SLPC     P21926   4.713   4.804   6.407 -0.2199  0.0092 -0.2237
  190SLPC   O1321927   4.803   4.722   6.482 -0.5718 -0.2955  0.7483
  190SLPC   O1421928   4.773   4.904   6.319  0.1246 -0.7718  0.4675
  190SLPC   O1221929   4.615   4.710   6.323 -0.2159 -0.6767  1.0485
  190SLPC   O1121930   4.617   4.880   6.503 -0.3098  0.1230  0.4578
  190SLPC    C121931   4.503   4.942   6.446  0.0334 -0.1201 -0.6362
  190SLPC    HA21932   4.535   5.043   6.413 -2.3758  0.6481 -0.8286
  190SLPC    HB21933   4.459   4.890   6.358 -1.0758 -1.6544  0.7638
  190SLPC    C221934   4.387   4.959   6.549 -0.6242  0.0878  0.5906
  190SLPC    HS21935   4.301   5.012   6.502 -0.0754 -0.9747 -1.7694
  190SLPC   O2121936   4.442   5.030   6.665 -0.1868 -0.3382  0.3554
  190SLPC   C2121937   4.470   5.162   6.646 -0.3678  0.8170 -0.4478
  190SLPC   O2221938   4.445   5.217   6.541  0.0029 -0.5707  0.2796
  190SLPC   C2221939   4.538   5.218   6.775  0.1986  0.0549  0.0258
  190SLPC   H2R21940   4.600   5.134   6.813  1.9664  0.4586 -1.7899
  190SLPC   H2S21941   4.597   5.309   6.755 -0.7779  0.5424 -0.7109
  190SLPC    C321942   4.336   4.820   6.591  1.3718 -0.5072 -0.0672
  190SLPC    HX21943   4.413   4.749   6.630  2.8138  0.8117 -0.4094
  190SLPC    HY21944   4.297   4.773   6.498  3.5583  0.6517 -1.6624
  190SLPC   O3121945   4.225   4.832   6.688  0.0055  0.1466  0.0346
  190SLPC   C3121946   4.269   4.848   6.817  0.5699 -0.2962 -0.1153
  190SLPC   O3221947   4.380   4.828   6.860  0.2320  0.3266 -0.1642
  190SLPC   C3221948   4.147   4.884   6.898 -0.2684 -0.3749  0.7345
  190SLPC   H2X21949   4.071   4.803   6.894  1.2688 -1.8705 -2.7532
  190SLPC   H2Y21950   4.115   4.977   6.846 -0.2103 -0.4971  0.4744
  190SLPC   C2321951   4.433   5.252   6.886  0.5254  0.4265 -0.1739
  190SLPC   H3R21952   4.376   5.159   6.906  1.2627 -0.0646 -0.3256
  190SLPC   H3S21953   4.363   5.329   6.846  0.0377  0.4100  0.6128
  190SLPC   C2421954   4.497   5.287   7.022 -0.1915 -0.3311 -0.2422
  190SLPC   H4R21955   4.574   5.365   7.007 -1.0612  0.6946  0.5291
  190SLPC   H4S21956   4.545   5.197   7.067  0.2218 -0.7964 -1.5600
  190SLPC   C2521957   4.397   5.353   7.117  0.2164  0.0586  0.0180
  190SLPC   H5R21958   4.317   5.276   7.130 -0.6628  0.9055 -0.2732
  190SLPC   H5S21959   4.354   5.440   7.064  1.2417 -0.1590 -1.2269
  190SLPC   C2621960   4.448   5.388   7.258 -1.3950 -0.2086 -0.3688
  190SLPC   H6R21961   4.539   5.450   7.246 -2.1168  0.6528 -1.6633
  190SLPC   H6S21962   4.490   5.293   7.297  0.6686  1.6921  2.3892
  190SLPC   C2721963   4.345   5.449   7.364  0.2297 -0.0312 -0.9166
  190SLPC   H7R21964   4.301   5.539   7.315 -0.1058  0.3117 -0.0008
  190SLPC   H7S21965   4.403   5.488   7.451  1.7310 -0.6629 -1.5935
  190SLPC   C2821966   4.239   5.351   7.412 -0.2376  0.3593  0.0629
  190SLPC   H8R21967   4.285   5.250   7.423  0.9543  1.0749  2.1646
  190SLPC   H8S21968   4.155   5.340   7.341 -1.2787 -0.6442  1.4061
  190SLPC   C2921969   4.186   5.410   7.536  0.6022  0.4387  0.1193
  190SLPC   H9R21970   4.123   5.498   7.515  0.2130 -0.3892 -2.5986
  190SLPC  C21021971   4.231   5.379   7.663  0.0650 -0.4229  0.4119
  190SLPC  H10R21972   4.186   5.423   7.753 -0.1050 -0.2393  0.2397
  190SLPC  C21121973   4.341   5.275   7.691  0.1580  0.0159  0.3532
  190SLPC  H11R21974   4.427   5.311   7.631  0.9051  1.7179  2.3429
  190SLPC  H11S21975   4.309   5.175   7.654 -0.1401  0.2519 -0.0277
  190SLPC  C21221976   4.397   5.270   7.832 -0.3815  0.7278 -0.5593
  190SLPC  H12R21977   4.489   5.327   7.846 -0.6932  2.2369 -3.7399
  190SLPC  C21321978   4.345   5.222   7.946  0.8166  0.7474  1.0075
  190SLPC  H13R21979   4.413   5.213   8.032  0.1264 -0.3719  1.4561
  190SLPC  C21421980   4.218   5.149   7.955 -0.1205  0.2339  0.3360
  190SLPC  H14R21981   4.238   5.042   7.979  0.4610  0.2321 -0.1067
  190SLPC  H14S21982   4.166   5.146   7.857  0.0188 -2.8264  0.2656
  190SLPC  C21521983   4.121   5.211   8.057 -0.3114  0.2933  0.2189
  190SLPC  H15R21984   4.022   5.203   8.007 -2.3032 -1.9976  4.0075
  190SLPC  H15S21985   4.144   5.320   8.061  1.2915 -0.0392  1.1599
  190SLPC  C21621986   4.126   5.135   8.186  1.1707 -0.4995  0.6159
  190SLPC  H16R21987   4.231   5.144   8.220  0.8043  2.7260  1.2088
  190SLPC  H16S21988   4.093   5.029   8.176  0.7533 -0.4273  1.1677
  190SLPC  C21721989   4.035   5.203   8.294 -0.5272  0.3412  0.6580
  190SLPC  H17R21990   4.069   5.309   8.292  1.2844 -0.2128 -0.9776
  190SLPC  H17S21991   4.051   5.140   8.384 -1.0582 -1.4408 -0.4409
  190SLPC  C21821992   3.887   5.200   8.267  0.2757 -0.6207 -0.3632
  190SLPC  H18R21993   3.833   5.244   8.353  2.9969 -1.9610  2.1756
  190SLPC  H18S21994   3.854   5.095   8.249  0.2414 -0.8770  1.1159
  190SLPC  H18T21995   3.872   5.258   8.173 -1.1598  0.8614  0.7110
  190SLPC   C3321996   4.198   4.905   7.043  0.1748 -0.0281  0.0899
  190SLPC   H3X21997   4.296   4.957   7.040  0.0549  0.2136  0.3849
  190SLPC   H3Y21998   4.220   4.805   7.086 -0.3597 -0.0190  0.3945
  190SLPC   C3421999   4.109   4.991   7.136 -0.8990  0.2140 -0.4769
  190SLPC   H4X22000   4.104   5.088   7.082  1.2543 -0.6275 -2.3709
  190SLPC   H4Y22001   4.152   5.016   7.235 -1.7467  0.3890 -0.1383
  190SLPC   C3522002   3.969   4.931   7.174  0.6997 -0.3840  0.3966
  190SLPC   H5X22003   3.971   4.826   7.209 -1.2166  0.4522  3.3099
  190SLPC   H5Y22004   3.896   4.944   7.091 -1.0110 -0.1334  1.8926
  190SLPC   C3622005   3.908   5.006   7.301 -0.3037 -0.8674 -0.0930
  190SLPC   H6X22006   3.995   4.982   7.365 -0.5256 -1.4351 -0.0070
  190SLPC   H6Y22007   3.821   4.942   7.327 -0.5698  0.3639  2.2938
  190SLPC   C3722008   3.880   5.161   7.285  0.5307 -0.2991 -0.2609
  190SLPC   H7X22009   3.827   5.184   7.190  2.5460 -1.8986 -1.8817
  190SLPC   H7Y22010   3.979   5.212   7.275  0.1261  0.4181 -0.6995
  190SLPC   C3822011   3.797   5.229   7.406 -0.0365  0.2663  0.1567
  190SLPC   H8X22012   3.699   5.177   7.399  0.0117  0.2333 -0.3068
  190SLPC   H8Y22013   3.779   5.337   7.385 -2.1647  0.2846  1.7782
  190SLPC   C3922014   3.863   5.206   7.549  0.0703  0.5956  0.3342
  190SLPC   H9X22015   3.962   5.257   7.550  0.3702  0.1580 -2.1669
  190SLPC   H9Y22016   3.877   5.099   7.577  1.9569  1.5464  3.6084
  190SLPC  C31022017   3.775   5.274   7.655  0.1351 -0.0652  0.0197
  190SLPC  H10X22018   3.676   5.222   7.658  0.0946  0.0511  1.8788
  190SLPC  H10Y22019   3.761   5.382   7.631  2.2232 -0.3959 -3.3280
  190SLPC  C31122020   3.839   5.247   7.786 -0.0688 -0.4555 -0.3457
  190SLPC  H11X22021   3.939   5.297   7.786  0.4803 -1.4922  0.7321
  190SLPC  H11Y22022   3.851   5.137   7.798  1.8077 -0.1368  1.3589
  190SLPC  C31222023   3.750   5.293   7.905  0.4094  0.3530  0.1369
  190SLPC  H12X22024   3.755   5.232   7.998 -1.6923  2.4161  1.7395
  190SLPC  H12Y22025   3.644   5.309   7.877  0.0185 -2.5361 -0.3082
  190SLPC  C31322026   3.805   5.432   7.945 -0.0203 -0.6009 -0.2021
  190SLPC  H13X22027   3.800   5.499   7.857 -1.0625 -1.6837 -1.0013
  190SLPC  H13Y22028   3.910   5.417   7.979  0.1165  0.0355 -0.3198
  190SLPC  C31422029   3.726   5.495   8.052  0.2964 -0.4396  0.1039
  190SLPC  H14X22030   3.735   5.426   8.139 -0.4492 -1.1291 -0.3476
  190SLPC  H14Y22031   3.625   5.512   8.008  0.7776  0.1883 -0.8003
  190SLPC  C31522032   3.771   5.635   8.097 -0.5734  0.3086  0.5898
  190SLPC  H15X22033   3.727   5.707   8.025  2.0872  1.0546 -0.4208
  190SLPC  H15Y22034   3.878   5.636   8.067 -0.4892  0.8761  0.8927
  190SLPC  C31622035   3.766   5.661   8.247  0.0293 -1.1544 -0.1265
  190SLPC  H16X22036   3.841   5.736   8.281 -0.2623 -2.0174  2.6206
  190SLPC  H16Y22037   3.792   5.567   8.299  0.5194 -0.2753  1.2795
  190SLPC  C31722038   3.616   5.692   8.282 -0.3107  0.5862 -0.2589
  190SLPC  H17X22039   3.557   5.602   8.255  1.7334 -1.9055  2.8592
  190SLPC  H17Y22040   3.594   5.783   8.222  1.3203  1.8859  0.9964
  190SLPC  C31822041   3.594   5.712   8.435 -0.2711 -0.4091  0.2152
  190SLPC  H18X22042   3.492   5.744   8.464 -1.1782 -4.5328  2.2958
  190SLPC  H18Y22043   3.667   5.779   8.487 -1.7570  1.8290 -0.4370
  190SLPC  H18Z22044   3.614   5.617   8.488 -2.1282 -1.5489 -1.0324
  191SLPC     N22045   3.186   0.665   6.120 -0.0521 -0.1778  0.2187
  191SLPC   C1322046   3.193   0.797   6.186  0.1809  0.2577 -0.4395
  191SLPC  H13A22047   3.218   0.788   6.291  0.6838 -1.3324 -0.6729
  191SLPC  H13B22048   3.264   0.861   6.136  1.1172 -0.2655  0.2082
  191SLPC  H13C22049   3.098   0.848   6.192  0.4642  0.8625 -1.0154
  191SLPC   C1422050   3.208   0.674   5.975  0.0679  0.1515 -0.8393
  191SLPC  H14A22051   3.182   0.582   5.925  1.6716 -1.7228  1.4909
  191SLPC  H14B22052   3.163   0.762   5.933 -2.0914  1.5528  3.6902
  191SLPC  H14C22053   3.312   0.668   5.947  0.1556  0.7826 -0.6618
  191SLPC   C1522054   3.047   0.603   6.152 -0.5209 -0.3476  0.5382
  191SLPC  H15A22055   2.977   0.650   6.084  1.2412  0.6708 -0.6539
  191SLPC  H15B22056   3.063   0.498   6.133  1.9825  0.1534 -0.4846
  191SLPC  H15C22057   3.021   0.610   6.257  2.3746 -2.4056  1.5104
  191SLPC   C1222058   3.292   0.574   6.187 -0.8264 -0.2745 -0.1990
  191SLPC  H12A22059   3.281   0.575   6.295  1.6133 -0.9535  0.1065
  191SLPC  H12B22060   3.385   0.624   6.167 -1.1802  0.7518  0.6370
  191SLPC   C1122061   3.305   0.427   6.133  1.1167 -0.5845 -1.1533
  191SLPC  H11A22062   3.397   0.385   6.178  1.3883 -0.4056 -1.5312
  191SLPC  H11B22063   3.329   0.437   6.025 -0.1741 -1.7155 -1.5801
  191SLPC     P22064   3.171   0.212   6.113  0.1950  0.2720  0.1345
  191SLPC   O1322065   3.152   0.208   5.967  0.5763  0.2798 -0.3468
  191SLPC   O1422066   3.281   0.131   6.168  0.0777 -0.4478  0.4260
  191SLPC   O1222067   3.180   0.364   6.158 -0.4938  0.1499 -0.9001
  191SLPC   O1122068   3.027   0.175   6.174 -0.0763  0.1484 -0.7756
  191SLPC    C122069   3.015   0.119   6.307  0.2354 -0.1415  1.1555
  191SLPC    HA22070   2.911   0.087   6.326 -0.2212  0.4556 -0.2231
  191SLPC    HB22071   3.086   0.034   6.319  0.0800 -0.4719 -0.1259
  191SLPC    C222072   3.061   0.215   6.422  0.1581 -0.2834  0.7472
  191SLPC    HS22073   3.171   0.224   6.407  0.1221 -0.5886  0.2942
  191SLPC   O2122074   3.040   0.152   6.548 -0.2219  0.0328 -0.2747
  191SLPC   C2122075   3.137   0.154   6.634  0.5898 -0.9062  0.1627
  191SLPC   O2222076   3.244   0.214   6.624  0.5268 -0.1944 -0.2039
  191SLPC   C2222077   3.082   0.102   6.771  0.3400  0.8281  0.2839
  191SLPC   H2R22078   2.978   0.135   6.789 -0.6977 -0.3940 -2.8498
  191SLPC   H2S22079   3.075  -0.009   6.765  0.3339  0.7640  1.2542
  191SLPC    C322080   2.991   0.353   6.423 -0.9276 -0.9806  0.2186
  191SLPC    HX22081   2.906   0.352   6.352 -0.6725  0.7945 -0.1630
  191SLPC    HY22082   3.067   0.417   6.372  1.6425 -2.1264  2.3755
  191SLPC   O3122083   2.971   0.421   6.545  0.0931 -0.1628 -0.3954
  191SLPC   C3122084   2.942   0.554   6.537 -0.8544  0.8378 -0.2639
  191SLPC   O3222085   2.919   0.622   6.436  0.3959  0.2896 -0.1290
  191SLPC   C3222086   2.951   0.610   6.679  0.5333  0.0643 -0.1370
  191SLPC   H2X22087   2.882   0.696   6.694  0.4921  0.0704 -0.3642
  191SLPC   H2Y22088   3.051   0.657   6.684 -0.9593  3.3837  2.1585
  191SLPC   C2322089   3.184   0.149   6.881  0.5601 -0.8406 -0.7126
  191SLPC   H3R22090   3.200   0.259   6.874 -0.8513 -0.6506 -1.3642
  191SLPC   H3S22091   3.281   0.098   6.866  0.4565 -0.9397 -1.0495
  191SLPC   C2422092   3.123   0.127   7.022 -0.2948 -0.2415 -0.3706
  191SLPC   H4R22093   3.097   0.020   7.012 -3.1266  0.3786 -0.3415
  191SLPC   H4S22094   3.035   0.194   7.033 -0.1179 -0.1000  0.2513
  191SLPC   C2522095   3.225   0.149   7.131  0.0416 -0.4860 -0.3571
  191SLPC   H5R22096   3.244   0.257   7.146  1.9608 -1.0670  1.9732
  191SLPC   H5S22097   3.323   0.115   7.091 -0.5142 -1.2816 -1.0943
  191SLPC   C2622098   3.185   0.084   7.261  0.7439  0.4465 -0.0877
  191SLPC   H6R22099   3.208  -0.024   7.262 -0.1669  0.2455  1.4522
  191SLPC   H6S22100   3.076   0.083   7.282  0.4235 -1.8604 -1.5057
  191SLPC   C2722101   3.264   0.153   7.374 -0.4486 -0.0977  0.4393
  191SLPC   H7R22102   3.195   0.173   7.458 -0.2406  0.8500  0.3849
  191SLPC   H7S22103   3.308   0.248   7.337  1.9751 -0.9647  0.9052
  191SLPC   C2822104   3.390   0.067   7.424  1.2406 -0.1843 -0.3602
  191SLPC   H8R22105   3.462   0.044   7.342 -0.9652  2.0570 -3.1534
  191SLPC   H8S22106   3.348  -0.029   7.459 -0.6037  0.7313  0.0870
  191SLPC   C2922107   3.459   0.145   7.535 -0.2277  0.0639  0.5675
  191SLPC   H9R22108   3.457   0.253   7.516 -0.4058  0.0270  0.3680
  191SLPC  C21022109   3.513   0.102   7.648  0.6887 -0.3020  0.0737
  191SLPC  H10R22110   3.544   0.171   7.729 -1.2964  0.9652 -0.1871
  191SLPC  C21122111   3.519  -0.044   7.689  0.6135 -0.1315  0.0946
  191SLPC  H11R22112   3.626  -0.065   7.710 -0.0449 -0.6160  3.5941
  191SLPC  H11S22113   3.492  -0.118   7.611 -0.6055  0.0368  0.3384
  191SLPC  C21222114   3.431  -0.072   7.813  0.2611 -0.4562  1.1711
  191SLPC  H12R22115   3.348  -0.002   7.831  3.1378  2.8912  2.7914
  191SLPC  C21322116   3.455  -0.176   7.892  0.2969  0.7262 -0.2954
  191SLPC  H13R22117   3.387  -0.192   7.978  0.1796 -1.1291 -0.7099
  191SLPC  C21422118   3.556  -0.285   7.875 -0.5646 -0.3623 -0.5775
  191SLPC  H14R22119   3.593  -0.301   7.771  2.9601 -1.2693  0.7060
  191SLPC  H14S22120   3.512  -0.379   7.915 -2.1938  1.5558  2.5437
  191SLPC  C21522121   3.687  -0.254   7.961  0.6375 -0.4851  0.7179
  191SLPC  H15R22122   3.655  -0.231   8.065 -0.6779 -1.4162  0.5447
  191SLPC  H15S22123   3.732  -0.163   7.916 -1.4047  1.3457  2.1752
  191SLPC  C21622124   3.791  -0.366   7.964 -0.2875  0.7193 -0.0853
  191SLPC  H16R22125   3.802  -0.422   7.868 -0.6572  1.0627 -0.3314
  191SLPC  H16S22126   3.756  -0.447   8.031 -0.4556 -1.6824 -2.8663
  191SLPC  C21722127   3.923  -0.311   8.019  0.1311  0.7516  0.8402
  191SLPC  H17R22128   3.987  -0.388   8.066 -0.0947 -0.3632 -0.6276
  191SLPC  H17S22129   3.902  -0.242   8.104 -0.2256  1.5487  0.1248
  191SLPC  C21822130   4.000  -0.240   7.913  0.4971 -0.6107 -0.5166
  191SLPC  H18R22131   4.096  -0.208   7.959  0.5321 -1.6694  0.1832
  191SLPC  H18S22132   3.945  -0.152   7.875  1.1723 -0.2544 -0.6772
  191SLPC  H18T22133   4.016  -0.300   7.821  1.7862  0.8177 -1.2648
  191SLPC   C3322134   2.918   0.505   6.795  0.3208  0.1468  0.1800
  191SLPC   H3X22135   2.984   0.415   6.801 -0.0510 -0.0461  3.1430
  191SLPC   H3Y22136   2.816   0.466   6.772  0.4678 -0.0109 -0.2140
  191SLPC   C3422137   2.922   0.572   6.933  0.0774  0.6271 -0.3562
  191SLPC   H4X22138   2.834   0.637   6.952  0.4519  0.9673  0.2370
  191SLPC   H4Y22139   3.015   0.632   6.942  0.2061  0.6224 -1.4985
  191SLPC   C3522140   2.923   0.471   7.053 -0.2313  0.0641  0.2046
  191SLPC   H5X22141   2.981   0.381   7.024  0.0572  0.8211 -1.7376
  191SLPC   H5Y22142   2.826   0.431   7.088 -1.3571  2.1806 -0.2958
  191SLPC   C3622143   2.979   0.547   7.171 -0.0996  0.6375  0.3577
  191SLPC   H6X22144   2.912   0.633   7.190  0.0408  0.5971  1.0448
  191SLPC   H6Y22145   3.083   0.586   7.163 -0.0741  0.3770 -0.7505
  191SLPC   C3722146   2.968   0.459   7.293 -0.0081  0.1361  0.4239
  191SLPC   H7X22147   3.016   0.360   7.281  2.0048  1.1030  0.1898
  191SLPC   H7Y22148   2.859   0.440   7.304  0.0212 -0.7359 -0.6123
  191SLPC   C3822149   3.017   0.526   7.418 -0.5256  0.0221 -0.3029
  191SLPC   H8X22150   2.960   0.619   7.435  0.8004  1.0757 -1.3742
  191SLPC   H8Y22151   3.125   0.542   7.397 -0.1139  0.5143  2.0084
  191SLPC   C3922152   3.006   0.431   7.539 -0.1765 -0.2976 -0.3013
  191SLPC   H9X22153   3.005   0.326   7.501 -0.1055 -0.0760 -0.9357
  191SLPC   H9Y22154   2.905   0.448   7.582  1.3729 -0.4681  3.8509
  191SLPC  C31022155   3.125   0.449   7.643 -0.4944  0.0380 -0.4614
  191SLPC  H10X22156   3.116   0.553   7.680 -2.9299 -0.1776 -0.2968
  191SLPC  H10Y22157   3.214   0.447   7.576  1.2435 -1.2250  1.7517
  191SLPC  C31122158   3.126   0.358   7.762  0.4372  0.6683 -0.1124
  191SLPC  H11X22159   3.149   0.253   7.735 -2.4018 -0.2639  0.6997
  191SLPC  H11Y22160   3.025   0.376   7.807 -0.5238 -0.7704 -1.5553
  191SLPC  C31222161   3.235   0.390   7.865  0.3707 -0.4295  0.5325
  191SLPC  H12X22162   3.230   0.498   7.890  1.0168 -0.1688 -0.4081
  191SLPC  H12Y22163   3.333   0.388   7.814 -0.3840  2.3896 -1.2151
  191SLPC  C31322164   3.249   0.305   7.996 -0.3690 -0.0323  0.3904
  191SLPC  H13X22165   3.310   0.215   7.975  0.3590  0.4512  0.3637
  191SLPC  H13Y22166   3.152   0.280   8.042 -0.8225  2.3237  0.8795
  191SLPC  C31422167   3.318   0.383   8.112 -0.1075  0.5845 -0.1150
  191SLPC  H14X22168   3.243   0.462   8.136  0.0644  0.2859  1.5452
  191SLPC  H14Y22169   3.413   0.428   8.077 -0.3301 -0.4526 -2.1646
  191SLPC  C31522170   3.341   0.301   8.235 -0.2343 -0.2708  0.6543
  191SLPC  H15X22171   3.247   0.267   8.285 -1.2815  1.2326 -0.1927
  191SLPC  H15Y22172   3.389   0.362   8.314 -1.0566  0.7318  0.3957
  191SLPC  C31622173   3.425   0.171   8.210 -0.0325  0.0850  0.2444
  191SLPC  H16X22174   3.520   0.200   8.160  1.6739 -0.4669  2.9567
  191SLPC  H16Y22175   3.376   0.100   8.140  0.4200  0.7787 -0.7989
  191SLPC  C31722176   3.484   0.114   8.339 -0.2915  0.1114 -0.1156
  191SLPC  H17X22177   3.406   0.067   8.400 -0.5292 -1.4444 -1.5474
  191SLPC  H17Y22178   3.531   0.206   8.381 -1.8644  0.7621  0.3002
  191SLPC  C31822179   3.602   0.015   8.314 -0.1373  0.6989 -1.1874
  191SLPC  H18X22180   3.567  -0.077   8.262 -1.4248 -3.0630  5.1909
  191SLPC  H18Y22181   3.646  -0.017   8.411 -1.3088  1.1028 -0.5100
  191SLPC  H18Z22182   3.674   0.069   8.250  0.0453  2.2901  0.2941
  192SLPC     N22183   4.151   1.867   6.097 -0.0766  0.3819  0.2888
  192SLPC   C1322184   4.025   1.918   6.024  0.0384 -0.8179 -0.6910
  192SLPC  H13A22185   4.052   1.978   5.938 -1.7983  1.7755  0.4336
  192SLPC  H13B22186   3.956   1.839   6.000 -0.3334 -0.5210 -0.6152
  192SLPC  H13C22187   3.965   1.981   6.088 -0.9135 -3.2935  0.9677
  192SLPC   C1422188   4.236   1.988   6.118 -0.6154  0.0097 -0.0651
  192SLPC  H14A22189   4.186   2.041   6.197 -2.1475 -0.5208 -0.6567
  192SLPC  H14B22190   4.335   1.964   6.156 -0.9103  2.0206  2.2231
  192SLPC  H14C22191   4.240   2.053   6.032 -1.3367  0.4472  0.2253
  192SLPC   C1522192   4.231   1.771   6.010  0.8301 -0.7043  0.1701
  192SLPC  H15A22193   4.261   1.831   5.926 -0.3003  1.0740  0.9855
  192SLPC  H15B22194   4.319   1.751   6.069  1.2194 -0.2019 -0.2306
  192SLPC  H15C22195   4.176   1.681   5.985  0.8683 -0.7954  0.4163
  192SLPC   C1222196   4.104   1.809   6.227 -0.4956 -0.1390  0.6704
  192SLPC  H12A22197   4.050   1.716   6.220  0.8401 -1.1336  2.5381
  192SLPC  H12B22198   4.030   1.878   6.264 -1.3918 -0.0577 -1.1967
  192SLPC   C1122199   4.206   1.800   6.339  0.5173 -0.1009 -1.2222
  192SLPC  H11A22200   4.145   1.765   6.425  1.9632 -0.4081 -0.2793
  192SLPC  H11B22201   4.232   1.903   6.373 -0.4059 -0.6195  1.3077
  192SLPC     P22202   4.459   1.769   6.311 -0.0130  0.1576  0.0998
  192SLPC   O1322203   4.546   1.696   6.219 -0.2401 -0.1894  0.1627
  192SLPC   O1422204   4.468   1.916   6.310 -0.5134 -0.4016  0.1150
  192SLPC   O1222205   4.312   1.714   6.315  0.4987 -0.6275  0.2713
  192SLPC   O1122206   4.511   1.714   6.449  0.3661  0.5765  0.0270
  192SLPC    C122207   4.485   1.584   6.509  0.8122 -0.0160  0.0844
  192SLPC    HA22208   4.438   1.516   6.436  0.9049  1.5098 -1.4685
  192SLPC    HB22209   4.578   1.528   6.533  1.0391  0.1477 -0.4169
  192SLPC    C222210   4.404   1.600   6.637  0.2002 -0.1480  0.7046
  192SLPC    HS22211   4.324   1.671   6.606  1.2510  0.7650  0.0276
  192SLPC   O2122212   4.497   1.646   6.745  0.5049  0.0655  0.2155
  192SLPC   C2122213   4.437   1.724   6.828 -0.0273 -0.1566  0.1338
  192SLPC   O2222214   4.326   1.772   6.815  0.8969  0.1615  0.9837
  192SLPC   C2222215   4.529   1.765   6.942  0.2090 -0.2280  0.0548
  192SLPC   H2R22216   4.491   1.711   7.032 -0.0958 -2.0064 -1.0979
  192SLPC   H2S22217   4.635   1.741   6.920  0.6836  1.8664 -0.1320
  192SLPC    C322218   4.339   1.469   6.674  0.4019 -0.0913 -0.0622
  192SLPC    HX22219   4.273   1.448   6.587 -1.4703  1.6742  0.8530
  192SLPC    HY22220   4.285   1.493   6.768  2.1851 -1.5806  1.4029
  192SLPC   O3122221   4.437   1.367   6.700  0.1624 -0.2815  0.4821
  192SLPC   C3122222   4.489   1.352   6.818 -0.3126  0.0767  0.4369
  192SLPC   O3222223   4.463   1.423   6.913 -0.5828 -0.9382  0.5397
  192SLPC   C3222224   4.574   1.222   6.821  0.5549 -0.6018 -0.1338
  192SLPC   H2X22225   4.657   1.239   6.749  1.4339 -2.0313  0.4986
  192SLPC   H2Y22226   4.520   1.130   6.790  0.4281 -0.2134 -1.1114
  192SLPC   C2322227   4.529   1.916   6.965  0.6151  0.3357  0.1531
  192SLPC   H3R22228   4.440   1.953   7.022 -0.8984 -0.7392 -1.4170
  192SLPC   H3S22229   4.533   1.968   6.867  1.9577  2.2361  1.1308
  192SLPC   C2422230   4.658   1.959   7.043  0.3054  0.5092  0.5354
  192SLPC   H4R22231   4.657   2.070   7.045 -0.8803  0.6333 -2.0420
  192SLPC   H4S22232   4.752   1.933   6.989  1.3599  1.3095  1.9411
  192SLPC   C2522233   4.667   1.901   7.182  0.2582  0.3314 -0.6290
  192SLPC   H5R22234   4.655   1.791   7.172  0.3767  0.4107 -1.7524
  192SLPC   H5S22235   4.586   1.933   7.252  1.4074 -0.0820  0.9624
  192SLPC   C2622236   4.803   1.928   7.242 -1.2164  0.6728  0.6963
  192SLPC   H6R22237   4.823   2.036   7.259  1.4353  0.3372  0.1602
  192SLPC   H6S22238   4.876   1.890   7.167 -3.8243  0.5645 -1.9418
  192SLPC   C2722239   4.825   1.851   7.376  0.0494 -0.4432  0.5832
  192SLPC   H7R22240   4.824   1.740   7.364 -0.5658 -0.3397 -0.4825
  192SLPC   H7S22241   4.741   1.881   7.443  0.2860 -0.3001  0.8180
  192SLPC   C2822242   4.946   1.910   7.454 -0.1149  0.2733 -0.3203
  192SLPC   H8R22243   4.941   1.878   7.560 -1.5604  3.3903  0.6674
  192SLPC   H8S22244   4.940   2.020   7.466  0.8177  0.1462  1.6880
  192SLPC   C2922245   5.082   1.882   7.392 -0.5752 -0.1264 -0.0674
  192SLPC   H9R22246   5.089   1.878   7.282  0.5775 -0.8711  0.0148
  192SLPC  C21022247   5.192   1.834   7.460 -0.0005  0.3631  0.1713
  192SLPC  H10R22248   5.289   1.822   7.409 -1.1667 -0.4372 -1.9782
  192SLPC  C21122249   5.190   1.802   7.606 -0.6283  0.3459  0.3143
  192SLPC  H11R22250   5.139   1.705   7.627 -0.0827  0.1400  0.7349
  192SLPC  H11S22251   5.134   1.880   7.660  2.6497  2.7959  0.4837
  192SLPC  C21222252   5.327   1.797   7.671  0.6283  0.4993  0.0836
  192SLPC  H12R22253   5.414   1.836   7.616 -0.3837 -0.0578 -1.9983
  192SLPC  C21322254   5.353   1.766   7.794 -0.2862 -0.0489 -0.8009
  192SLPC  H13R22255   5.458   1.746   7.819 -0.2810  0.2347 -0.5854
  192SLPC  C21422256   5.252   1.731   7.893 -0.2094 -0.7334 -0.0915
  192SLPC  H14R22257   5.258   1.621   7.909 -0.9566 -0.7142  0.3760
  192SLPC  H14S22258   5.146   1.752   7.867  0.4625  1.6989 -1.1625
  192SLPC  C21522259   5.277   1.786   8.035  1.0978 -0.2213 -0.4616
  192SLPC  H15R22260   5.190   1.757   8.098  0.6410  2.1877  0.0863
  192SLPC  H15S22261   5.282   1.897   8.032 -0.0517 -0.1672 -0.8125
  192SLPC  C21622262   5.391   1.724   8.113  0.2651 -0.4136 -0.6022
  192SLPC  H16R22263   5.488   1.757   8.071  0.6424 -1.4697 -0.5919
  192SLPC  H16S22264   5.387   1.613   8.109 -1.0176 -0.5462  2.2813
  192SLPC  C21722265   5.389   1.758   8.268 -0.0192 -0.3147 -0.2412
  192SLPC  H17R22266   5.395   1.869   8.264  1.2472 -0.4027 -1.9013
  192SLPC  H17S22267   5.287   1.730   8.301 -0.6001  0.3992 -1.3679
  192SLPC  C21822268   5.504   1.685   8.344 -0.6047 -0.3289  0.4328
  192SLPC  H18R22269   5.497   1.678   8.454 -0.4902  0.2284  0.4777
  192SLPC  H18S22270   5.601   1.723   8.306  0.6418 -0.8304  2.9569
  192SLPC  H18T22271   5.498   1.579   8.313  0.8332 -0.2532 -0.1759
  192SLPC   C3322272   4.639   1.191   6.954 -0.6512  0.7031 -0.4818
  192SLPC   H3X22273   4.694   1.278   6.997 -1.5367  0.3886  1.3763
  192SLPC   H3Y22274   4.707   1.103   6.950 -3.3689 -1.5657  0.2216
  192SLPC   C3422275   4.527   1.151   7.062  0.3970 -0.1986  0.1165
  192SLPC   H4X22276   4.456   1.079   7.016 -2.5965  2.0059  0.9948
  192SLPC   H4Y22277   4.479   1.244   7.098  0.3039 -0.9624  2.1001
  192SLPC   C3522278   4.582   1.081   7.186  0.2157  0.2774  1.0576
  192SLPC   H5X22279   4.673   1.140   7.208 -1.1277  2.1006  2.1140
  192SLPC   H5Y22280   4.614   0.978   7.159  0.8303 -0.0439  2.8917
  192SLPC   C3622281   4.487   1.080   7.306 -0.1478  0.0030 -0.0812
  192SLPC   H6X22282   4.412   0.998   7.305  0.1275 -0.2514 -0.8079
  192SLPC   H6Y22283   4.432   1.176   7.316  0.5845  0.4507 -0.2423
  192SLPC   C3722284   4.578   1.067   7.431  0.1646 -0.5536  0.8458
  192SLPC   H7X22285   4.644   1.156   7.425 -0.3185 -0.2857 -1.1608
  192SLPC   H7Y22286   4.643   0.977   7.420  1.5694  0.5410 -0.0444
  192SLPC   C3822287   4.501   1.066   7.568 -0.0561  0.3495  0.5100
  192SLPC   H8X22288   4.415   0.995   7.566  0.9149 -0.8518 -0.1221
  192SLPC   H8Y22289   4.456   1.166   7.585 -0.0655  0.2653  0.9827
  192SLPC   C3922290   4.591   1.014   7.678 -0.3678  0.3854  0.5022
  192SLPC   H9X22291   4.672   1.090   7.683  0.4930 -0.5797  1.9741
  192SLPC   H9Y22292   4.639   0.917   7.653 -0.8188  0.7411 -1.9858
  192SLPC  C31022293   4.516   1.010   7.817 -0.4274  0.2317  0.5106
  192SLPC  H10X22294   4.445   0.925   7.808 -0.0921 -0.0093  0.1035
  192SLPC  H10Y22295   4.458   1.103   7.836 -2.0699 -0.9544  1.6465
  192SLPC  C31122296   4.615   0.976   7.930  0.4614 -0.8664  1.1460
  192SLPC  H11X22297   4.685   0.902   7.885 -1.1717 -0.6838 -1.9531
  192SLPC  H11Y22298   4.560   0.935   8.017 -0.8337  0.3040  0.9169
  192SLPC  C31222299   4.691   1.098   7.983  0.6157  0.3140 -0.5262
  192SLPC  H12X22300   4.708   1.179   7.909  2.5287  0.5863  0.1412
  192SLPC  H12Y22301   4.794   1.081   8.022 -0.5066 -2.9206  1.4449
  192SLPC  C31322302   4.616   1.174   8.096 -0.0502  0.9344  0.4440
  192SLPC  H13X22303   4.624   1.108   8.186  0.9186  0.8964  0.3338
  192SLPC  H13Y22304   4.511   1.177   8.059 -0.4951  1.3712  1.6800
  192SLPC  C31422305   4.661   1.320   8.119  0.3397  0.2525 -0.1971
  192SLPC  H14X22306   4.595   1.355   8.200 -1.4396  0.1635 -1.5433
  192SLPC  H14Y22307   4.624   1.384   8.036 -2.8147 -1.8992 -0.6163
  192SLPC  C31522308   4.798   1.359   8.164  0.1726 -0.8975  0.5671
  192SLPC  H15X22309   4.873   1.327   8.088 -1.6456 -0.3031 -1.5724
  192SLPC  H15Y22310   4.816   1.308   8.261 -1.5999 -0.5624  1.1057
  192SLPC  C31622311   4.802   1.510   8.181 -0.3094 -0.5165  0.1414
  192SLPC  H16X22312   4.716   1.553   8.237  0.5139 -0.0452  1.0740
  192SLPC  H16Y22313   4.806   1.561   8.083  0.8489  0.9298  0.9145
  192SLPC  C31722314   4.930   1.559   8.257 -0.2979  0.4396  0.2412
  192SLPC  H17X22315   4.999   1.612   8.188 -0.7327 -0.0076 -0.5502
  192SLPC  H17Y22316   4.993   1.472   8.283 -0.5269  0.0756 -0.3965
  192SLPC  C31822317   4.916   1.655   8.379 -0.4862  0.3443 -0.0913
  192SLPC  H18X22318   4.861   1.747   8.350  0.7033  1.4513  1.0280
  192SLPC  H18Y22319   5.019   1.685   8.408  0.4731 -1.0912 -1.8268
  192SLPC  H18Z22320   4.860   1.607   8.463  0.0920  0.2661  0.2555
  193SOD    SOD22321   1.671   2.807   1.951 -0.7305 -0.1997 -0.1994
  194SOD    SOD22322   0.121   0.508  15.855  0.2932  0.2436 -0.0178
  195SOD    SOD22323   3.183   3.424  13.840 -0.3498 -0.1145 -0.0780
  196SOD    SOD22324   5.544   6.622   1.975 -0.1680 -0.2606 -0.7679
  197SOD    SOD22325   0.749   2.406  14.979  0.1429  0.0681  0.1652
  198SOD    SOD22326   5.364   5.323  13.020 -0.1718 -0.0281  0.1703
  199SOD    SOD22327   0.106   4.250   5.606  0.1832  0.2363  0.2834
  200SOD    SOD22328   4.668   6.363   6.197 -0.4140 -0.3150  0.1974
  201SOD    SOD22329   1.577   2.068   4.542 -0.0880 -0.1078 -0.5852
  202SOD    SOD22330   0.107   5.317   1.002  0.1052  0.0014  0.7018
  203SOD    SOD22331   4.323   4.666  11.795  0.4484  0.7738  0.0754
  204SOD    SOD22332   6.354   0.237   4.324 -0.3075  0.0435  0.0988
  205SOD    SOD22333   6.182   4.104  10.946 -0.6297  0.0301  0.5439
  206SOD    SOD22334   4.281   2.021  17.201  0.4058  0.4738  0.1223
  207SOD    SOD22335   4.426   6.121  15.217  0.1074  0.2817  0.7166
  208SOD    SOD22336   3.881   3.155   6.190  0.6505  0.8692 -0.4931
  209SOD    SOD22337   4.344   3.059  12.764  0.1497  0.0331  0.6390
  210SOD    SOD22338   0.820   6.229   0.535 -0.0140 -0.3743  0.2144
  211SOD    SOD22339   5.982   2.235   2.191  0.0171  0.0488  0.0212
  212SOD    SOD22340   1.262   3.588  16.973  0.1673 -0.4480  0.3109
  213SOD    SOD22341   4.395   0.825  11.925  0.2659  0.6315  0.0241
  214SOD    SOD22342   6.660   4.394  13.574 -0.3500 -0.2082  0.2614
  215SOD    SOD22343   3.476   4.314   4.464  0.4805 -0.1756  0.4084
  216SOD    SOD22344   1.899   5.114   4.345 -0.1919 -0.3888  0.4287
  217SOD    SOD22345   6.187   5.527   2.105  0.5757  0.1722 -0.0641
  218SOD    SOD22346   4.850   3.655   2.897  0.0290 -0.4177  0.2092
  219SOD    SOD22347   3.813   4.567   6.216 -0.1466 -0.1456  0.0222
  220SOD    SOD22348   6.123   5.640  12.306  0.4082 -0.1934  0.3665
  221SOD    SOD22349   1.826   6.103   3.337  0.2717 -0.4990 -0.3376
  222SOD    SOD22350   5.266   5.379   3.857 -0.6016 -0.0207 -0.6523
  223SOD    SOD22351   5.916   4.433   4.657 -0.0277 -0.0131 -0.3187
  224SOD    SOD22352   2.595   4.632   1.313  0.0399  0.0245 -0.5739
  225SOD    SOD22353   6.043   4.653   5.740 -0.0628 -0.0907  0.4468
  226SOD    SOD22354   2.657   4.205  12.249  0.3629  0.1273 -0.5517
  227SOD    SOD22355   3.191   3.423   5.166 -0.3784  0.1615 -0.3085
  228SOD    SOD22356   1.289   5.395  11.948  0.1757 -0.3665  0.2925
  229SOD    SOD22357   2.298   0.249  14.525  0.3386 -0.2043  0.1988
  230SOD    SOD22358   2.153   0.232   0.983 -0.1897 -0.0988 -0.2802
  231SOD    SOD22359   3.513   5.353  11.358  0.0971  0.1419 -0.0272
  232SOD    SOD22360   3.376   1.158   0.241 -0.1382 -0.0186 -0.0925
  233SOD    SOD22361   6.266   1.988  14.481  0.3465 -0.4455 -0.2633
  234SOD    SOD22362   2.056   1.173  12.869  0.0946  0.0129 -0.0368
  235SOD    SOD22363   1.489   4.976  12.403  0.4822 -0.0637  0.2235
  236SOD    SOD22364   5.213   3.944   5.107 -0.3351  0.0216 -0.4455
  237SOD    SOD22365   3.170   4.942   1.816  0.2061  0.5970 -0.3918
  238SOD    SOD22366   4.216   2.728   4.788 -0.0964  0.0981 -0.1081
  239SOD    SOD22367   0.988   0.491  11.610  0.2017  0.3551  0.1479
  240SOD    SOD22368   3.357   3.770   1.802 -0.1844 -0.0956  0.2450
  241SOD    SOD22369   1.644   5.269   5.685 -0.1510  0.1056 -0.1769
  242SOD    SOD22370   6.575   2.625  15.469  0.3180 -0.4045 -0.0035
  243SOD    SOD22371   2.480   0.592   6.151 -0.0384  0.4158 -0.4537
  244SOD    SOD22372   4.207   3.640   4.216  0.0612 -0.0273  0.0721
  245SOD    SOD22373   1.708   6.147   4.658  0.1168 -0.0683  0.3518
  246SOD    SOD22374   3.664   0.979  16.085  0.1210 -0.0183 -0.3716
  247SOD    SOD22375   3.440   4.782   1.162  0.3430  0.0111  0.0944
  248SOD    SOD22376   3.544   4.687  13.030 -0.0305 -0.2805 -0.5796
  249SOD    SOD22377   5.428   2.952  15.941  0.1106 -0.7242 -0.0714
  250SOD    SOD22378   5.478   0.273  13.980 -0.3110 -0.0501  0.5213
  251SOD    SOD22379   6.588   2.558   0.620  0.3976 -0.7828 -0.2422
  252SOD    SOD22380   4.234   1.695  12.995 -0.3147  0.2668 -0.4048
  253SOD    SOD22381   0.036   2.165  12.311 -0.2300  0.6502 -0.2917
  254SOD    SOD22382   4.757   6.349  13.503  0.0369 -0.4364 -0.3395
  255SOD    SOD22383   2.968   5.073  16.436 -0.2142  0.5806 -0.3465
  256SOD    SOD22384   5.798   5.894  15.928 -0.5153  0.0828  0.0740
  257SOD    SOD22385   6.166   1.452   0.713 -0.4379  0.3227  0.0335
  258SOD    SOD22386   3.225   5.670  11.071  0.3327  0.1279  0.0989
  259SOD    SOD22387   1.615   2.635  15.667 -0.2414 -0.0588  0.0915
  260SOD    SOD22388   5.768   4.268   0.859 -0.3381 -0.0324  0.1792
  261SOD    SOD22389   0.319   5.268   4.887 -0.3210  0.3590 -0.0114
  262SOD    SOD22390   4.575   5.511   4.955 -0.2538  0.2238  0.4486
  263SOD    SOD22391   0.161   0.311   6.220  0.4449  0.4264  0.0724
  264SOD    SOD22392   1.766   0.297   3.813 -0.5083 -0.2617 -0.1498
  265SOD    SOD22393   1.999   4.375   1.872  0.7892 -0.1461  0.4250
  266CLA    CLA22394   3.871   4.668   3.280  0.1582 -0.0494 -0.4676
  267CLA    CLA22395   0.231   4.642  12.652 -0.3311 -0.0847  0.1544
  268CLA    CLA22396   5.984   5.074   4.327 -0.5143  0.2742 -0.1180
  269CLA    CLA22397   5.660   3.875   1.339  0.6071 -0.2824 -0.1418
  270CLA    CLA22398   3.656   2.948   4.891 -0.1697  0.1302  0.4008
  271CLA    CLA22399   4.066   3.111   2.678  0.6462 -0.4453  0.4509
  272CLA    CLA22400   2.641   2.589  14.904 -0.0321 -0.1804 -0.1199
  273CLA    CLA22401   4.661   5.797  14.982  0.1793 -0.0930  0.0435
  274CLA    CLA22402   0.993   6.699  13.707  0.3007  0.2394  0.0468
  275CLA    CLA22403   3.982   3.046  12.963  0.2408  0.3097  0.1363
  276CLA    CLA22404   1.534   2.645   0.287 -0.8550 -0.0799 -0.2807
  277CLA    CLA22405   3.425   1.002   3.122  0.0641  0.0072 -0.0556
  278CLA    CLA22406   5.527   4.380   1.476  0.3684 -0.3382  0.0479
  279CLA    CLA22407   4.793   1.923  13.186  0.0584  0.2137  0.2667
  280CLA    CLA22408   3.659   4.979  14.653 -0.3906 -0.1159 -0.2536
  281CLA    CLA22409   0.752   5.463   0.234  0.0536  0.1634 -0.2318
  282CLA    CLA22410   5.076   6.619  15.851  0.1612 -0.4564  0.2345
  283CLA    CLA22411   6.608   2.122  15.848  0.0408 -0.1110 -0.2316
  284CLA    CLA22412   6.573   1.531  12.364  0.4361  0.1251 -0.0542
  285CLA    CLA22413   3.498   4.810  17.064  0.0872 -0.0474 -0.2049
  286CLA    CLA22414   0.325   0.696  16.803 -0.2288 -0.0664  0.1580
  287CLA    CLA22415   0.318   4.776   2.431 -0.1335  0.1558 -0.2621
  288CLA    CLA22416   3.335   4.471   1.938  0.0003  0.1613 -0.1985
  289CLA    CLA22417   3.102   4.219   0.239 -0.1062  0.2456 -0.2984
  290CLA    CLA22418   6.178   0.581  13.492  0.2493 -0.0866  0.0200
  291CLA    CLA22419   2.907   5.895   3.140 -0.2856  0.0501  0.0499
  292CLA    CLA22420   6.654   0.427   0.106  0.5037 -0.0951 -0.4893
  293CLA    CLA22421   6.494   0.605  14.673 -0.6422  0.2681 -0.1310
  294CLA    CLA22422   5.911   1.571   0.721 -0.1905  0.2144 -0.1893
  295CLA    CLA22423   3.752   1.480   0.207  0.0498  0.0952 -0.1020
  296CLA    CLA22424   2.272   1.476   0.568 -0.0020  0.2650  0.1558
  297CLA    CLA22425   1.957   5.062   3.424 -0.3984 -0.1400  0.3817
  298CLA    CLA22426   4.977   0.774   3.878 -0.0121 -0.0446  0.3701
  299CLA    CLA22427   5.944   3.974   0.598 -0.2371  0.2979 -0.3454
  300CLA    CLA22428   1.052   5.493   3.487 -0.1178 -0.0564  0.2406
  301CLA    CLA22429   4.507   6.414  15.899 -0.3365  0.0033  0.0247
  302CLA    CLA22430   2.257   0.605   5.043  0.2035  0.1101  0.1334
  303CLA    CLA22431   0.460   1.594  15.342  0.2539 -0.4658 -0.3110
  304CLA    CLA22432   5.365   4.754  17.003  0.0681 -0.3496  0.0064
  305CLA    CLA22433   0.244   5.465   5.634 -0.2799  0.3124 -0.1287
  306CLA    CLA22434   3.285   0.311   5.174 -0.0740 -0.0987  0.0855
  307CLA    CLA22435   3.120   1.171  12.723  0.0287 -0.1922  0.0520
  308CLA    CLA22436   5.248   3.684   5.083 -0.1076  0.0895 -0.1965
  309CLA    CLA22437   5.428   6.313  13.408  0.1835 -0.1983 -0.3848
  310CLA    CLA22438   2.803   2.570   4.683  0.3604  0.3012  0.0079
  311CLA    CLA22439   5.862   1.645   2.192 -0.1857 -0.4664 -0.2855
  312CLA    CLA22440   1.538   5.019   4.116 -0.1608 -0.3112  0.2512
  313CLA    CLA22441   4.047   5.879   1.409  0.0502  0.2750  0.0219
  314CLA    CLA22442   3.580   4.550   4.449 -0.4206 -0.0064  0.3130
  315CLA    CLA22443   0.620   5.264  14.673 -0.0271 -0.6342 -0.2405
  316CLA    CLA22444   0.981   5.672  11.692 -0.0599  0.0589 -0.0159
  317CLA    CLA22445   3.789   6.735   0.339  0.2088  0.0674 -0.0410
  318CLA    CLA22446   5.182   1.561  15.819  0.5773  0.2088  0.4719
  319TIP3   OH222447   2.571   1.058  13.215  0.0397  0.6690 -0.6905
  319TIP3    H122448   2.511   1.108  13.161 -2.4667  2.4708  3.3257
  319TIP3    H222449   2.642   1.119  13.235 -0.6437  1.0952  0.4931
  320TIP3   OH222450   2.823   0.509   1.892 -0.2976  0.7087 -0.1754
  320TIP3    H122451   2.730   0.516   1.871 -0.1454  1.1920 -0.7167
  320TIP3    H222452   2.863   0.585   1.849  0.1045  1.4644  1.4847
  321TIP3   OH222453   6.469   5.967  16.553 -0.1239  0.3996  0.3491
  321TIP3    H122454   6.396   5.909  16.575  0.2214 -0.1874 -0.0144
  321TIP3    H222455   6.438   6.055  16.575 -1.0237  0.1858 -0.0250
  322TIP3   OH222456   5.093   0.434   0.545 -0.5251  0.2405 -0.2282
  322TIP3    H122457   5.152   0.397   0.611  1.1342  1.3936 -1.0233
  322TIP3    H222458   5.006   0.428   0.586  0.2200 -0.7315  1.3165
  323TIP3   OH222459   3.566   3.543   6.719 -0.3152 -0.7251  0.2225
  323TIP3    H122460   3.636   3.585   6.670 -1.7025  1.2785 -0.1939
  323TIP3    H222461   3.608   3.472   6.766  1.8205 -0.0997 -0.6406
  324TIP3   OH222462   4.121   1.691   4.675 -0.5308  0.0766 -0.0222
  324TIP3    H122463   4.156   1.665   4.761 -0.9363  0.8494  0.3875
  324TIP3    H222464   4.028   1.705   4.690 -0.2344  2.4964 -0.0038
  325TIP3   OH222465   3.820   6.359  14.969  0.3898 -0.5964  0.4699
  325TIP3    H122466   3.851   6.376  15.058 -0.8774 -0.7487  0.9529
  325TIP3    H222467   3.757   6.429  14.952  1.2454 -0.0614 -0.6442
  326TIP3   OH222468   3.932   3.447   5.151  0.0659  0.2054  0.3657
  326TIP3    H122469   3.890   3.533   5.144  1.7696  1.1865  1.4646
  326TIP3    H222470   3.966   3.445   5.240 -0.3558 -1.8531  0.5227
  327TIP3   OH222471   6.189   4.185   6.346 -0.5956 -0.0243  0.2541
  327TIP3    H122472   6.131   4.113   6.321  0.0036 -0.6173  0.5341
  327TIP3    H222473   6.156   4.261   6.298 -1.2530 -0.4809 -0.0245
  328TIP3   OH222474   2.482   5.684   3.544 -0.3939 -0.2206  0.2659
  328TIP3    H122475   2.537   5.606   3.537  0.1569  0.0650  1.2201
  328TIP3    H222476   2.508   5.738   3.469  1.0419  0.1526  1.0036
  329TIP3   OH222477   3.603   6.270   0.642 -0.1851 -0.4779  0.0653
  329TIP3    H122478   3.617   6.287   0.548  0.3042 -0.1093  0.2022
  329TIP3    H222479   3.690   6.276   0.681 -0.5204  0.4745  0.7166
  330TIP3   OH222480   0.205   5.915  16.004  0.9386 -0.0733 -0.5260
  330TIP3    H122481   0.289   5.946  16.036  0.3283  1.8632 -0.6503
  330TIP3    H222482   0.226   5.869  15.923  2.0713 -1.5447  0.5569
  331TIP3   OH222483   5.688   6.762   2.421 -0.5876  0.2073  0.0999
  331TIP3    H122484   5.732   6.839   2.384  1.5293  0.2634  2.4666
  331TIP3    H222485   5.759   6.699   2.434 -1.7419 -0.9191  1.1601
  332TIP3   OH222486   3.501   5.854  11.850 -0.2406  0.0718  0.1132
  332TIP3    H122487   3.452   5.930  11.818 -1.9770 -0.8648  0.4132
  332TIP3    H222488   3.486   5.853  11.944  0.4225 -0.2131  0.2256
  333TIP3   OH222489   2.407   4.355  15.765 -0.1118  0.1354 -0.4246
  333TIP3    H122490   2.465   4.303  15.820 -0.5701 -0.7849 -0.8041
  333TIP3    H222491   2.330   4.371  15.820  0.4666  1.3562  0.0785
  334TIP3   OH222492   0.568   0.776   3.234  0.0454 -0.3475 -0.6868
  334TIP3    H122493   0.651   0.823   3.220  0.0216 -0.1731 -0.2593
  334TIP3    H222494   0.500   0.841   3.217 -0.0148 -0.5878 -1.3908
  335TIP3   OH222495   5.344   6.544   2.063 -0.3931 -0.0460  0.5169
  335TIP3    H122496   5.263   6.589   2.041 -0.8867 -0.2022  1.9138
  335TIP3    H222497   5.318   6.477   2.125  0.7318 -0.4914  0.5346
  336TIP3   OH222498   1.576   2.950  15.900  0.6949 -0.7388  0.0378
  336TIP3    H122499   1.487   2.981  15.888 -0.0097 -2.1028  1.3700
  336TIP3    H222500   1.587   2.881  15.834  1.5629  0.8549 -1.5712
  337TIP3   OH222501   3.489   1.508  13.126 -0.6219  0.4041  0.1247
  337TIP3    H122502   3.512   1.445  13.058  0.5145  0.0587  0.8186
  337TIP3    H222503   3.550   1.491  13.197 -1.1071  1.4682  0.8214
  338TIP3   OH222504   5.035   2.463  17.027  0.2362  0.7695  0.5725
  338TIP3    H122505   5.013   2.383  17.075  1.8077  0.1368  0.3142
  338TIP3    H222506   4.985   2.532  17.071 -1.8463 -0.4630  0.2473
  339TIP3   OH222507   3.591   2.796   0.897 -0.5284 -0.0236  0.2350
  339TIP3    H122508   3.561   2.798   0.987  0.1385 -1.8152  0.5430
  339TIP3    H222509   3.684   2.817   0.902 -0.0510 -1.9138  0.2431
  340TIP3   OH222510   3.519   3.274  13.435 -0.3907 -0.0059 -0.0160
  340TIP3    H122511   3.533   3.310  13.348  1.6404  1.1046  0.7068
  340TIP3    H222512   3.473   3.191  13.420 -0.0793  0.1544 -2.1153
  341TIP3   OH222513   3.115   0.642  13.946 -0.0525 -0.2530  0.0238
  341TIP3    H122514   3.139   0.732  13.923 -1.1608  0.1080  0.2357
  341TIP3    H222515   3.025   0.633  13.917  0.1054 -1.3659 -0.1585
  342TIP3   OH222516   0.759   2.096   6.459  0.3201  0.0442  0.1056
  342TIP3    H122517   0.849   2.066   6.467 -0.3163 -1.7962  0.8422
  342TIP3    H222518   0.753   2.170   6.519  1.7583  1.3687 -1.2651
  343TIP3   OH222519   1.804   0.536  11.922 -1.0326 -0.7768  0.0679
  343TIP3    H122520   1.741   0.512  11.854  1.1096 -2.2951 -1.5322
  343TIP3    H222521   1.887   0.498  11.893  0.7494  1.3502  1.8916
  344TIP3   OH222522   3.047   5.747  12.147 -0.1180 -0.0020 -0.5497
  344TIP3    H122523   3.118   5.726  12.087 -0.0760  0.3576 -0.6272
  344TIP3    H222524   2.969   5.753  12.091  0.2194  2.1076 -0.8529
  345TIP3   OH222525   2.367   6.583  11.493  0.4790 -0.3157 -0.4573
  345TIP3    H122526   2.294   6.530  11.462 -0.3218 -0.5497  1.6685
  345TIP3    H222527   2.411   6.528  11.558 -0.4480  1.5532  1.8965
  346TIP3   OH222528   3.955   5.997   3.563 -0.5261  0.2189  0.4840
  346TIP3    H122529   3.937   6.028   3.651  0.9187  1.2827  0.4375
  346TIP3    H222530   3.881   5.941   3.541 -1.5562  1.0052  1.8566
  347TIP3   OH222531   4.540   3.623  15.149  0.8263 -0.8182  0.1000
  347TIP3    H122532   4.518   3.682  15.077  2.4179 -1.3921 -0.9191
  347TIP3    H222533   4.474   3.554  15.144  1.3114 -1.2266 -1.3042
  348TIP3   OH222534   6.584   5.230   0.281  0.6568  0.1870 -0.2278
  348TIP3    H122535   6.630   5.155   0.242  0.1485  0.3424 -1.1542
  348TIP3    H222536   6.505   5.240   0.228  1.1659  1.9657 -0.7108
  349TIP3   OH222537   1.604   3.451  13.244  0.1068 -0.8779  0.5137
  349TIP3    H122538   1.658   3.377  13.218 -1.5629 -1.4276 -1.5376
  349TIP3    H222539   1.514   3.420  13.240 -0.5778  0.8918  0.8929
  350TIP3   OH222540   5.223   2.271   3.030  0.3211  0.0314 -0.7315
  350TIP3    H122541   5.224   2.188   3.077  0.5093  0.4021 -0.0810
  350TIP3    H222542   5.295   2.321   3.068 -0.1523  0.7128 -0.7275
  351TIP3   OH222543   4.743   3.745  16.369 -0.3813  0.1364 -0.6147
  351TIP3    H122544   4.658   3.790  16.373 -1.6974 -2.2101 -0.1388
  351TIP3    H222545   4.804   3.806  16.411 -2.0056  1.5269 -0.1343
  352TIP3   OH222546   2.858   5.949  16.347  0.3025 -0.0977  0.3314
  352TIP3    H122547   2.795   5.909  16.406  0.7602 -0.9549  0.2504
  352TIP3    H222548   2.804   5.997  16.284 -0.2361 -0.2310  0.6819
  353TIP3   OH222549   1.981   4.815  12.549 -0.4930  0.1704  0.4287
  353TIP3    H122550   1.975   4.728  12.589 -0.5410 -0.8724 -1.6965
  353TIP3    H222551   2.061   4.812  12.496 -0.8681  1.1453 -0.2364
  354TIP3   OH222552   2.278   6.034  17.169 -0.0384 -0.0593 -0.1733
  354TIP3    H122553   2.191   6.030  17.130  0.1819 -2.6415 -0.5665
  354TIP3    H222554   2.261   6.048  17.263 -0.8433 -0.1216 -0.3015
  355TIP3   OH222555   5.802   3.575   0.668 -0.5844 -0.0456 -0.2650
  355TIP3    H122556   5.877   3.627   0.697  0.3903 -1.1095 -0.7721
  355TIP3    H222557   5.840   3.489   0.648 -2.1222 -0.9374  0.4977
  356TIP3   OH222558   6.779   4.900  10.746  0.1315 -0.6194 -0.1730
  356TIP3    H122559   6.833   4.971  10.780  1.7095 -1.2414 -1.2493
  356TIP3    H222560   6.828   4.821  10.765 -0.1798 -1.1785 -1.5461
  357TIP3   OH222561   5.647   2.795  12.214 -0.4522  0.3373  0.0182
  357TIP3    H122562   5.657   2.720  12.273  1.7485 -0.8928 -1.7674
  357TIP3    H222563   5.606   2.758  12.136  0.4437  1.0424 -0.7997
  358TIP3   OH222564   2.178   0.984   1.507  0.4619  0.0578  0.2513
  358TIP3    H122565   2.110   1.026   1.560  0.3047 -1.2768  1.1598
  358TIP3    H222566   2.133   0.961   1.426  0.7116  2.1515 -0.5384
  359TIP3   OH222567   0.587   4.809  15.415 -0.4410 -0.0282 -0.1992
  359TIP3    H122568   0.513   4.755  15.441 -1.0797  1.2661  0.7670
  359TIP3    H222569   0.569   4.895  15.452  1.6945  0.2522  0.3184
  360TIP3   OH222570   3.945   5.637   6.125  0.1206  0.4639 -0.0320
  360TIP3    H122571   3.865   5.617   6.076  0.5095 -0.8751 -0.1523
  360TIP3    H222572   3.934   5.728   6.152 -2.2436 -0.1675  1.4527
  361TIP3   OH222573   5.249   0.571  15.016 -0.0792 -0.1344  1.0386
  361TIP3    H122574   5.167   0.537  14.982  0.1800 -0.6498  0.9173
  361TIP3    H222575   5.252   0.543  15.107 -0.1306  0.0545  1.0980
  362TIP3   OH222576   2.845   1.684  14.027  0.0483  0.4240  0.3043
  362TIP3    H122577   2.860   1.773  13.994 -0.2050 -0.4493 -2.4437
  362TIP3    H222578   2.751   1.670  14.018  0.1399 -0.2535  0.3364
  363TIP3   OH222579   6.216   4.334  12.480 -0.4392 -0.3647 -0.0487
  363TIP3    H122580   6.304   4.361  12.455 -0.6075  0.4029  0.1600
  363TIP3    H222581   6.174   4.308  12.398 -0.4397  0.5210 -0.3327
  364TIP3   OH222582   0.672   4.667  15.117  0.0125 -0.0164  0.6275
  364TIP3    H122583   0.752   4.719  15.123  1.2948 -2.0243  2.0105
  364TIP3    H222584   0.661   4.651  15.023  0.3414  1.5261  0.2909
  365TIP3   OH222585   1.905   4.414   3.322 -0.0611  0.1407  0.3318
  365TIP3    H122586   1.972   4.372   3.375 -0.4497 -0.6492  0.2092
  365TIP3    H222587   1.953   4.455   3.250  0.1422 -2.6145 -1.2432
  366TIP3   OH222588   2.482   2.761   0.445 -0.1146  0.0621 -0.1146
  366TIP3    H122589   2.505   2.668   0.442  0.5327  0.1868  0.7882
  366TIP3    H222590   2.459   2.777   0.536 -0.0287  0.8342 -0.2261
  367TIP3   OH222591   1.255   0.164  11.017 -0.0022  0.1248  0.2673
  367TIP3    H122592   1.275   0.255  11.037 -2.0235  0.0969  2.8525
  367TIP3    H222593   1.219   0.128  11.098 -1.5588 -2.2920 -1.3586
  368TIP3   OH222594   4.611   1.495   4.902 -0.3701 -0.0932 -0.3469
  368TIP3    H122595   4.696   1.450   4.909 -1.5216 -2.9920 -2.8576
  368TIP3    H222596   4.635   1.587   4.890  2.3057 -0.4779  1.0993
  369TIP3   OH222597   4.881   6.201   2.785 -0.6502  0.2600 -0.5906
  369TIP3    H122598   4.894   6.246   2.869  0.9534  0.1447 -0.7535
  369TIP3    H222599   4.811   6.138   2.802  1.7631 -2.0536  1.6213
  370TIP3   OH222600   5.328   0.127   3.884 -0.1623  0.1759 -0.3312
  370TIP3    H122601   5.310   0.037   3.912  0.6081 -0.0807 -0.6289
  370TIP3    H222602   5.320   0.179   3.964 -0.9920 -0.0930 -0.2317
  371TIP3   OH222603   6.779   1.703   5.208 -0.1021  0.0835 -0.2618
  371TIP3    H122604   6.712   1.635   5.199  0.4898 -0.6991  0.9901
  371TIP3    H222605   6.857   1.656   5.236  0.2007  1.3202  1.0773
  372TIP3   OH222606   4.100   2.208  16.510 -0.2273  0.1435  0.0857
  372TIP3    H122607   4.180   2.169  16.474 -0.6708 -0.6215 -0.0903
  372TIP3    H222608   4.029   2.156  16.474 -0.7970  0.6126  0.4987
  373TIP3   OH222609   4.808   2.311   2.894 -0.1435 -0.4869 -0.3824
  373TIP3    H122610   4.889   2.361   2.907  0.4115 -1.9278  2.5507
  373TIP3    H222611   4.754   2.367   2.838  1.5216  2.0957  0.4138
  374TIP3   OH222612   4.599   4.856   3.704 -0.1184 -0.1460  0.1961
  374TIP3    H122613   4.685   4.830   3.736 -0.3639 -1.0285  0.1500
  374TIP3    H222614   4.563   4.777   3.665  0.2482  0.8726 -2.4822
  375TIP3   OH222615   3.213   5.470  11.712  0.3942  0.3932  0.1121
  375TIP3    H122616   3.140   5.527  11.738 -1.8228 -1.4721 -1.6292
  375TIP3    H222617   3.228   5.414  11.788 -2.7075 -1.7404 -0.6564
  376TIP3   OH222618   3.994   0.093  15.435 -0.3759 -0.3137  0.2573
  376TIP3    H122619   3.955   0.159  15.377 -1.0689 -3.3552 -3.1435
  376TIP3    H222620   3.923   0.068  15.494 -0.7016  0.5923  0.2572
  377TIP3   OH222621   3.934   6.069  15.298  0.2301  0.4356  0.5925
  377TIP3    H122622   3.845   6.040  15.317 -0.0720  0.1805 -1.0422
  377TIP3    H222623   3.970   6.000  15.242  1.3816  0.6669  1.0098
  378TIP3   OH222624   6.559   2.388  10.854 -0.1669 -0.2630  0.5103
  378TIP3    H122625   6.494   2.327  10.890 -0.0518 -0.4407  0.4221
  378TIP3    H222626   6.628   2.331  10.821 -0.0832 -0.0831  0.3775
  379TIP3   OH222627   0.978   6.775  12.901  0.4620 -0.1058 -0.3653
  379TIP3    H122628   0.960   6.719  12.976  1.3101  0.1059  0.0099
  379TIP3    H222629   1.061   6.742  12.866  0.2109 -0.0348 -1.0496
  380TIP3   OH222630   3.117   0.381   2.601 -0.2503 -0.6996 -0.5037
  380TIP3    H122631   3.067   0.444   2.653  0.9568 -0.8995  0.9655
  380TIP3    H222632   3.074   0.381   2.516 -2.0477 -0.0402  0.3544
  381TIP3   OH222633   0.101   3.790   5.654 -0.1963 -0.4588 -0.4661
  381TIP3    H122634   0.172   3.821   5.598 -0.7774 -1.0225 -1.5470
  381TIP3    H222635   0.022   3.798   5.600 -1.1590  1.1326  1.0502
  382TIP3   OH222636   5.805   1.894   4.401  0.0896 -0.3299  0.7098
  382TIP3    H122637   5.764   1.820   4.356 -0.0779  0.1860  0.0071
  382TIP3    H222638   5.834   1.952   4.331 -0.5514  0.6887  1.2600
  383TIP3   OH222639   6.454   1.785  14.074 -0.2932  0.6809 -0.1230
  383TIP3    H122640   6.450   1.689  14.075  1.6762  0.5760  0.2779
  383TIP3    H222641   6.489   1.806  13.988  0.1320  0.9961  0.1289
  384TIP3   OH222642   3.327   0.016   2.896 -0.1285  0.1871  0.6000
  384TIP3    H122643   3.293   0.055   2.815 -0.8405  1.7544  1.5994
  384TIP3    H222644   3.346  -0.075   2.873 -0.8453  0.4395 -1.1633
  385TIP3   OH222645   2.035   6.029  17.019 -0.2044 -0.5039 -0.2709
  385TIP3    H122646   1.956   5.974  17.014 -1.7400  1.3853  1.3705
  385TIP3    H222647   2.044   6.065  16.931 -1.7199 -0.0742 -0.2817
  386TIP3   OH222648   2.962   5.727   5.265 -0.3094 -0.2682  0.7351
  386TIP3    H122649   3.000   5.765   5.345  0.1001 -1.0943  0.9431
  386TIP3    H222650   3.033   5.675   5.228 -0.2461  0.7081 -0.5939
  387TIP3   OH222651   1.937   2.174   2.852 -0.1297  0.0043  0.8968
  387TIP3    H122652   1.979   2.088   2.858 -0.9109 -1.1383 -4.3885
  387TIP3    H222653   1.844   2.156   2.863 -0.3829 -0.1203 -1.0631
  388TIP3   OH222654   2.717   0.237  12.437  0.6268  0.5205  0.1048
  388TIP3    H122655   2.676   0.318  12.406 -1.1397 -0.9190 -1.5341
  388TIP3    H222656   2.811   0.256  12.438  0.7101  1.3159 -4.4469
  389TIP3   OH222657   2.853   4.726  15.102 -0.3041  0.1586 -0.7304
  389TIP3    H122658   2.811   4.798  15.149 -1.0706 -0.2982 -0.7076
  389TIP3    H222659   2.918   4.769  15.046  1.3962  0.6789  1.4551
  390TIP3   OH222660   5.328   0.602   5.020 -0.0647  0.6802 -0.4756
  390TIP3    H122661   5.235   0.602   5.001  0.0601  0.0334 -1.1529
  390TIP3    H222662   5.356   0.512   5.002  1.1607  1.4313 -2.7609
  391TIP3   OH222663   1.320   2.104   6.295 -0.2337  0.6703 -0.4085
  391TIP3    H122664   1.412   2.127   6.301  0.3635 -1.7349  2.0124
  391TIP3    H222665   1.308   2.073   6.205  1.2528  1.2110 -0.8093
  392TIP3   OH222666   3.708   1.782   5.591 -0.1239 -0.0485 -0.5632
  392TIP3    H122667   3.695   1.714   5.525 -0.0854 -1.1569  0.5219
  392TIP3    H222668   3.803   1.786   5.604  0.1667  2.2146 -2.5716
  393TIP3   OH222669   2.831   2.264  16.441 -0.3424  0.1147 -0.1050
  393TIP3    H122670   2.886   2.234  16.369 -0.3332 -0.2741  0.0594
  393TIP3    H222671   2.800   2.183  16.482 -1.0710  0.3205 -0.2253
  394TIP3   OH222672   0.504   4.873  10.371 -0.2368 -0.3889 -0.0669
  394TIP3    H122673   0.437   4.928  10.331 -0.5753  0.0025  0.9893
  394TIP3    H222674   0.484   4.876  10.465  2.4698  1.4460  0.5672
  395TIP3   OH222675   2.997   2.402  16.103  0.4272  0.0935  0.1414
  395TIP3    H122676   3.046   2.336  16.055  0.1151 -1.0572  1.3560
  395TIP3    H222677   2.910   2.364  16.114 -0.2825  1.4356 -0.6070
  396TIP3   OH222678   5.537   2.360   3.412 -0.1327 -0.2722 -0.2571
  396TIP3    H122679   5.461   2.302   3.410 -0.3875  0.0228  0.4771
  396TIP3    H222680   5.588   2.336   3.334 -2.1104  1.0669 -2.0773
  397TIP3   OH222681   0.439   2.709   3.088  0.8735 -0.1781 -0.0103
  397TIP3    H122682   0.470   2.633   3.039  0.4067 -1.9666  2.2559
  397TIP3    H222683   0.343   2.703   3.085  0.8332  0.2853  0.2113
  398TIP3   OH222684   3.893   2.156   5.100 -0.0487  0.0601 -0.3895
  398TIP3    H122685   3.816   2.173   5.046 -0.6220 -3.2003 -0.8562
  398TIP3    H222686   3.859   2.149   5.189 -0.0519  0.0249 -0.3935
  399TIP3   OH222687   3.231   1.076  11.457 -0.2571  0.3302 -0.2653
  399TIP3    H122688   3.240   1.165  11.491 -1.5631  0.0246  0.9534
  399TIP3    H222689   3.166   1.035  11.513 -0.2073 -1.1858 -1.2572
  400TIP3   OH222690   4.042   1.035  12.806  0.7048 -0.3797 -0.2864
  400TIP3    H122691   4.018   0.944  12.823  1.2023 -0.3651  0.5920
  400TIP3    H222692   3.968   1.071  12.757 -0.2203 -0.8425  0.7122
  401TIP3   OH222693   5.819   2.136   3.727  0.1178 -0.1698  0.2570
  401TIP3    H122694   5.737   2.100   3.694  0.1205  0.7746 -0.8540
  401TIP3    H222695   5.797   2.226   3.752  1.0576  0.5111 -1.2455
  402TIP3   OH222696   6.831   2.610  17.066  0.2321 -0.1214  0.3219
  402TIP3    H122697   6.798   2.536  17.014 -0.2240  0.4854 -0.2627
  402TIP3    H222698   6.752   2.657  17.093  0.5775  1.3554 -1.1093
  403TIP3   OH222699   2.876   2.754  11.015  0.0312 -0.2804  0.5644
  403TIP3    H122700   2.935   2.795  10.951  0.1122 -0.5883  0.4388
  403TIP3    H222701   2.799   2.730  10.964  0.9909 -2.5485  0.0819
  404TIP3   OH222702   3.841   2.252   1.308 -0.4496  0.1082  0.0492
  404TIP3    H122703   3.927   2.288   1.328 -0.9095  1.2080  0.0953
  404TIP3    H222704   3.850   2.212   1.221  0.1654 -0.0121  0.1696
  405TIP3   OH222705   4.840   3.558  11.599 -0.0092 -0.0659 -0.4667
  405TIP3    H122706   4.831   3.589  11.509 -1.1529 -0.1391 -0.3980
  405TIP3    H222707   4.921   3.508  11.599  0.7835  1.1623 -1.0878
  406TIP3   OH222708   3.062   4.930  13.773 -0.2622  0.2340  0.2038
  406TIP3    H122709   3.115   4.974  13.840  1.1577  0.5514 -1.0725
  406TIP3    H222710   3.052   4.995  13.704 -2.8322  0.3646  0.6110
  407TIP3   OH222711   3.949   2.538  14.700 -0.6103 -0.3180 -0.0095
  407TIP3    H122712   4.009   2.487  14.755  0.6075  0.2557 -0.7525
  407TIP3    H222713   3.910   2.602  14.758 -0.1526 -0.4097  0.4022
  408TIP3   OH222714   5.777   4.251  12.994 -0.2288  0.0371  0.6176
  408TIP3    H122715   5.712   4.277  13.059 -1.9259 -0.8681 -0.6581
  408TIP3    H222716   5.782   4.325  12.933  1.3596  0.8840  1.6945
  409TIP3   OH222717   0.634   2.283  15.161  0.2839  1.1638  0.5735
  409TIP3    H122718   0.685   2.334  15.224  1.5145 -0.1225  0.6877
  409TIP3    H222719   0.684   2.202  15.151 -0.4344  0.9061 -1.2678
  410TIP3   OH222720   4.989   4.802  14.135  0.0259 -1.0323  0.7494
  410TIP3    H122721   4.903   4.835  14.160  0.4689 -1.0171  2.4315
  410TIP3    H222722   5.034   4.878  14.097  0.7651  0.2621  3.8742
  411TIP3   OH222723   3.120   5.628   2.129 -0.3977 -0.0516 -0.0067
  411TIP3    H122724   3.093   5.697   2.189  0.2063  1.2430 -1.1644
  411TIP3    H222725   3.207   5.654   2.100 -0.3649 -1.0464 -0.8580
  412TIP3   OH222726   2.507   4.113  12.386  0.1562 -0.0927  0.0348
  412TIP3    H122727   2.531   4.031  12.430  0.6371  0.0982  0.1329
  412TIP3    H222728   2.411   4.116  12.391  0.1034 -0.8847 -0.3974
  413TIP3   OH222729   6.485   6.089  16.010 -0.1418 -0.2905 -0.0286
  413TIP3    H122730   6.525   6.092  16.097 -0.3564  2.6492  0.0647
  413TIP3    H222731   6.483   5.996  15.988  1.9455 -0.9603  2.1492
  414TIP3   OH222732   4.861   5.225   6.558 -0.3889 -0.3603 -0.6754
  414TIP3    H122733   4.808   5.168   6.614  0.9649  0.4542  1.5732
  414TIP3    H222734   4.951   5.192   6.569  0.3757  1.8899  0.4000
  415TIP3   OH222735   0.196   1.689   2.451  0.1205  0.0327  0.8240
  415TIP3    H122736   0.218   1.601   2.420  0.5973  0.2027  0.6652
  415TIP3    H222737   0.167   1.676   2.541  0.9656 -0.1976  1.0708
  416TIP3   OH222738   2.428   2.816   0.719 -0.0902 -0.5713 -0.0620
  416TIP3    H122739   2.433   2.760   0.797  2.8448 -1.9403 -1.0732
  416TIP3    H222740   2.342   2.857   0.725 -0.2074 -0.9473  3.6383
  417TIP3   OH222741   4.248   2.869  12.891  0.0013 -0.7877 -0.1981
  417TIP3    H122742   4.165   2.893  12.934  1.6603  0.5982  2.4908
  417TIP3    H222743   4.255   2.775  12.902 -1.4463 -1.0332 -1.0266
  418TIP3   OH222744   2.144   3.554  10.838  0.2239 -0.5405 -0.0344
  418TIP3    H122745   2.190   3.604  10.907  0.4704 -1.0308  0.1641
  418TIP3    H222746   2.202   3.480  10.821 -0.9069 -1.6849  0.8723
  419TIP3   OH222747   3.655   1.710  14.293 -0.3774 -0.0141 -0.6195
  419TIP3    H122748   3.587   1.725  14.227  1.4375  1.6154 -2.2427
  419TIP3    H222749   3.654   1.615  14.306 -2.1629 -0.1607 -1.4423
  420TIP3   OH222750   4.312   3.468   1.332  0.0291 -0.1155  0.3771
  420TIP3    H122751   4.358   3.405   1.276  0.1788 -0.5724  0.9996
  420TIP3    H222752   4.380   3.501   1.391 -0.2747 -0.2010  0.7766
  421TIP3   OH222753   3.731   2.122   3.637 -0.7811 -0.8274  0.5786
  421TIP3    H122754   3.648   2.152   3.599 -1.2998 -0.9223  1.5990
  421TIP3    H222755   3.796   2.184   3.603 -1.5641  0.4175  1.2597
  422TIP3   OH222756   6.346   1.449   1.173  0.2093 -0.3465  0.1511
  422TIP3    H122757   6.354   1.395   1.252  0.3403  0.6096  0.8201
  422TIP3    H222758   6.424   1.428   1.122 -0.2697 -1.5656 -0.1224
  423TIP3   OH222759   1.871   5.042  13.544 -0.1721  0.5952  0.1877
  423TIP3    H122760   1.896   4.972  13.604  0.0592 -0.1124 -0.7019
  423TIP3    H222761   1.856   4.997  13.460  1.0016  1.7403 -0.6736
  424TIP3   OH222762   0.191   0.752   2.685  0.2830 -0.1703  0.6255
  424TIP3    H122763   0.284   0.736   2.669  0.1156  0.8816 -2.0241
  424TIP3    H222764   0.154   0.665   2.699  1.4380 -0.7783  0.1109
  425TIP3   OH222765   3.617   4.108  11.712  0.5037  0.6069  0.1316
  425TIP3    H122766   3.543   4.058  11.676  1.2265 -2.4252  2.4492
  425TIP3    H222767   3.576   4.172  11.771 -0.3600 -1.2244  1.6073
  426TIP3   OH222768   0.637   1.401   0.474 -0.0147 -0.2060  0.1737
  426TIP3    H122769   0.596   1.487   0.460 -1.1713 -0.5632  1.2298
  426TIP3    H222770   0.722   1.408   0.431 -0.8085  0.8701 -1.2936
  427TIP3   OH222771   6.268   1.923   3.462 -0.6089 -0.5210  0.1038
  427TIP3    H122772   6.211   1.986   3.507 -1.1589 -1.8507  1.3915
  427TIP3    H222773   6.270   1.847   3.521  2.6234 -0.5149  0.1694
  428TIP3   OH222774   5.587   5.542   1.636  0.0384  0.0232 -0.2778
  428TIP3    H122775   5.559   5.623   1.593 -1.1549  0.5138  1.3245
  428TIP3    H222776   5.515   5.481   1.624 -0.7759  0.4901  1.7746
  429TIP3   OH222777   4.648   6.693   2.516 -0.1183  0.5236  0.1202
  429TIP3    H122778   4.617   6.613   2.474  1.0512  0.6992 -1.1257
  429TIP3    H222779   4.661   6.668   2.608 -0.3503 -0.5513 -0.1235
  430TIP3   OH222780   5.344   5.968  17.015  0.1884 -0.0585 -0.2341
  430TIP3    H122781   5.338   5.921  16.932 -1.3935 -1.1674  0.4733
  430TIP3    H222782   5.434   6.000  17.016  0.7548 -1.4173 -1.6384
  431TIP3   OH222783   6.012   0.999  11.837  1.0917  0.0897  0.2538
  431TIP3    H122784   6.105   0.979  11.844  1.1271  0.8043  2.7565
  431TIP3    H222785   6.007   1.094  11.832  0.5658  0.0577 -4.0556
  432TIP3   OH222786   2.949   1.475  14.229 -0.0523 -0.1155 -0.2977
  432TIP3    H122787   3.003   1.431  14.163 -1.5815 -0.9207 -1.0597
  432TIP3    H222788   2.923   1.557  14.186  0.9348  0.5155  0.2628
  433TIP3   OH222789   1.991   3.826   0.168 -0.4360 -0.3310 -0.4035
  433TIP3    H122790   2.016   3.917   0.179  1.9295 -0.7346 -1.7252
  433TIP3    H222791   2.034   3.780   0.241  0.1593 -0.6294 -0.9273
  434TIP3   OH222792   5.738   6.139   3.999 -0.1088 -0.3191  0.1986
  434TIP3    H122793   5.817   6.089   4.021 -1.0723 -2.2317 -0.4475
  434TIP3    H222794   5.674   6.112   4.065 -0.1556  1.5254  0.9649
  435TIP3   OH222795   6.546   4.288  12.181  0.2265 -0.3311  0.2961
  435TIP3    H122796   6.520   4.379  12.169 -0.1847 -0.6047 -0.9655
  435TIP3    H222797   6.635   4.293  12.216  0.9052  0.5436 -1.4614
  436TIP3   OH222798   2.127   4.130  13.670 -0.3723 -0.3289  0.0861
  436TIP3    H122799   2.034   4.147  13.654  0.0681  1.6213 -0.7061
  436TIP3    H222800   2.135   4.131  13.766 -1.2998 -1.3926  0.1888
  437TIP3   OH222801   3.940   1.825   0.055 -0.1973 -0.2854  0.5054
  437TIP3    H122802   3.982   1.749   0.095  0.8444  0.4819  0.9354
  437TIP3    H222803   3.862   1.790   0.012 -0.3789 -1.4160  1.6795
  438TIP3   OH222804   2.873   6.243   1.372  0.5095  0.2632  0.2398
  438TIP3    H122805   2.868   6.152   1.402  0.2696 -0.4852 -1.8858
  438TIP3    H222806   2.966   6.259   1.360  0.5097  0.0194 -0.1104
  439TIP3   OH222807   3.127   2.871  15.071  0.1344 -0.2120 -0.0122
  439TIP3    H122808   3.068   2.860  15.146 -0.5708  1.3322 -0.2850
  439TIP3    H222809   3.200   2.922  15.105  0.3839 -0.5086 -0.1050
  440TIP3   OH222810   1.287   0.503   4.004  0.4209  0.1445  0.4161
  440TIP3    H122811   1.218   0.441   3.981  0.1176  0.6039  0.0639
  440TIP3    H222812   1.249   0.555   4.075  1.4983 -1.5361  2.3382
  441TIP3   OH222813   0.406   0.245  12.869  0.0134  0.3977  0.4876
  441TIP3    H122814   0.410   0.291  12.785  0.5597 -0.7282 -0.1165
  441TIP3    H222815   0.362   0.163  12.850  3.1608 -1.4601  0.4955
  442TIP3   OH222816   0.741   5.787   1.471  0.6164 -0.1120  0.0540
  442TIP3    H122817   0.684   5.856   1.437 -0.1416 -1.5910 -1.9052
  442TIP3    H222818   0.827   5.806   1.434  0.5081  0.0161 -0.1340
  443TIP3   OH222819   4.774   5.127  11.200 -0.4476  0.3425 -0.4336
  443TIP3    H122820   4.687   5.147  11.233 -0.8117 -1.0495 -0.5004
  443TIP3    H222821   4.777   5.032  11.195  1.3962  0.2995  0.4201
  444TIP3   OH222822   5.739   5.895   2.624  0.3465  0.1493  0.0553
  444TIP3    H122823   5.783   5.853   2.698 -0.5974 -1.2949 -0.1605
  444TIP3    H222824   5.663   5.938   2.663  1.0280  1.2610  0.2015
  445TIP3   OH222825   5.596   3.791   4.883 -0.5367  0.1052  0.7269
  445TIP3    H122826   5.618   3.750   4.800 -1.4519  0.4246  0.3110
  445TIP3    H222827   5.519   3.845   4.864 -0.9879 -0.1011  1.8494
  446TIP3   OH222828   4.863   6.500  14.945 -0.6437 -0.7723 -0.0059
  446TIP3    H122829   4.894   6.438  14.880  0.9448  1.4022 -1.4322
  446TIP3    H222830   4.848   6.447  15.023  0.5161 -2.9502 -1.1725
  447TIP3   OH222831   0.517   4.626   4.088  0.0190 -0.2515 -0.2053
  447TIP3    H122832   0.557   4.599   4.005 -0.8764 -0.6936 -0.5093
  447TIP3    H222833   0.567   4.703   4.115  0.2216 -0.0012 -1.2438
  448TIP3   OH222834   6.076   4.738  14.280 -0.2548 -0.0048  0.1561
  448TIP3    H122835   6.115   4.782  14.356 -1.7518  0.3581  0.7603
  448TIP3    H222836   6.150   4.696  14.236  0.6494 -0.3285  1.8828
  449TIP3   OH222837   5.144   1.446   2.955  0.1406  0.0576 -0.3442
  449TIP3    H122838   5.101   1.404   2.881  0.3624 -0.7248 -0.0362
  449TIP3    H222839   5.192   1.375   2.999  0.2414  0.5608  0.3807
  450TIP3   OH222840   1.970   2.045   5.806  1.0499 -0.4259  0.1870
  450TIP3    H122841   1.998   2.081   5.722  0.7559 -1.2213 -0.2582
  450TIP3    H222842   1.967   1.951   5.792  1.1159 -0.5788  1.1281
  451TIP3   OH222843   4.565   0.627   4.144  0.0591 -0.5249  0.6764
  451TIP3    H122844   4.488   0.681   4.157 -0.3488 -0.6919 -0.8712
  451TIP3    H222845   4.635   0.689   4.124 -0.5168 -0.5122 -1.6021
  452TIP3   OH222846   1.547   1.178   3.740  0.0502 -0.2647 -0.0054
  452TIP3    H122847   1.625   1.158   3.791 -0.1781 -0.7153  0.1700
  452TIP3    H222848   1.478   1.192   3.805  0.2833  1.5259 -0.0972
  453TIP3   OH222849   3.024   6.194  12.572 -0.0274  0.2948 -0.0393
  453TIP3    H122850   2.964   6.123  12.595 -2.3313  2.1286 -0.0053
  453TIP3    H222851   3.031   6.247  12.652  0.9499  0.6030 -0.3110
  454TIP3   OH222852   0.194   2.889   2.616 -0.1910  0.0207  0.0317
  454TIP3    H122853   0.137   2.868   2.690  0.9799  0.0088  0.9705
  454TIP3    H222854   0.217   2.981   2.628 -1.5952  0.6233 -1.4815
  455TIP3   OH222855   5.204   4.213   5.488  0.0538  0.3921  0.0874
  455TIP3    H122856   5.155   4.283   5.531 -0.0122 -0.5306  1.5967
  455TIP3    H222857   5.175   4.216   5.397 -0.4876  1.8458  0.2814
  456TIP3   OH222858   4.960   0.051   3.188 -0.0476 -0.0601  0.0093
  456TIP3    H122859   4.868   0.044   3.214 -0.1981 -1.0359 -0.7227
  456TIP3    H222860   4.973   0.144   3.172 -1.1168  0.0108 -0.5720
  457TIP3   OH222861   3.157   5.751  11.861 -0.4891  0.4034 -0.1055
  457TIP3    H122862   3.076   5.699  11.865 -0.5192  0.2890 -1.6760
  457TIP3    H222863   3.129   5.834  11.823  0.0313  0.5735 -0.1126
  458TIP3   OH222864   4.013   6.588   5.334 -0.6727  0.2944  0.1997
  458TIP3    H122865   3.981   6.595   5.424 -1.0059  0.3612  0.0776
  458TIP3    H222866   4.068   6.665   5.321  1.8764 -1.2110  1.3322
  459TIP3   OH222867   4.079   5.297   3.482  0.2667 -0.1745 -0.1198
  459TIP3    H122868   4.064   5.263   3.393  0.1956  1.4834 -0.7711
  459TIP3    H222869   4.146   5.240   3.518  1.5515  0.1405 -1.8880
  460TIP3   OH222870   3.763   2.855  16.711  0.0312 -0.0205 -0.1626
  460TIP3    H122871   3.722   2.772  16.733  2.2012 -0.7921  1.3321
  460TIP3    H222872   3.746   2.911  16.786  1.2702 -0.2213  0.2963
  461TIP3   OH222873   5.911   4.483  13.530 -0.4972  0.4044 -0.5061
  461TIP3    H122874   5.997   4.500  13.569 -1.4279  1.8668  1.0213
  461TIP3    H222875   5.907   4.388  13.521  0.2791  0.0772  1.8796
  462TIP3   OH222876   0.309   3.383   6.227  0.3242 -0.1642  0.3385
  462TIP3    H122877   0.215   3.378   6.240  0.0358  2.2495 -0.3849
  462TIP3    H222878   0.345   3.397   6.314 -0.0094 -0.7003  0.5677
  463TIP3   OH222879   5.458   3.840  12.659  0.1123  0.3270 -0.8537
  463TIP3    H122880   5.398   3.864  12.589  0.4367 -1.0727 -1.6579
  463TIP3    H222881   5.410   3.774  12.710  0.1966  0.7159 -0.2633
  464TIP3   OH222882   1.584   2.969  13.714 -0.0780  0.7056  0.6118
  464TIP3    H122883   1.506   2.921  13.741  0.3440 -0.2782  0.1390
  464TIP3    H222884   1.657   2.922  13.754  0.5017 -0.3258 -1.5265
  465TIP3   OH222885   2.841   3.144  14.397  0.4624 -0.1296 -0.0797
  465TIP3    H122886   2.800   3.108  14.476  0.5384  0.6009  0.3037
  465TIP3    H222887   2.934   3.123  14.406  0.1966 -1.9068 -1.0136
  466TIP3   OH222888   0.451   5.910   3.148  0.1905  0.5322 -0.2235
  466TIP3    H122889   0.444   5.815   3.137 -1.1591  0.6762 -0.8254
  466TIP3    H222890   0.524   5.936   3.092  0.0506 -0.0460 -0.6809
  467TIP3   OH222891   2.422   5.568   0.206 -0.1538  0.1181 -0.6103
  467TIP3    H122892   2.363   5.643   0.210  1.0370  1.0865 -0.6993
  467TIP3    H222893   2.453   5.557   0.296 -1.3334 -1.1295 -0.3257
  468TIP3   OH222894   1.605   6.382  16.667 -0.1967 -0.1318  0.8712
  468TIP3    H122895   1.619   6.348  16.578 -0.0242 -0.0163  0.8533
  468TIP3    H222896   1.519   6.349  16.692  0.0765 -0.8092  0.9536
  469TIP3   OH222897   5.854   6.081   1.778  0.9722 -0.0341  0.5574
  469TIP3    H122898   5.826   6.169   1.751 -0.1278 -1.2212 -2.6713
  469TIP3    H222899   5.948   6.080   1.758  1.0700  0.5096  0.9594
  470TIP3   OH222900   2.714   2.263  16.859 -0.2364 -0.3613 -0.4775
  470TIP3    H122901   2.782   2.225  16.804  0.2018 -1.1378  0.5649
  470TIP3    H222902   2.664   2.188  16.891  0.0726 -0.0203  0.8723
  471TIP3   OH222903   1.148   5.969  16.030  0.0646  0.1022 -0.1258
  471TIP3    H122904   1.146   6.062  16.053  1.2473  0.2464 -0.4955
  471TIP3    H222905   1.242   5.949  16.023 -0.1953 -0.9327 -0.7885
  472TIP3   OH222906   6.418   2.925   0.506  0.4668 -0.1883 -0.2409
  472TIP3    H122907   6.343   2.953   0.455 -1.4652 -1.7743  1.5727
  472TIP3    H222908   6.414   2.829   0.506  2.4442 -0.3277  0.0017
  473TIP3   OH222909   5.276   1.366  13.422  0.3848  0.0351 -0.4449
  473TIP3    H122910   5.257   1.360  13.328  0.0093  0.2144 -0.3837
  473TIP3    H222911   5.281   1.460  13.439  0.0001  0.0137 -0.2011
  474TIP3   OH222912   6.304   6.397  12.497 -0.2054  0.0988  0.7603
  474TIP3    H122913   6.222   6.411  12.449  0.0479  0.8604  0.5378
  474TIP3    H222914   6.280   6.412  12.589 -0.7883 -1.7751  0.9670
  475TIP3   OH222915   2.736   3.535   2.080  0.0437 -0.0277  0.5450
  475TIP3    H122916   2.811   3.593   2.085 -0.1534  0.2071  0.8099
  475TIP3    H222917   2.767   3.459   2.030 -0.2504  1.1632 -1.5557
  476TIP3   OH222918   5.110   2.783  10.780  0.0531 -0.4592 -0.4304
  476TIP3    H122919   5.157   2.710  10.739  0.0612 -0.9537  0.4344
  476TIP3    H222920   5.018   2.765  10.761  0.1696  0.7119 -2.4570
  477TIP3   OH222921   0.865   4.567  15.849 -0.2034 -0.1597 -0.1756
  477TIP3    H122922   0.856   4.608  15.763 -0.5522  1.8926  0.7619
  477TIP3    H222923   0.824   4.629  15.909  0.4694 -1.2986  1.5397
  478TIP3   OH222924   1.646   0.120   0.418  0.4996 -0.2272 -0.5688
  478TIP3    H122925   1.735   0.099   0.390  0.2830 -2.0360 -0.0297
  478TIP3    H222926   1.637   0.214   0.401  1.8662 -0.3700 -2.3321
  479TIP3   OH222927   0.700   1.061   3.717 -0.5262  0.1596 -0.1779
  479TIP3    H122928   0.788   1.037   3.746 -0.7269  0.8057  1.0287
  479TIP3    H222929   0.666   0.981   3.677  0.6574 -0.0552 -0.7995
  480TIP3   OH222930   2.410   0.021   1.936  0.5748  0.2271  0.1792
  480TIP3    H122931   2.323  -0.011   1.913  0.7444  0.4558 -0.8111
  480TIP3    H222932   2.408   0.027   2.032 -0.9653  1.5322  0.1187
  481TIP3   OH222933   2.079   2.404  11.634  0.0536 -0.6608 -0.4751
  481TIP3    H122934   2.136   2.334  11.666  0.4359 -0.4090 -0.5867
  481TIP3    H222935   2.070   2.387  11.541  3.8390  1.8421 -1.5708
  482TIP3   OH222936   6.050   2.902  11.079 -0.0845 -0.1391 -0.0914
  482TIP3    H122937   6.135   2.946  11.073 -0.4415  1.0035  1.9648
  482TIP3    H222938   5.987   2.971  11.061 -0.5984 -0.8878 -1.2021
  483TIP3   OH222939   0.914   1.771   4.439  0.5891  0.7857 -0.1119
  483TIP3    H122940   0.898   1.746   4.530 -1.4986  1.4171 -0.2652
  483TIP3    H222941   0.992   1.826   4.442  0.8051  0.4346  1.2160
  484TIP3   OH222942   0.173   5.957  11.154 -0.7738  0.2471 -0.1671
  484TIP3    H122943   0.126   5.981  11.234 -0.2221  0.0081  0.2386
  484TIP3    H222944   0.265   5.954  11.180 -0.6463 -0.4574 -0.6496
  485TIP3   OH222945   0.893   5.566   1.501  0.2779 -0.1000  0.2139
  485TIP3    H122946   0.816   5.611   1.465  0.4316 -0.5411 -0.7029
  485TIP3    H222947   0.907   5.492   1.441 -0.5472 -1.9544  2.1543
  486TIP3   OH222948   6.146   0.241   4.445 -0.1705 -0.4527 -0.4230
  486TIP3    H122949   6.139   0.161   4.498  0.6491 -0.0793  0.2734
  486TIP3    H222950   6.104   0.309   4.497  1.0711  0.0188  0.0113
  487TIP3   OH222951   0.274   0.523   6.191 -0.2526  0.2041  0.6745
  487TIP3    H122952   0.334   0.566   6.251 -1.3442  2.3576  0.3413
  487TIP3    H222953   0.286   0.569   6.108 -1.9316  0.3568  0.4674
  488TIP3   OH222954   2.119   3.109  12.611  0.3802 -0.3699 -0.0488
  488TIP3    H122955   2.146   3.185  12.559  0.3706 -0.2907  0.0629
  488TIP3    H222956   2.031   3.088  12.578  0.5059 -0.5225 -0.2929
  489TIP3   OH222957   5.046   4.593   1.609 -0.0004 -0.2781 -0.1194
  489TIP3    H122958   5.047   4.654   1.535  0.2006 -0.9661 -0.7008
  489TIP3    H222959   5.085   4.513   1.574 -1.4326 -1.1682  0.2573
  490TIP3   OH222960   0.034   4.887  11.104  0.0712 -0.4297 -0.1685
  490TIP3    H122961   0.124   4.918  11.111  0.1721 -0.8030  0.2432
  490TIP3    H222962   0.041   4.804  11.056  0.2377 -1.6910  1.9463
  491TIP3   OH222963   0.244   6.436  16.071  0.0784 -0.2260 -0.0594
  491TIP3    H122964   0.201   6.507  16.119 -0.2795 -0.4562 -0.0376
  491TIP3    H222965   0.172   6.387  16.030  0.2715 -0.9933  0.5039
  492TIP3   OH222966   4.669   6.017  14.586 -0.3736  0.3668 -0.2752
  492TIP3    H122967   4.663   6.063  14.670  0.5522 -1.4214  0.8229
  492TIP3    H222968   4.603   5.948  14.592  1.0430 -1.0255 -0.1549
  493TIP3   OH222969   2.871   3.265  12.400 -0.0117  0.9258 -0.1495
  493TIP3    H122970   2.834   3.209  12.468  0.1146  1.2558  0.1946
  493TIP3    H222971   2.838   3.228  12.318  0.9014 -0.2887  0.0007
  494TIP3   OH222972   1.821   1.273   4.428  0.2162 -0.0679  0.4238
  494TIP3    H122973   1.894   1.301   4.374 -0.0559  0.1809  0.1827
  494TIP3    H222974   1.744   1.314   4.389 -0.1751 -1.0216  0.1376
  495TIP3   OH222975   3.342   3.616   3.233 -0.2605  0.1675 -0.0937
  495TIP3    H122976   3.253   3.586   3.254 -0.6365  1.5167  0.3338
  495TIP3    H222977   3.388   3.537   3.204 -1.5807 -0.5595 -0.2716
  496TIP3   OH222978   5.168   4.239   0.807  0.0073 -0.2518 -0.4331
  496TIP3    H122979   5.177   4.199   0.721  0.2090 -0.2811 -0.3994
  496TIP3    H222980   5.231   4.192   0.862 -0.1057 -0.2197 -0.2750
  497TIP3   OH222981   5.550   6.714  10.700 -0.0299 -0.1632  0.0438
  497TIP3    H122982   5.604   6.763  10.639 -0.2207 -1.4513 -1.2151
  497TIP3    H222983   5.572   6.622  10.684 -0.0844 -0.5546  1.9307
  498TIP3   OH222984   2.872   5.679   4.410  0.0236 -0.1797  0.0161
  498TIP3    H122985   2.881   5.774   4.402  2.1521  0.0037  3.1140
  498TIP3    H222986   2.941   5.644   4.353 -0.0644  0.1411 -0.2970
  499TIP3   OH222987   6.655   6.200   0.259 -0.3734 -0.0047 -0.1907
  499TIP3    H122988   6.650   6.109   0.230 -2.3952  0.1233 -0.4205
  499TIP3    H222989   6.662   6.196   0.354 -3.3233 -0.4915  0.1154
  500TIP3   OH222990   2.675   2.673   3.105 -0.7123 -0.1433 -0.0342
  500TIP3    H122991   2.657   2.591   3.149  0.1154  0.3357  1.2486
  500TIP3    H222992   2.589   2.703   3.075 -1.7167  0.4965  3.0651
  501TIP3   OH222993   3.229   6.768  13.748  0.5885  0.4340  0.1353
  501TIP3    H122994   3.309   6.723  13.773  0.6344  1.0563  1.1434
  501TIP3    H222995   3.174   6.766  13.826 -0.4546 -0.1141 -0.5760
  502TIP3   OH222996   4.012   0.163  15.124 -0.4502  0.5745  0.0691
  502TIP3    H122997   4.098   0.171  15.167 -1.0069  0.3400  1.2894
  502TIP3    H222998   3.959   0.232  15.164 -1.2453 -0.2262  0.4265
  503TIP3   OH222999   1.920   4.481   2.210 -0.3256  0.2546 -0.0758
  503TIP3    H123000   1.848   4.540   2.231  0.0292  0.3629  0.8841
  503TIP3    H223001   1.998   4.529   2.237 -0.0279 -0.6080  0.6158
  504TIP3   OH223002   1.671   0.969  15.535  0.1073  0.0151 -0.2503
  504TIP3    H123003   1.629   0.896  15.490 -2.3773  0.2186  1.5617
  504TIP3    H223004   1.699   1.028  15.464 -1.7979 -0.6293 -1.6230
  505TIP3   OH223005   5.874   5.225  16.901 -0.2354 -0.0712 -0.3638
  505TIP3    H123006   5.943   5.210  16.836  0.2927  1.0319 -0.0696
  505TIP3    H223007   5.920   5.263  16.976 -0.7514 -1.7822  0.8776
  506TIP3   OH223008   6.532   0.954   6.058 -0.1264  0.4061 -0.2367
  506TIP3    H123009   6.501   0.864   6.066  0.1074  0.2546 -1.0097
  506TIP3    H223010   6.626   0.947   6.047 -0.2728  0.6368 -1.9027
  507TIP3   OH223011   1.133   1.505  12.748 -0.4464 -0.5561  0.0738
  507TIP3    H123012   1.089   1.425  12.777  0.4011 -2.2342 -2.8780
  507TIP3    H223013   1.225   1.479  12.739  0.1161  1.1891  0.3514
  508TIP3   OH223014   1.446   6.639  17.002  0.2833  0.0862  0.2912
  508TIP3    H123015   1.524   6.584  17.009  0.4674 -0.0675 -2.0370
  508TIP3    H223016   1.469   6.720  17.047  1.6157 -0.1594  0.0956
  509TIP3   OH223017   4.763   0.528   3.810 -0.0225 -0.3389  0.3862
  509TIP3    H123018   4.811   0.604   3.842 -0.1318  0.4847 -1.2664
  509TIP3    H223019   4.677   0.534   3.851  0.6042 -0.6879  1.7884
  510TIP3   OH223020   0.899   0.748   3.467 -0.4319  0.0574  0.1614
  510TIP3    H123021   0.855   0.685   3.411  2.2788 -0.5170 -1.5285
  510TIP3    H223022   0.951   0.801   3.407 -0.8957  2.4887  1.7546
  511TIP3   OH223023   5.673   0.136   4.262 -0.0316 -0.5644  0.4597
  511TIP3    H123024   5.644   0.115   4.173 -1.1702 -0.5524  0.8188
  511TIP3    H223025   5.596   0.124   4.317 -0.4588  3.1783  0.9352
  512TIP3   OH223026   1.254   2.716   0.448 -0.0359 -0.0295 -0.1364
  512TIP3    H123027   1.221   2.627   0.459 -1.1443  0.3680 -0.1190
  512TIP3    H223028   1.328   2.707   0.387  0.1172 -1.0027  0.1788
  513TIP3   OH223029   2.283   4.205   3.597 -0.4471  0.2789  0.2927
  513TIP3    H123030   2.349   4.165   3.541  0.2419 -1.2375  2.0944
  513TIP3    H223031   2.210   4.224   3.538 -0.5183 -2.9617 -0.8506
  514TIP3   OH223032   6.668   2.208   0.867  0.2864  0.0005  0.0432
  514TIP3    H123033   6.699   2.131   0.819 -1.1447 -1.1798  0.9065
  514TIP3    H223034   6.624   2.172   0.944 -3.5004  1.4304 -1.2276
  515TIP3   OH223035   6.266   0.237   4.085 -0.0222  0.6891 -0.2984
  515TIP3    H123036   6.298   0.278   4.005 -2.0187  1.4301 -0.7804
  515TIP3    H223037   6.170   0.236   4.075 -0.2105 -1.1661  1.1317
  516TIP3   OH223038   6.382   4.825  12.372 -0.4386 -0.1683  0.3591
  516TIP3    H123039   6.465   4.860  12.340  1.0124 -1.0454  2.8657
  516TIP3    H223040   6.363   4.750  12.316  0.7453 -0.2507  0.0602
  517TIP3   OH223041   2.311   5.383   0.039 -1.0351 -0.2313 -0.1261
  517TIP3    H123042   2.369   5.443   0.085 -0.9604 -1.6022  1.6507
  517TIP3    H223043   2.257   5.439  -0.016  1.3949  1.1566 -1.2672
  518TIP3   OH223044   0.383   6.300   6.173 -0.5217  0.6095  0.3885
  518TIP3    H123045   0.289   6.315   6.177 -0.8542 -1.3759  0.8874
  518TIP3    H223046   0.412   6.298   6.264  0.0411  1.2772  0.2406
  519TIP3   OH223047   4.188   4.520  12.550 -0.1798 -0.6919  0.4333
  519TIP3    H123048   4.193   4.451  12.484 -0.9041 -1.6679  1.3713
  519TIP3    H223049   4.267   4.572  12.536  1.3769 -2.7922  0.8463
  520TIP3   OH223050   4.381   1.667  16.443  0.4918  0.1524 -0.1930
  520TIP3    H123051   4.363   1.661  16.537 -1.1326 -0.1617 -0.4908
  520TIP3    H223052   4.325   1.739  16.413 -0.1908 -0.7604 -1.1737
  521TIP3   OH223053   5.619   1.333   4.449 -0.1463 -0.3157  1.3215
  521TIP3    H123054   5.645   1.241   4.459  0.0168 -0.2297  1.7016
  521TIP3    H223055   5.524   1.331   4.448 -0.2874 -0.9952 -3.1400
  522TIP3   OH223056   6.025   4.262  13.404 -0.1596 -0.4242 -0.0336
  522TIP3    H123057   6.038   4.221  13.318 -1.8520  1.0624 -1.0705
  522TIP3    H223058   6.075   4.344  13.399 -0.2010 -0.3684  0.4302
  523TIP3   OH223059   3.481   3.274  13.146 -0.1018 -0.5092 -0.5673
  523TIP3    H123060   3.497   3.360  13.108  2.8266 -0.3198  0.8292
  523TIP3    H223061   3.532   3.214  13.091 -0.3288 -1.0343 -0.2127
  524TIP3   OH223062   3.662   0.091   4.962 -0.3339  0.8577 -0.2692
  524TIP3    H123063   3.595   0.076   5.029 -0.8851  0.0927 -0.9828
  524TIP3    H223064   3.687   0.183   4.975  0.1935  0.5086  1.5334
  525TIP3   OH223065   4.725   4.121   5.112  0.3891  0.1899 -0.0619
  525TIP3    H123066   4.648   4.148   5.163  0.5153 -0.8812  0.7226
  525TIP3    H223067   4.744   4.196   5.056 -1.5400  0.2796 -0.6459
  526TIP3   OH223068   6.166   2.393  11.815  0.1644  0.5161  0.0767
  526TIP3    H123069   6.073   2.390  11.840  0.8215 -0.0923  2.8177
  526TIP3    H223070   6.171   2.462  11.749 -2.2449  0.4511 -0.2629
  527TIP3   OH223071   3.084   4.585   2.329 -0.1664  0.0680  0.0943
  527TIP3    H123072   3.107   4.658   2.386  1.8976 -0.2140 -0.3000
  527TIP3    H223073   3.167   4.558   2.289 -0.6054 -3.2425  1.1016
  528TIP3   OH223074   6.106   3.115   2.817 -0.2526  0.2265  0.2780
  528TIP3    H123075   6.041   3.100   2.749 -0.3490 -0.9671  0.5984
  528TIP3    H223076   6.125   3.208   2.814 -0.7994  0.3050 -0.8867
  529TIP3   OH223077   3.144   2.009   0.691  0.5978  0.2475 -0.1604
  529TIP3    H123078   3.106   2.090   0.657 -1.3584 -0.8831 -0.8365
  529TIP3    H223079   3.213   1.987   0.628  2.5253  2.3388  1.0798
  530TIP3   OH223080   0.064   1.203   5.355 -0.0556 -0.4706  0.3199
  530TIP3    H123081   0.028   1.182   5.441 -0.5810 -0.5795  0.0758
  530TIP3    H223082   0.014   1.280   5.327 -0.4168 -0.8919 -0.2145
  531TIP3   OH223083   4.578   6.354  12.269 -0.4301  0.1978  0.2811
  531TIP3    H123084   4.673   6.339  12.273 -0.2417  1.1619 -0.1207
  531TIP3    H223085   4.566   6.439  12.311 -1.1332  0.0573  0.3771
  532TIP3   OH223086   4.957   4.470  13.582  0.1903  0.0715  0.1717
  532TIP3    H123087   4.941   4.524  13.504 -1.2047  0.5691  0.7802
  532TIP3    H223088   4.871   4.454  13.619  0.7674 -0.8049  1.2113
  533TIP3   OH223089   0.164   4.551  14.681 -0.1790 -0.7079  0.4099
  533TIP3    H123090   0.165   4.597  14.597  0.1594  0.6274  1.1224
  533TIP3    H223091   0.081   4.577  14.722  0.2034 -0.3965  0.9987
  534TIP3   OH223092   2.990   2.891  14.666  0.2209 -0.2082  0.1399
  534TIP3    H123093   2.931   2.818  14.682 -0.4135  0.3045  0.1993
  534TIP3    H223094   2.935   2.969  14.679  0.2515  0.2733 -2.2219
  535TIP3   OH223095   4.976   1.570  14.486 -0.4516  0.3909 -0.3431
  535TIP3    H123096   5.068   1.584  14.462 -0.5931 -1.5559 -2.4048
  535TIP3    H223097   4.978   1.497  14.548 -0.6174  0.1565 -0.6117
  536TIP3   OH223098   5.488   6.427   1.706  0.1834 -0.0638  0.2938
  536TIP3    H123099   5.445   6.346   1.735  1.1895  0.2767  2.9961
  536TIP3    H223100   5.467   6.432   1.612 -1.1993 -2.6219  0.3531
  537TIP3   OH223101   3.465   5.907  12.421  0.0228  0.3481  0.5042
  537TIP3    H123102   3.532   5.971  12.447 -1.3849  2.3052 -0.4582
  537TIP3    H223103   3.385   5.938  12.462 -0.4055 -1.8887  1.5163
  538TIP3   OH223104   6.051   3.854   5.320 -0.1885  0.7721 -0.0332
  538TIP3    H123105   6.052   3.935   5.268 -2.1628  0.6877 -0.2779
  538TIP3    H223106   6.011   3.880   5.403  0.3593  0.3002  0.3845
  539TIP3   OH223107   1.963   3.243   2.452 -0.3455 -0.2548 -0.1922
  539TIP3    H123108   1.914   3.162   2.446 -0.3256 -0.4044  1.2664
  539TIP3    H223109   2.052   3.219   2.427 -0.4370 -0.5856 -0.2075
  540TIP3   OH223110   3.440   3.159  12.865  1.1967  0.5984  0.2195
  540TIP3    H123111   3.391   3.078  12.853 -0.1949  1.2435  1.3386
  540TIP3    H223112   3.512   3.134  12.924  0.5304  0.2669  0.9030
  541TIP3   OH223113   2.498   0.702  14.739  0.0484 -0.3681 -0.7406
  541TIP3    H123114   2.508   0.795  14.717 -1.5802  0.1323  0.4254
  541TIP3    H223115   2.581   0.679  14.782  0.9111  0.2183 -2.0411
  542TIP3   OH223116   0.977   4.452  14.027  0.2850 -0.1845  0.2878
  542TIP3    H123117   1.023   4.439  13.944 -1.0577 -2.3964 -0.2067
  542TIP3    H223118   0.951   4.363  14.054 -1.7237  0.7389  1.6459
  543TIP3   OH223119   0.713   3.473  15.422  0.7326 -0.2677 -0.2256
  543TIP3    H123120   0.779   3.541  15.414 -1.5941  2.1862  0.0708
  543TIP3    H223121   0.697   3.466  15.516 -0.2067  0.0081 -0.3531
  544TIP3   OH223122   4.458   4.820  12.135  0.2341  0.3351 -0.5022
  544TIP3    H123123   4.545   4.796  12.166 -0.3089 -1.6639 -0.3804
  544TIP3    H223124   4.463   4.811  12.040  0.8687  2.9083 -0.7968
  545TIP3   OH223125   5.519   2.565  11.401  0.1703  0.2177 -0.2139
  545TIP3    H123126   5.424   2.552  11.402 -0.2079  2.2730  1.9515
  545TIP3    H223127   5.538   2.601  11.315 -0.5045 -2.8019 -1.7292
  546TIP3   OH223128   1.404   6.079  15.214  0.1888  0.0458  0.0012
  546TIP3    H123129   1.361   6.074  15.299 -0.8475 -1.8597 -0.5669
  546TIP3    H223130   1.480   6.021  15.222 -1.5868 -2.6307 -1.1895
  547TIP3   OH223131   4.035   0.577   2.955 -0.1367 -0.1280  0.0546
  547TIP3    H123132   4.076   0.502   2.998 -1.6898 -1.3804 -0.5749
  547TIP3    H223133   4.108   0.622   2.913  1.0292 -0.4269  1.6571
  548TIP3   OH223134   1.543   5.193  13.097  0.0786 -0.5272 -0.2535
  548TIP3    H123135   1.546   5.185  13.002 -0.3074 -1.1827 -0.2140
  548TIP3    H223136   1.494   5.116  13.126  0.4683 -0.4938  0.5008
  549TIP3   OH223137   0.511   4.169  10.708  0.4406 -0.4296  0.1738
  549TIP3    H123138   0.583   4.212  10.754  2.2961 -3.0036 -0.0681
  549TIP3    H223139   0.445   4.153  10.776 -0.2456  2.3820  0.3043
  550TIP3   OH223140   2.405   3.610   2.955  0.2371 -0.0698  0.3765
  550TIP3    H123141   2.459   3.687   2.974  0.6089 -0.1915 -0.1699
  550TIP3    H223142   2.455   3.561   2.889  0.5900 -1.4075  1.5930
  551TIP3   OH223143   5.047   0.838  17.202 -0.3857  0.3371  0.1514
  551TIP3    H123144   5.050   0.746  17.230 -0.8524  0.5136  0.8297
  551TIP3    H223145   5.066   0.836  17.109  0.5523 -0.3554  0.3473
  552TIP3   OH223146   1.612   2.764  14.559  0.6506  0.1085  0.2303
  552TIP3    H123147   1.531   2.736  14.601  0.7009 -1.7780 -0.8141
  552TIP3    H223148   1.610   2.722  14.472  0.7872  3.3769 -1.5106
  553TIP3   OH223149   4.899   6.081   2.248 -0.0494 -0.2530 -0.4573
  553TIP3    H123150   4.870   6.157   2.299  0.5752 -0.1545 -0.2383
  553TIP3    H223151   4.822   6.024   2.244  0.3416 -1.1431  2.2234
  554TIP3   OH223152   1.392   3.115   4.795 -0.5652 -0.5110 -0.0129
  554TIP3    H123153   1.368   3.207   4.792 -1.0798 -0.6676 -0.8276
  554TIP3    H223154   1.373   3.088   4.885  1.2914  0.6176  0.7673
  555TIP3   OH223155   4.111   3.636   2.484  0.2602  0.7688 -0.0521
  555TIP3    H123156   4.151   3.605   2.566  0.5495  0.5224 -0.2841
  555TIP3    H223157   4.147   3.578   2.417 -0.3974  0.6242 -0.2802
  556TIP3   OH223158   5.062   4.939   3.207  0.1514  0.1972  0.1314
  556TIP3    H123159   5.007   4.867   3.236  1.0418 -0.6082 -0.1327
  556TIP3    H223160   5.083   4.918   3.116  1.2148  0.2779  0.3450
  557TIP3   OH223161   2.578   0.102   4.578 -0.4753  0.5058 -0.0517
  557TIP3    H123162   2.612   0.068   4.661 -0.3606  0.0104 -0.2977
  557TIP3    H223163   2.506   0.160   4.604 -0.7440 -0.0072  0.3745
  558TIP3   OH223164   5.001   6.378  11.543  0.2673  0.2710 -0.4839
  558TIP3    H123165   4.963   6.369  11.455  0.0390 -1.9181 -0.2188
  558TIP3    H223166   4.967   6.303  11.591  2.3095  0.0825  0.7728
  559TIP3   OH223167   0.877   1.279  10.984 -0.6502 -0.6425 -0.2461
  559TIP3    H123168   0.900   1.368  11.012 -0.4706 -0.4214 -1.0876
  559TIP3    H223169   0.930   1.264  10.906  0.0437 -1.8505  0.4239
  560TIP3   OH223170   4.663   4.169  11.949  0.3766  0.0032 -0.3559
  560TIP3    H123171   4.575   4.196  11.921  0.1815 -0.9776 -0.7379
  560TIP3    H223172   4.649   4.089  11.999  1.1930 -1.2952 -2.0979
  561TIP3   OH223173   1.626   4.196   0.428 -0.2321  0.3611  0.5302
  561TIP3    H123174   1.687   4.157   0.489 -0.6947 -0.8977  0.2296
  561TIP3    H223175   1.675   4.266   0.385  1.4033 -1.3237 -0.5152
  562TIP3   OH223176   2.538   1.910   5.454 -0.3853 -0.0479 -0.1291
  562TIP3    H123177   2.579   1.827   5.476  1.5032  1.2878  1.7474
  562TIP3    H223178   2.485   1.932   5.531 -0.4136  0.7641 -0.3753
  563TIP3   OH223179   4.256   1.219  12.895  0.4399 -0.1199 -0.2911
  563TIP3    H123180   4.273   1.180  12.981 -0.1383  0.3177  0.0296
  563TIP3    H223181   4.185   1.166  12.858 -2.5930  2.3819  1.4552
  564TIP3   OH223182   1.696   2.856  16.179  0.1675  0.1576  0.2181
  564TIP3    H123183   1.659   2.767  16.182 -0.8550  0.5872  0.8089
  564TIP3    H223184   1.639   2.903  16.119 -0.0839  0.7506  0.9055
  565TIP3   OH223185   6.542   3.185  17.191 -0.1749  0.2999 -0.3558
  565TIP3    H123186   6.490   3.124  17.243  0.1081 -0.6216 -1.0988
  565TIP3    H223187   6.527   3.270  17.230  0.2661 -0.3977  1.3942
  566TIP3   OH223188   5.950   6.714   1.546  0.3565  0.1365 -0.5654
  566TIP3    H123189   5.939   6.806   1.520 -0.9437 -0.2588 -1.4849
  566TIP3    H223190   6.038   6.711   1.584 -0.1858  2.0963  1.0290
  567TIP3   OH223191   5.573   0.869  13.097  0.3457  0.1284  0.1367
  567TIP3    H123192   5.611   0.794  13.143 -2.4088 -0.7270  1.1781
  567TIP3    H223193   5.504   0.832  13.043 -0.3171  1.7965 -0.2272
  568TIP3   OH223194   1.434   2.154  15.670  0.1123 -0.0442  0.1407
  568TIP3    H123195   1.356   2.143  15.616  0.2477 -0.3855  0.0129
  568TIP3    H223196   1.457   2.065  15.699  1.4863 -0.2004 -1.2844
  569TIP3   OH223197   5.224   1.317  17.109 -0.1862  0.2253  0.2612
  569TIP3    H123198   5.208   1.227  17.080  0.0572 -0.4784  2.1685
  569TIP3    H223199   5.298   1.346  17.056  0.6041 -1.1817  0.5491
  570TIP3   OH223200   5.222   1.777   6.273  0.3229  0.7487  0.1505
  570TIP3    H123201   5.136   1.814   6.294  0.2984 -0.3576  2.2785
  570TIP3    H223202   5.280   1.810   6.341  0.6049 -1.8568  1.2965
  571TIP3   OH223203   4.469   1.001  10.523  0.7303 -0.1058 -0.2105
  571TIP3    H123204   4.465   0.916  10.480 -0.7638  0.1053 -0.5473
  571TIP3    H223205   4.452   1.064  10.452 -1.7975  0.2433  0.6132
  572TIP3   OH223206   6.428   1.912   5.129  0.3793 -0.4398 -0.2601
  572TIP3    H123207   6.431   1.992   5.181  0.0001 -0.4178 -0.2691
  572TIP3    H223208   6.355   1.862   5.167  2.1244 -1.8907  1.3758
  573TIP3   OH223209   5.416   1.368  14.337  0.1178 -0.2814  0.0943
  573TIP3    H123210   5.399   1.318  14.257  0.3124  0.1400 -0.2158
  573TIP3    H223211   5.430   1.302  14.405  1.4932 -0.6699 -0.5344
  574TIP3   OH223212   0.938   4.229   2.204  0.2351  0.1967  0.1823
  574TIP3    H123213   0.882   4.164   2.245 -0.0690  1.3478  1.6701
  574TIP3    H223214   1.017   4.231   2.259  0.8668  0.0586 -0.6977
  575TIP3   OH223215   1.903   3.688   4.129 -0.3339  0.0870 -0.1683
  575TIP3    H123216   1.936   3.662   4.043  2.2259  2.4140 -0.0029
  575TIP3    H223217   1.979   3.686   4.187 -1.4947  0.9196  1.4871
  576TIP3   OH223218   0.931   5.282  15.597 -0.1929 -0.6137  0.7674
  576TIP3    H123219   0.893   5.266  15.511 -0.1532 -0.9788  0.8164
  576TIP3    H223220   0.969   5.198  15.623 -2.7487 -1.3844  2.4153
  577TIP3   OH223221   0.507   0.755   4.434 -0.5221  0.0312  0.0617
  577TIP3    H123222   0.471   0.668   4.454  0.1681 -0.2864 -0.0459
  577TIP3    H223223   0.481   0.809   4.509  0.5442 -0.7084  1.0028
  578TIP3   OH223224   0.765   1.227   2.285  0.1540 -0.4191 -0.4572
  578TIP3    H123225   0.781   1.310   2.331  1.2122 -1.0562  0.3598
  578TIP3    H223226   0.747   1.253   2.195 -0.8943  0.7882  0.0749
  579TIP3   OH223227   1.345   3.360  10.625 -0.4180 -0.3927  0.2163
  579TIP3    H123228   1.293   3.407  10.690 -1.8404 -1.6350  0.0259
  579TIP3    H223229   1.436   3.371  10.655 -0.8473  0.9591  1.1295
  580TIP3   OH223230   4.348   4.729   2.223 -0.0140  0.4021 -0.4768
  580TIP3    H123231   4.393   4.693   2.146 -2.3555  1.9496 -2.7543
  580TIP3    H223232   4.398   4.806   2.247  1.3309 -0.6624  0.3162
  581TIP3   OH223233   3.181   1.546  16.702  1.0207  0.2674  0.2070
  581TIP3    H123234   3.092   1.512  16.705  1.0939  0.1118  2.7925
  581TIP3    H223235   3.237   1.468  16.702  1.2129  0.3647 -1.3381
  582TIP3   OH223236   6.618   0.086  15.923  0.1208  0.3487 -0.7192
  582TIP3    H123237   6.644   0.121  16.008  1.8461  0.1273 -1.1119
  582TIP3    H223238   6.535   0.128  15.903 -0.2783  0.4559  1.0343
  583TIP3   OH223239   6.488   0.619   1.294 -0.0143 -0.3035  0.7825
  583TIP3    H123240   6.581   0.639   1.307 -0.0406  1.6471 -1.4601
  583TIP3    H223241   6.480   0.527   1.319  2.3852 -0.3765  1.5557
  584TIP3   OH223242   0.844   2.970   2.906  0.3674 -0.0077  0.1175
  584TIP3    H123243   0.784   3.024   2.958  0.1480  0.3187 -0.4635
  584TIP3    H223244   0.798   2.955   2.824 -0.6167 -3.1265  1.1045
  585TIP3   OH223245   6.115   6.113   6.380 -0.1650 -0.1730  0.2220
  585TIP3    H123246   6.158   6.032   6.407  0.3323  0.4688  1.4126
  585TIP3    H223247   6.021   6.096   6.395 -0.1561 -0.8475 -0.4264
  586TIP3   OH223248   6.528   2.521  15.272 -0.3184  0.2132  0.0165
  586TIP3    H123249   6.525   2.550  15.180 -2.8956  2.4670  0.6792
  586TIP3    H223250   6.470   2.445  15.275  0.5905 -0.5216 -0.3555
  587TIP3   OH223251   5.489   5.052   5.518  0.1131  0.3710  0.9948
  587TIP3    H123252   5.511   5.064   5.426  0.6346  1.2018  1.2251
  587TIP3    H223253   5.570   5.070   5.566 -0.1719  0.0241  1.6278
  588TIP3   OH223254   4.644   6.184   0.060  0.0885  0.3786  0.2498
  588TIP3    H123255   4.590   6.245   0.010 -1.2691 -2.1989 -1.6509
  588TIP3    H223256   4.681   6.237   0.130 -1.0725  3.3232 -1.1934
  589TIP3   OH223257   1.704   5.456   5.801 -0.1079  0.3981 -0.5585
  589TIP3    H123258   1.703   5.442   5.896 -0.0916  0.8487 -0.4926
  589TIP3    H223259   1.683   5.548   5.790  0.4807  0.4892 -0.9671
  590TIP3   OH223260   0.116   4.423  10.715 -0.7032 -0.5078 -0.7747
  590TIP3    H123261   0.189   4.474  10.681 -1.0793  0.9176  0.4589
  590TIP3    H223262   0.055   4.417  10.641  0.0161 -0.4908 -1.3828
  591TIP3   OH223263   5.566   3.826   5.155  0.5696 -0.3141  0.2517
  591TIP3    H123264   5.593   3.838   5.064  1.1988  0.9377  0.5770
  591TIP3    H223265   5.496   3.761   5.151  0.2796  0.0500 -1.1699
  592TIP3   OH223266   3.052   3.195  10.525 -0.5621  0.4100 -0.1561
  592TIP3    H123267   3.037   3.289  10.532  0.3973  0.4730  1.7518
  592TIP3    H223268   3.147   3.186  10.516 -0.5040 -0.3957  1.0026
  593TIP3   OH223269   3.622   4.512   2.332 -0.8471  0.0331 -0.4029
  593TIP3    H123270   3.688   4.521   2.262 -0.4214  2.4982  0.2124
  593TIP3    H223271   3.646   4.431   2.377  1.4991  0.6070 -0.4959
  594TIP3   OH223272   5.616   5.079  12.758 -0.1673 -0.7219  0.2356
  594TIP3    H123273   5.600   4.996  12.802 -1.0909 -0.2877  0.7422
  594TIP3    H223274   5.538   5.092  12.703  0.6195 -0.8837 -0.9603
  595TIP3   OH223275   2.279   4.974   1.758 -0.4752 -0.5059 -0.6118
  595TIP3    H123276   2.187   4.971   1.731 -0.9368 -1.0694  0.9502
  595TIP3    H223277   2.302   4.882   1.773 -0.4319 -0.2141  1.3925
  596TIP3   OH223278   3.432   3.748   4.487  0.2976 -0.5553  0.0999
  596TIP3    H123279   3.505   3.800   4.456  0.4589 -0.6035  0.3943
  596TIP3    H223280   3.391   3.714   4.407 -0.7291  1.2388 -0.1862
  597TIP3   OH223281   0.306   4.985  16.644  0.1390  0.0981 -0.3114
  597TIP3    H123282   0.401   4.972  16.645  0.3162  1.3465  0.6498
  597TIP3    H223283   0.289   5.052  16.710 -1.4924 -0.5806  0.0388
  598TIP3   OH223284   1.620   1.768  12.865  0.0461 -0.1765  0.2266
  598TIP3    H123285   1.590   1.698  12.806  0.0781 -0.6832  0.7926
  598TIP3    H223286   1.561   1.841  12.848  0.6115 -0.0010 -1.0613
  599TIP3   OH223287   3.798   2.827   5.146  0.2853 -0.2907 -0.9014
  599TIP3    H123288   3.772   2.889   5.078  0.3429 -0.0255 -0.6805
  599TIP3    H223289   3.811   2.744   5.098 -0.3173 -0.2723 -1.1110
  600TIP3   OH223290   5.264   1.947  12.248 -0.2309 -0.6672 -0.2756
  600TIP3    H123291   5.247   1.887  12.321  0.4736 -2.4212 -1.4817
  600TIP3    H223292   5.182   1.950  12.199 -1.0633  1.3868  1.1151
  601TIP3   OH223293   3.941   5.604   1.785 -0.1237  0.1562  0.2915
  601TIP3    H123294   3.900   5.607   1.872 -0.5957  0.4519  0.0603
  601TIP3    H223295   4.015   5.664   1.791  1.9577 -2.3352  1.5483
  602TIP3   OH223296   4.268   3.573  14.080 -0.3731  0.3501  0.5369
  602TIP3    H123297   4.287   3.602  14.169  2.7231 -0.4385  0.2592
  602TIP3    H223298   4.347   3.526  14.053 -1.3959  0.1448 -2.4753
  603TIP3   OH223299   6.722   3.738   3.554 -0.0956  0.7602  1.0973
  603TIP3    H123300   6.723   3.824   3.512 -0.5041  0.9487  1.4721
  603TIP3    H223301   6.654   3.690   3.508  0.6255  0.3781  0.3922
  604TIP3   OH223302   3.821   2.977  14.185 -0.0284  0.4091  0.0347
  604TIP3    H123303   3.809   3.051  14.126  1.8770  0.7480  0.0007
  604TIP3    H223304   3.751   2.916  14.162 -0.6804  1.5107 -1.0175
  605TIP3   OH223305   6.707   6.173   0.541 -0.0703 -0.0768 -0.1252
  605TIP3    H123306   6.682   6.114   0.613  1.2740  0.5657  0.9000
  605TIP3    H223307   6.711   6.259   0.581  0.1379  0.3906 -1.1230
  606TIP3   OH223308   4.224   4.147   3.915 -0.1568  0.0512  0.1360
  606TIP3    H123309   4.281   4.160   3.840 -1.5236  1.2792 -0.7463
  606TIP3    H223310   4.135   4.159   3.880 -0.8850 -0.3738  1.7352
  607TIP3   OH223311   6.520   3.150  14.707  0.3176  0.5067 -0.2019
  607TIP3    H123312   6.503   3.241  14.684 -0.2705  0.5901  0.5013
  607TIP3    H223313   6.433   3.112  14.720  0.3684 -0.9699 -3.3025
  608TIP3   OH223314   0.433   3.999   0.379  0.0525 -0.1347  0.2973
  608TIP3    H123315   0.526   3.985   0.364 -0.0427 -0.2769 -0.1964
  608TIP3    H223316   0.428   4.086   0.418  0.1719  1.3702 -2.7287
  609TIP3   OH223317   1.027   5.885  13.733 -0.4405 -0.1796  0.4852
  609TIP3    H123318   1.036   5.829  13.656  0.5773  0.1377  0.3564
  609TIP3    H223319   1.099   5.947  13.726 -1.8505  1.5411  0.3101
  610TIP3   OH223320   5.423   6.290  16.866 -0.1850 -0.7795 -0.2047
  610TIP3    H123321   5.512   6.284  16.829  0.0915  0.6841  0.1392
  610TIP3    H223322   5.425   6.370  16.918 -1.0154 -1.9886  1.7920
  611TIP3   OH223323   6.772   3.255   3.382  0.5521 -0.0480  0.0584
  611TIP3    H123324   6.858   3.228   3.414  0.5756  1.0098  0.9105
  611TIP3    H223325   6.764   3.211   3.297  1.3333 -1.2807  0.5939
  612TIP3   OH223326   1.515   6.552  11.752 -0.2639  0.2624  0.3391
  612TIP3    H123327   1.518   6.646  11.738  1.0173  0.2254  0.2420
  612TIP3    H223328   1.555   6.514  11.674 -0.0180 -0.3208  0.7419
  613TIP3   OH223329   2.394   3.683  13.889  0.4730  0.2293 -0.4932
  613TIP3    H123330   2.389   3.718  13.978 -0.1116 -1.6892  0.2787
  613TIP3    H223331   2.308   3.704  13.851  0.5326  0.5941 -0.4319
  614TIP3   OH223332   5.685   2.126  15.637 -0.4852  0.1652 -0.5446
  614TIP3    H123333   5.752   2.058  15.631  1.1975  1.7044 -0.1213
  614TIP3    H223334   5.651   2.134  15.548  1.5059  0.8668 -1.2906
  615TIP3   OH223335   4.468   2.141   2.059 -0.8400  0.7251  0.5546
  615TIP3    H123336   4.425   2.056   2.068 -0.1402  0.4699  1.7304
  615TIP3    H223337   4.472   2.156   1.965 -2.2925  0.1501  0.3739
  616TIP3   OH223338   5.784   0.232  15.134  0.0907  0.3041  0.5016
  616TIP3    H123339   5.808   0.294  15.065  0.9855 -0.8955 -0.3072
  616TIP3    H223340   5.842   0.157  15.120 -2.4209 -1.6990  0.0392
  617TIP3   OH223341   2.511   6.157  13.268  0.2680  0.0588 -0.7466
  617TIP3    H123342   2.420   6.127  13.264 -0.1714  0.9529  1.2765
  617TIP3    H223343   2.506   6.249  13.241  0.5634  0.1176 -0.6034
  618TIP3   OH223344   1.792   3.950   0.438 -0.1147  0.0886  0.2488
  618TIP3    H123345   1.853   3.943   0.365 -2.0101  0.2190 -1.4319
  618TIP3    H223346   1.736   3.872   0.431  0.3297 -0.4763  2.2566
  619TIP3   OH223347   0.753   5.371  10.417 -0.3916 -0.3162  0.1029
  619TIP3    H123348   0.705   5.293  10.443 -0.9236  0.2297  0.7775
  619TIP3    H223349   0.728   5.438  10.480 -0.6014  0.6423 -0.9602
  620TIP3   OH223350   4.607   4.542   2.795  0.0567  0.2040  0.2388
  620TIP3    H123351   4.611   4.532   2.700  1.7179  1.9526  0.0569
  620TIP3    H223352   4.566   4.627   2.808 -1.4297 -0.6195  1.1679
  621TIP3   OH223353   5.251   1.429   4.921  0.2236  0.2801  0.0292
  621TIP3    H123354   5.170   1.387   4.951 -1.6769  4.2806  1.2964
  621TIP3    H223355   5.230   1.460   4.833  2.4231 -3.0738 -1.9023
  622TIP3   OH223356   0.124   4.880  14.613  0.5602 -0.3321  0.5781
  622TIP3    H123357   0.069   4.929  14.674  0.8429 -0.1606  0.7003
  622TIP3    H223358   0.063   4.843  14.549  0.5337  2.5212 -1.2119
  623TIP3   OH223359   1.884   2.380   3.666  0.1069  0.2764 -0.1654
  623TIP3    H123360   1.940   2.457   3.678  0.0883  0.1991  0.4410
  623TIP3    H223361   1.853   2.387   3.576 -1.7197  2.2132  0.5330
  624TIP3   OH223362   2.400   0.474  11.410  0.4583 -0.0441 -0.3977
  624TIP3    H123363   2.471   0.537  11.423 -0.0084  0.3840  0.0910
  624TIP3    H223364   2.410   0.446  11.319  0.2678  1.2475 -0.8373
  625TIP3   OH223365   1.727   2.285  12.299 -0.7615 -0.4251  0.4411
  625TIP3    H123366   1.678   2.354  12.255 -0.3765 -0.3190  0.1730
  625TIP3    H223367   1.807   2.276  12.247  0.6941  1.1460  2.2570
  626TIP3   OH223368   2.785   2.825  14.388 -0.0559  0.1856 -0.1032
  626TIP3    H123369   2.775   2.734  14.414 -0.1039  0.0765 -0.4983
  626TIP3    H223370   2.878   2.843  14.400  0.4765 -0.6699 -2.3858
  627TIP3   OH223371   5.302   5.775   3.255 -0.1444  0.1067  0.2491
  627TIP3    H123372   5.223   5.737   3.294  0.6096 -0.2702  1.4548
  627TIP3    H223373   5.326   5.715   3.185 -0.9841  0.2820 -0.1961
  628TIP3   OH223374   5.774   3.198  15.078 -0.4278 -1.0798 -0.3200
  628TIP3    H123375   5.828   3.155  15.012  0.8494  0.3059 -0.2153
  628TIP3    H223376   5.837   3.240  15.137 -1.5999  0.0489  0.1778
  629TIP3   OH223377   4.298   4.979  10.499 -0.4436 -0.0783  0.0252
  629TIP3    H123378   4.208   4.955  10.474 -0.2994  0.1000 -0.6596
  629TIP3    H223379   4.314   5.061  10.454  0.8737 -1.2173 -1.7020
  630TIP3   OH223380   5.377   5.413   1.478 -0.0396 -0.2336  0.4405
  630TIP3    H123381   5.424   5.397   1.396  1.1802  0.2191  1.0283
  630TIP3    H223382   5.319   5.486   1.458  0.5888  0.1876  0.0925
  631TIP3   OH223383   2.983   0.159   3.802  0.2229  0.5517 -0.3770
  631TIP3    H123384   2.905   0.146   3.749 -0.6893  2.5301  0.3918
  631TIP3    H223385   2.955   0.146   3.892  1.5096 -1.6981 -0.2343
  632TIP3   OH223386   6.424   1.129   4.977 -0.1008 -0.0542  0.1735
  632TIP3    H123387   6.505   1.078   4.972  1.1569  1.9562 -1.8764
  632TIP3    H223388   6.445   1.201   5.036  0.5164  1.8081 -2.1777
  633TIP3   OH223389   3.275   2.057   2.962  0.0042 -0.5388 -0.1783
  633TIP3    H123390   3.357   2.091   2.926 -0.2870  0.6029  0.1897
  633TIP3    H223391   3.302   2.008   3.040  0.3034  0.4525  0.3689
  634TIP3   OH223392   3.547   5.159  11.736  0.4182 -0.3310 -0.1158
  634TIP3    H123393   3.552   5.254  11.734  0.8523 -0.3626 -0.9407
  634TIP3    H223394   3.637   5.129  11.724  0.4705 -0.8521  1.3664
  635TIP3   OH223395   6.588   4.881  12.185  0.1308 -0.3352 -0.1758
  635TIP3    H123396   6.555   4.918  12.104 -0.6677 -0.7729 -0.0629
  635TIP3    H223397   6.683   4.876  12.173  0.3382  2.0897 -0.0401
  636TIP3   OH223398   5.042   0.136  13.970 -0.1912 -0.5207 -0.0134
  636TIP3    H123399   4.968   0.144  14.030 -0.6995 -2.0232 -0.3994
  636TIP3    H223400   5.035   0.213  13.913 -0.3139  0.3663  1.1515
  637TIP3   OH223401   3.065   2.552   3.650  0.3388 -0.1368 -0.0224
  637TIP3    H123402   3.153   2.583   3.670 -0.3603  1.5241  0.6082
  637TIP3    H223403   3.013   2.577   3.725 -0.4738 -2.2283  0.1943
  638TIP3   OH223404   6.562   3.091  11.457 -0.1035 -0.1863  0.1764
  638TIP3    H123405   6.496   3.028  11.487 -2.6426  3.1619  2.4309
  638TIP3    H223406   6.522   3.133  11.381  0.7984 -0.0958 -0.2646
  639TIP3   OH223407   2.980   0.176  12.647  0.2058 -0.5384  0.3053
  639TIP3    H123408   3.043   0.130  12.592 -1.5085 -2.3079 -0.3207
  639TIP3    H223409   3.021   0.180  12.733  1.6736 -0.5070 -0.3801
  640TIP3   OH223410   0.304   1.849   2.859  0.4349  0.1748  0.0411
  640TIP3    H123411   0.237   1.903   2.817 -0.4308 -1.9262 -1.4383
  640TIP3    H223412   0.383   1.863   2.806  0.1881 -0.0905 -0.3985
  641TIP3   OH223413   1.175   6.141   0.251  0.0582  0.5980 -0.5950
  641TIP3    H123414   1.217   6.214   0.205  1.1260  1.1695  1.1818
  641TIP3    H223415   1.241   6.072   0.250 -0.8929 -0.3680 -2.1343
  642TIP3   OH223416   5.155   0.463  10.974  0.2923 -0.1784  0.5630
  642TIP3    H123417   5.176   0.379  10.934 -1.3989 -0.2035 -0.3550
  642TIP3    H223418   5.154   0.525  10.900  0.6182  0.4797  1.0970
  643TIP3   OH223419   5.183   2.219  13.961 -0.3026 -0.4627  0.3295
  643TIP3    H123420   5.267   2.175  13.946  1.1936  1.8948  1.0904
  643TIP3    H223421   5.193   2.303  13.916 -1.8908  0.2481  1.2370
  644TIP3   OH223422   0.893   3.559   2.715 -0.2040  0.1555  0.0230
  644TIP3    H123423   0.838   3.588   2.642  0.2264 -0.3853 -0.5205
  644TIP3    H223424   0.975   3.532   2.675 -0.0734 -0.4463  0.6725
  645TIP3   OH223425   6.256   6.804  11.927 -0.6816 -0.4752  0.6814
  645TIP3    H123426   6.290   6.894  11.931 -0.6036 -0.5589  2.3197
  645TIP3    H223427   6.162   6.815  11.914 -0.6401 -0.1706  0.6119
  646TIP3   OH223428   6.415   5.505   3.555  0.5548  0.7017  0.9526
  646TIP3    H123429   6.464   5.585   3.574 -2.1456  2.4713  1.1142
  646TIP3    H223430   6.342   5.506   3.618 -0.4181 -1.0546 -0.0576
  647TIP3   OH223431   3.056   3.338  14.028  0.0140 -0.1888 -0.0099
  647TIP3    H123432   2.995   3.360  14.098  1.2272  0.9557  0.7378
  647TIP3    H223433   3.107   3.265  14.063 -0.4611 -0.7001 -0.3685
  648TIP3   OH223434   3.574   1.677  12.275 -0.7194  0.2534  0.0496
  648TIP3    H123435   3.525   1.602  12.309 -1.9943  0.3891 -1.3583
  648TIP3    H223436   3.583   1.736  12.349  0.8329 -1.5187  1.3549
  649TIP3   OH223437   1.854   2.921  16.691 -0.3464  0.1280  0.1680
  649TIP3    H123438   1.783   2.954  16.746  1.4593  0.8282  2.2011
  649TIP3    H223439   1.918   2.886  16.753  2.3794  2.0703 -1.3577
  650TIP3   OH223440   0.830   1.440  14.716  0.2709  0.3186  0.0628
  650TIP3    H123441   0.846   1.427  14.810 -0.7295 -0.8302  0.1066
  650TIP3    H223442   0.739   1.468  14.711  0.6958  1.6484 -0.4976
  651TIP3   OH223443   4.518   3.949  15.671  0.0793 -0.3665  0.1605
  651TIP3    H123444   4.429   3.977  15.693  0.8610  1.9896  0.6064
  651TIP3    H223445   4.570   3.972  15.748  1.2585 -0.8109 -0.4759
  652TIP3   OH223446   3.093   5.897  16.442  0.1213  0.0536 -0.0665
  652TIP3    H123447   3.017   5.936  16.399 -0.3927 -0.7552  0.0942
  652TIP3    H223448   3.151   5.872  16.370 -0.3476 -0.5051 -0.2546
  653TIP3   OH223449   2.375   4.714   0.945  0.2632  0.2114 -0.1186
  653TIP3    H123450   2.305   4.662   0.986 -1.1502  1.3041 -1.0482
  653TIP3    H223451   2.400   4.665   0.867 -0.9737  0.7988 -0.9208
  654TIP3   OH223452   5.648   1.683   1.059  0.0884 -0.4415  0.5069
  654TIP3    H123453   5.709   1.615   1.031 -0.7026 -0.4122 -1.4800
  654TIP3    H223454   5.570   1.669   1.005 -1.0180  0.5684  1.7624
  655TIP3   OH223455   4.969   3.358  15.675  0.4579 -0.3696 -0.0892
  655TIP3    H123456   4.922   3.404  15.606 -1.7015  0.5181  1.8690
  655TIP3    H223457   4.930   3.270  15.676 -0.9189  0.2186  1.2172
  656TIP3   OH223458   0.691   4.824   5.673  0.5147 -0.0004 -0.2507
  656TIP3    H123459   0.632   4.763   5.718  2.2966 -1.1106  0.7130
  656TIP3    H223460   0.710   4.783   5.589  0.1571  0.2229 -0.4444
  657TIP3   OH223461   2.758   5.250  16.346  0.0839  0.6322 -0.7778
  657TIP3    H123462   2.723   5.328  16.303 -1.4303  0.2699 -0.3040
  657TIP3    H223463   2.785   5.281  16.433  0.6262  0.8506 -1.0216
  658TIP3   OH223464   2.062   2.923   0.621 -0.4439  0.2649 -0.2479
  658TIP3    H123465   2.070   2.984   0.548 -1.3017  1.6239  0.7419
  658TIP3    H223466   1.968   2.918   0.637 -0.2584  0.1997  0.9096
  659TIP3   OH223467   4.782   5.131  13.620  0.0373  0.1721  0.4622
  659TIP3    H123468   4.845   5.075  13.665  0.7793  0.1445 -0.5707
  659TIP3    H223469   4.766   5.087  13.537  0.6285  1.4474 -0.3645
  660TIP3   OH223470   6.801   3.973   2.927  0.0399  0.5720 -0.1741
  660TIP3    H123471   6.732   4.013   2.980 -0.0263  1.5592 -0.9828
  660TIP3    H223472   6.756   3.906   2.875  0.1170 -0.4528  1.0316
  661TIP3   OH223473   6.003   6.636   6.467  0.1661  0.2195  0.3794
  661TIP3    H123474   6.088   6.674   6.447  0.3604 -0.4373 -0.0978
  661TIP3    H223475   5.991   6.651   6.560  0.9336  0.0691  0.5100
  662TIP3   OH223476   4.594   1.915  11.508 -0.1723 -0.9997  0.6898
  662TIP3    H123477   4.597   1.972  11.585  0.5650 -0.9797  0.6575
  662TIP3    H223478   4.563   1.831  11.541 -1.3105 -0.5742  0.7271
  663TIP3   OH223479   5.994   4.219  11.472  0.4837 -0.2273 -0.7182
  663TIP3    H123480   6.072   4.211  11.416 -0.1380 -0.9153 -1.5221
  663TIP3    H223481   5.922   4.187  11.417 -0.1413 -1.0438  0.5285
  664TIP3   OH223482   1.459   2.083   2.198  0.7749  0.4508 -0.0190
  664TIP3    H123483   1.407   2.023   2.251  0.3231  0.3064 -0.6224
  664TIP3    H223484   1.517   2.026   2.147 -0.1727  0.4675 -1.1479
  665TIP3   OH223485   0.929   5.513  15.981 -0.1604 -0.4540 -0.6233
  665TIP3    H123486   0.995   5.574  16.014 -0.1442 -1.1721  0.7575
  665TIP3    H223487   0.952   5.499  15.889  3.5392 -3.0218  0.4804
  666TIP3   OH223488   1.967   2.866  16.085 -0.4645 -0.1987  0.1035
  666TIP3    H123489   1.882   2.882  16.125 -0.4839 -0.5395  0.2046
  666TIP3    H223490   2.020   2.943  16.108 -0.7600  0.0378 -0.0101
  667TIP3   OH223491   5.880   0.662   0.343  0.4965  0.1304 -0.1140
  667TIP3    H123492   5.842   0.575   0.355  3.3373 -1.2839 -0.4662
  667TIP3    H223493   5.916   0.686   0.428 -1.0501  1.4520  0.2241
  668TIP3   OH223494   6.396   1.502   3.499  0.5291 -0.8187 -0.5624
  668TIP3    H123495   6.372   1.478   3.409  0.0341 -1.7897 -0.1861
  668TIP3    H223496   6.363   1.430   3.552  2.7560 -1.3609  0.1835
  669TIP3   OH223497   6.777   3.917  12.971  0.1393  0.4389 -0.9821
  669TIP3    H123498   6.724   3.843  12.942  0.3431  0.1665 -0.6615
  669TIP3    H223499   6.848   3.878  13.022  0.2459  0.8541 -0.8059
  670TIP3   OH223500   0.817   0.389  13.207 -0.0366 -0.3423  0.7244
  670TIP3    H123501   0.908   0.419  13.208 -0.1893  0.1787  0.0373
  670TIP3    H223502   0.811   0.334  13.129 -0.7770  1.2043 -0.3526
  671TIP3   OH223503   1.731   5.829   1.944  0.0764 -0.1035  0.1952
  671TIP3    H123504   1.738   5.902   1.883 -0.5362 -0.8303 -0.7602
  671TIP3    H223505   1.821   5.807   1.966  0.3004  0.0944 -0.5166
  672TIP3   OH223506   1.619   6.428  11.551  0.2114  0.1856  0.6795
  672TIP3    H123507   1.692   6.416  11.611  0.2400 -0.9889  0.4394
  672TIP3    H223508   1.661   6.446  11.466  0.1705  1.9165  0.9915
  673TIP3   OH223509   3.679   4.075  14.414  0.3371 -0.0514 -0.0748
  673TIP3    H123510   3.758   4.022  14.420 -0.1936 -0.9724 -1.0150
  673TIP3    H223511   3.607   4.015  14.436 -0.0964  0.8476  1.0734
  674TIP3   OH223512   3.642   6.556  11.795 -0.1926 -0.1711 -0.4162
  674TIP3    H123513   3.632   6.575  11.888 -2.2954 -1.6791 -0.2734
  674TIP3    H223514   3.694   6.475  11.793 -1.7680 -1.2224 -0.4135
  675TIP3   OH223515   0.420   6.410   4.066 -0.6729 -0.4637  0.4231
  675TIP3    H123516   0.440   6.375   4.153 -0.1531 -1.9239 -0.2460
  675TIP3    H223517   0.340   6.461   4.079 -0.6354 -0.7049  1.7469
  676TIP3   OH223518   4.944   1.332   0.390 -0.2332 -0.1379  0.0202
  676TIP3    H123519   5.032   1.325   0.428  0.4020 -1.3191 -1.5483
  676TIP3    H223520   4.954   1.395   0.319 -0.7277 -0.1252 -0.0402
  677TIP3   OH223521   5.179   0.437   4.418  0.3402  0.0328 -0.1806
  677TIP3    H123522   5.151   0.529   4.415  0.8140  0.1913  0.1839
  677TIP3    H223523   5.097   0.387   4.415  0.0826  0.4650 -0.4063
  678TIP3   OH223524   5.725   1.066  16.330 -0.0539  0.3480  0.7691
  678TIP3    H123525   5.765   0.980  16.345 -0.5621 -0.1201 -0.4901
  678TIP3    H223526   5.762   1.121  16.399  0.6989 -0.7393  1.2670
  679TIP3   OH223527   0.417   4.100   6.043  0.2555 -0.1064 -0.1896
  679TIP3    H123528   0.489   4.058   6.090 -0.5736  0.3940  1.6565
  679TIP3    H223529   0.456   4.177   6.001  0.6984  0.6176  1.4609
  680TIP3   OH223530   3.966   4.930  17.115 -0.1573  0.0034  0.3149
  680TIP3    H123531   3.991   4.912  17.205  0.2687 -2.7881 -0.2884
  680TIP3    H223532   4.038   4.894  17.062 -1.1545  0.1220 -1.1840
  681TIP3   OH223533   6.642   0.096   5.346 -0.6187 -0.1606 -0.0019
  681TIP3    H123534   6.599   0.056   5.270 -0.8428 -0.9636  0.5329
  681TIP3    H223535   6.692   0.024   5.385  0.6302  0.5770 -0.1876
  682TIP3   OH223536   6.801   2.742  13.085 -0.1000  0.1437  0.0200
  682TIP3    H123537   6.716   2.758  13.043  0.3134 -3.0878 -2.4651
  682TIP3    H223538   6.854   2.700  13.016  2.7215 -0.1161  2.1760
  683TIP3   OH223539   0.418   2.862   2.428 -0.3663 -0.2126  0.2688
  683TIP3    H123540   0.355   2.808   2.380 -0.7176  0.9791 -0.6662
  683TIP3    H223541   0.388   2.858   2.519 -2.5323  1.2513 -0.2992
  684TIP3   OH223542   3.169   4.410  14.782  0.4091 -0.0087  0.4554
  684TIP3    H123543   3.190   4.358  14.860  0.1096 -0.9430 -0.0709
  684TIP3    H223544   3.106   4.357  14.734 -0.6833  1.2946  0.3866
  685TIP3   OH223545   1.741   0.633   0.647 -0.3994  0.3434  0.4349
  685TIP3    H123546   1.664   0.595   0.689 -1.3656 -0.4647 -1.9096
  685TIP3    H223547   1.811   0.570   0.663 -0.4173  0.6493  1.8210
  686TIP3   OH223548   2.496   2.841  15.042  0.2446  0.7492  0.4211
  686TIP3    H123549   2.491   2.833  14.947 -2.5347  0.1863  0.5224
  686TIP3    H223550   2.556   2.772  15.069  0.3695  0.3317 -0.8531
  687TIP3   OH223551   5.119   3.012  14.239  0.3868 -0.1117  0.0312
  687TIP3    H123552   5.208   3.034  14.268 -0.1858  0.7669  1.1877
  687TIP3    H223553   5.127   2.923  14.204  1.9775  0.4600 -1.1348
  688TIP3   OH223554   6.781   1.523   6.600  0.7770  0.6971 -0.0605
  688TIP3    H123555   6.757   1.586   6.668 -0.5696  1.3291 -1.0682
  688TIP3    H223556   6.862   1.483   6.631  0.0534  0.7621  2.0336
  689TIP3   OH223557   4.882   3.157  11.084 -0.0031 -0.2175 -0.5388
  689TIP3    H123558   4.846   3.216  11.018  0.0447  0.0218 -0.3517
  689TIP3    H223559   4.918   3.085  11.034  2.4316  1.2037 -0.9893
  690TIP3   OH223560   3.968   0.099  16.575 -0.0388  0.3175  0.0930
  690TIP3    H123561   4.020   0.092  16.655 -3.6070  1.8979  2.8372
  690TIP3    H223562   3.994   0.182  16.536  1.4701 -0.2818 -0.2207
  691TIP3   OH223563   5.916   2.155  12.083  0.0606  0.6567  0.1001
  691TIP3    H123564   5.984   2.176  12.147 -0.6601  0.8326  0.8260
  691TIP3    H223565   5.918   2.228  12.021  0.9462  0.3509 -0.2490
  692TIP3   OH223566   6.641   3.756   1.249  0.1806  0.2163  0.8402
  692TIP3    H123567   6.588   3.718   1.179  1.4404 -1.0385  0.5220
  692TIP3    H223568   6.612   3.710   1.328  1.1734 -0.9223  0.5723
  693TIP3   OH223569   6.752   4.951  17.115 -0.2689 -0.1776 -0.1971
  693TIP3    H123570   6.672   4.898  17.108  0.5729 -1.4470 -0.5571
  693TIP3    H223571   6.772   4.974  17.024 -1.0244  1.4230  0.0117
  694TIP3   OH223572   3.019   2.157   3.013  0.1891 -0.6181 -0.0690
  694TIP3    H123573   3.109   2.138   2.985  0.0261 -0.4029 -0.7405
  694TIP3    H223574   3.017   2.252   3.025  0.6976 -0.8349  2.2341
  695TIP3   OH223575   0.208   2.072  13.273  0.3313  0.3554  0.7177
  695TIP3    H123576   0.202   2.053  13.179  1.1920 -0.5667  0.8375
  695TIP3    H223577   0.247   2.159  13.277  0.8592  0.1481  0.2256
  696TIP3   OH223578   5.601   6.555   0.236  0.0091  0.3152 -0.6833
  696TIP3    H123579   5.567   6.640   0.209 -0.7123 -0.9388 -4.2058
  696TIP3    H223580   5.639   6.517   0.157  3.1758 -1.4210  1.4598
  697TIP3   OH223581   0.488   4.027   0.749  0.4867 -0.4551  0.3318
  697TIP3    H123582   0.431   3.957   0.780 -2.4505  1.9138  0.7118
  697TIP3    H223583   0.551   3.983   0.691 -0.5141 -3.4778  1.3753
  698TIP3   OH223584   1.129   2.950   2.906  0.2895  0.1232 -0.0523
  698TIP3    H123585   1.034   2.963   2.903  0.4390  1.0470 -1.9239
  698TIP3    H223586   1.166   3.038   2.906  1.1644 -0.2280  0.6934
  699TIP3   OH223587   2.249   1.755  13.597  0.2309  0.0544 -0.0356
  699TIP3    H123588   2.313   1.806  13.647 -0.4550  1.2983 -0.3893
  699TIP3    H223589   2.297   1.676  13.572  1.4295  0.6442  0.2827
  700TIP3   OH223590   1.364   3.580  13.724  0.5918 -0.1945 -0.3224
  700TIP3    H123591   1.367   3.549  13.815 -0.6139  1.9250  0.4996
  700TIP3    H223592   1.271   3.587  13.704  0.8349  0.9778 -1.1252
  701TIP3   OH223593   4.239   0.061  10.891  0.1514 -0.1410 -0.4435
  701TIP3    H123594   4.320   0.065  10.840  0.6354 -3.0184 -0.0448
  701TIP3    H223595   4.170   0.059  10.825  0.3717  1.8129 -0.7943
  702TIP3   OH223596   3.122   3.802   3.839  0.2219 -0.1498 -0.0088
  702TIP3    H123597   3.102   3.827   3.929 -0.2567 -1.4074  0.2557
  702TIP3    H223598   3.036   3.784   3.800  0.3093  1.7515 -1.1560
  703TIP3   OH223599   1.054   5.561   2.533  0.1916 -0.1915 -0.5021
  703TIP3    H123600   1.023   5.497   2.469 -1.8067  0.0574  0.1384
  703TIP3    H223601   0.979   5.574   2.591  1.4894  0.6234  1.0691
  704TIP3   OH223602   6.515   5.989   2.689  0.0734  0.1789 -0.2065
  704TIP3    H123603   6.522   6.052   2.760  2.1191  0.0901 -0.2732
  704TIP3    H223604   6.424   5.959   2.693  0.2492 -0.2653  2.7477
  705TIP3   OH223605   4.282   1.683   5.658 -0.2497 -0.4942 -0.2156
  705TIP3    H123606   4.368   1.723   5.642  0.0235 -1.3433 -0.9564
  705TIP3    H223607   4.300   1.590   5.666 -1.1431 -0.7218 -0.7353
  706TIP3   OH223608   4.605   5.944   3.299 -0.3295 -0.0024 -0.0063
  706TIP3    H123609   4.613   5.985   3.213  0.1026 -0.9444 -0.4211
  706TIP3    H223610   4.531   5.990   3.340 -1.7965 -0.8155 -1.6049
  707TIP3   OH223611   0.830   4.328  12.725  0.0642  0.1655 -0.0300
  707TIP3    H123612   0.873   4.248  12.697 -0.2350 -0.0087  0.0077
  707TIP3    H223613   0.899   4.378  12.768  0.4683  0.3187 -0.8275
  708TIP3   OH223614   6.569   4.080   5.826 -0.0392  0.1429  0.2939
  708TIP3    H123615   6.591   4.044   5.912 -0.2409  1.6763  1.0122
  708TIP3    H223616   6.495   4.027   5.796  0.9605 -1.3593  0.3836
  709TIP3   OH223617   1.887   3.802   5.789 -0.7439  0.0650  0.0937
  709TIP3    H123618   1.804   3.765   5.760 -0.5425 -1.1579  0.9389
  709TIP3    H223619   1.887   3.789   5.884  0.5379 -0.2661  0.0777
  710TIP3   OH223620   6.485   4.428  16.263 -0.3210  0.8094  0.4743
  710TIP3    H123621   6.398   4.410  16.227 -0.8706 -0.6976  2.3681
  710TIP3    H223622   6.477   4.513  16.305 -0.9547  0.6118  0.7650
  711TIP3   OH223623   2.096   0.734   5.869 -0.8622 -0.7219 -0.3443
  711TIP3    H123624   2.084   0.802   5.935 -0.5625  0.2483 -1.2642
  711TIP3    H223625   2.080   0.652   5.916  0.1255 -0.1212  1.1212
  712TIP3   OH223626   6.580   0.892  12.022  0.1738 -0.4309  0.8875
  712TIP3    H123627   6.585   0.797  12.037  0.5416 -0.6657 -0.5365
  712TIP3    H223628   6.563   0.929  12.109  0.5420 -1.7577  1.5626
  713TIP3   OH223629   4.258   5.932  15.294 -0.7832 -0.1282 -0.2212
  713TIP3    H123630   4.276   5.849  15.337 -1.0340 -0.5382 -0.8892
  713TIP3    H223631   4.187   5.912  15.233 -1.2751  0.7170  0.0544
  714TIP3   OH223632   2.730   3.125  11.419 -0.5923 -0.0141 -0.4174
  714TIP3    H123633   2.645   3.102  11.381 -0.3163 -1.7657 -0.0375
  714TIP3    H223634   2.791   3.062  11.381  0.1539 -0.1278  0.9206
  715TIP3   OH223635   6.763   4.261   0.279  0.3109  0.3549  0.5673
  715TIP3    H123636   6.717   4.253   0.196 -0.3789  0.3265  0.9429
  715TIP3    H223637   6.700   4.305   0.337  2.0047  3.7130  0.1093
  716TIP3   OH223638   6.728   4.765  13.334 -0.0631  0.2247  0.9408
  716TIP3    H123639   6.784   4.721  13.398 -0.3745  0.1213  1.1455
  716TIP3    H223640   6.759   4.855  13.331  1.1388 -0.1976 -0.1030
  717TIP3   OH223641   0.989   3.598   0.763 -0.2698  0.3188  0.4623
  717TIP3    H123642   1.042   3.565   0.690 -0.5005 -2.1540  1.3069
  717TIP3    H223643   1.047   3.592   0.839 -1.3453 -1.5134  1.2296
  718TIP3   OH223644   2.938   5.599  11.783 -0.4301  0.3037  0.4971
  718TIP3    H123645   2.887   5.640  11.714  0.5892 -0.6977 -0.9084
  718TIP3    H223646   2.876   5.588  11.855 -1.5228  1.3577 -0.2479
  719TIP3   OH223647   2.488   3.074   5.137 -0.2261  0.0052  0.3699
  719TIP3    H123648   2.526   3.161   5.150  1.5308 -0.9155  1.9993
  719TIP3    H223649   2.561   3.014   5.152 -1.8464 -1.8219  1.4647
  720TIP3   OH223650   3.714   4.824   4.371  0.1673  0.6369  0.4619
  720TIP3    H123651   3.687   4.734   4.385  2.5570 -0.1405  0.5727
  720TIP3    H223652   3.793   4.834   4.425  1.4270  1.9858 -1.4819
  721TIP3   OH223653   1.163   2.153   3.612  0.1591  0.1582 -0.4576
  721TIP3    H123654   1.259   2.149   3.615  0.1325 -0.0989  0.3324
  721TIP3    H223655   1.142   2.155   3.519  0.9015 -0.6799 -0.6604
  722TIP3   OH223656   4.604   5.976  16.105  0.5942  0.4910  0.2622
  722TIP3    H123657   4.538   6.040  16.129 -0.1866 -0.1066 -0.2352
  722TIP3    H223658   4.576   5.895  16.147  3.2091  1.0635  3.5298
  723TIP3   OH223659   5.467   3.081  15.408 -0.5401  1.0654  0.0814
  723TIP3    H123660   5.509   3.156  15.448  1.5608 -0.0870  0.1652
  723TIP3    H223661   5.477   3.095  15.314  3.9003 -1.0387 -0.0090
  724TIP3   OH223662   3.174   5.136   2.100  0.2132  0.8604  0.4984
  724TIP3    H123663   3.186   5.100   2.012  1.9904 -0.3477  1.1803
  724TIP3    H223664   3.211   5.225   2.094  0.5112  0.7132  0.0691
  725TIP3   OH223665   0.001   1.060   3.022 -0.1112  0.2081  0.0657
  725TIP3    H123666  -0.005   1.142   2.974  2.0568 -0.5790 -1.7582
  725TIP3    H223667   0.075   1.014   2.982 -0.5429 -2.1695  1.7415
  726TIP3   OH223668   0.330   4.477  12.939  0.0127  0.6377  0.2641
  726TIP3    H123669   0.415   4.468  12.896 -0.2200 -0.8702  0.0766
  726TIP3    H223670   0.290   4.555  12.898  1.5168  1.7293  0.7795
  727TIP3   OH223671   2.082   3.872  12.296 -0.4893 -0.0394 -0.4375
  727TIP3    H123672   2.153   3.860  12.359 -1.0505  1.1194  0.4504
  727TIP3    H223673   2.003   3.882  12.349 -0.9468  1.1815 -1.2932
  728TIP3   OH223674   3.561   1.915  12.735 -0.2737 -0.3501  0.0792
  728TIP3    H123675   3.553   1.980  12.803 -1.3082  1.4079 -1.6238
  728TIP3    H223676   3.545   1.831  12.779  2.5604  0.2915  2.6099
  729TIP3   OH223677   3.883   2.333   3.517 -0.5334  0.2046 -1.1013
  729TIP3    H123678   3.839   2.417   3.502  1.1227  1.5473  1.0646
  729TIP3    H223679   3.936   2.320   3.439  3.0752  3.8381  0.3827
  730TIP3   OH223680   4.291   1.807  14.123  0.7847  0.0201 -0.2437
  730TIP3    H123681   4.245   1.877  14.077  0.8983 -0.1739 -0.6576
  730TIP3    H223682   4.372   1.848  14.155  1.6781 -0.3399 -1.9724
  731TIP3   OH223683   3.161   1.748   4.052  0.2331  0.2438  0.0192
  731TIP3    H123684   3.194   1.805   4.122 -1.7990  1.1795  0.2845
  731TIP3    H223685   3.187   1.793   3.972  0.3793  0.5016  0.2066
  732TIP3   OH223686   2.994   2.932  12.660  0.2844  0.3755  0.1480
  732TIP3    H123687   2.995   2.936  12.564 -0.8551  0.8021  0.1367
  732TIP3    H223688   2.907   2.898  12.682  0.7308 -0.2308  1.0195
  733TIP3   OH223689   3.072   5.262  12.569  0.2022 -0.3998  0.6342
  733TIP3    H123690   3.014   5.322  12.521  1.6269  1.0092  0.5732
  733TIP3    H223691   3.063   5.289  12.661 -0.2238 -1.0700  0.7972
  734TIP3   OH223692   3.699   0.723  14.226  0.0982 -0.3852  0.3045
  734TIP3    H123693   3.694   0.798  14.167 -1.2663 -0.1967  0.6250
  734TIP3    H223694   3.732   0.651  14.171 -3.7964 -1.0136 -1.5951
  735TIP3   OH223695   5.666   4.668  11.395 -0.1112  0.3308 -0.5338
  735TIP3    H123696   5.735   4.714  11.348 -0.9147  0.5541 -1.5468
  735TIP3    H223697   5.619   4.737  11.442  1.3629 -0.0168  1.5665
  736TIP3   OH223698   2.674   4.898   1.923  0.5403 -0.3525 -0.4110
  736TIP3    H123699   2.591   4.924   1.963 -0.6204 -0.9298 -2.2980
  736TIP3    H223700   2.680   4.804   1.941  0.2433 -0.5199 -1.1393
  737TIP3   OH223701   3.505   0.572  15.921 -0.0103  0.4024 -0.1112
  737TIP3    H123702   3.422   0.609  15.951 -0.4835 -0.7124 -0.0111
  737TIP3    H223703   3.568   0.594  15.990  0.0740  2.2849 -0.7314
  738TIP3   OH223704   6.238   3.735   1.946 -0.4384 -0.2868 -0.3776
  738TIP3    H123705   6.183   3.812   1.957 -0.0949  0.2166 -1.8833
  738TIP3    H223706   6.298   3.758   1.875 -0.8844 -2.2305 -1.4720
  739TIP3   OH223707   4.515   1.606  10.969  0.2322  0.3482 -0.1589
  739TIP3    H123708   4.603   1.621  11.004  0.2732 -1.4980  0.6419
  739TIP3    H223709   4.482   1.694  10.949  2.0149  1.1169  0.0888
  740TIP3   OH223710   4.788   4.696  16.029 -0.2705  0.4836 -0.6208
  740TIP3    H123711   4.804   4.791  16.027 -0.1179  0.5085  0.7521
  740TIP3    H223712   4.713   4.683  15.970  0.5276  1.2629 -1.8518
  741TIP3   OH223713   3.649   2.806  14.080 -1.1724  0.5587 -0.1825
  741TIP3    H123714   3.602   2.798  13.997  1.1018 -2.3574 -1.4041
  741TIP3    H223715   3.723   2.746  14.070  0.0051  1.2022  3.4515
  742TIP3   OH223716   6.197   1.568   4.446  0.5750  0.4836 -0.1680
  742TIP3    H123717   6.118   1.537   4.491  0.4201  1.7471  0.5045
  742TIP3    H223718   6.171   1.575   4.354  0.4755 -0.8328 -0.2634
  743TIP3   OH223719   5.781   0.387  15.455  0.1707  0.0534  0.6989
  743TIP3    H123720   5.731   0.307  15.436  2.1555 -0.9730 -0.5491
  743TIP3    H223721   5.783   0.435  15.373  0.0783  0.7878  1.1129
  744TIP3   OH223722   4.410   3.764  11.717  0.5485  0.2280  0.3115
  744TIP3    H123723   4.376   3.854  11.717 -1.6941 -0.5672 -0.3222
  744TIP3    H223724   4.334   3.709  11.731  1.7778 -1.6410  0.0611
  745TIP3   OH223725   6.545   1.573   6.438 -0.2351  0.3676 -0.4965
  745TIP3    H123726   6.629   1.586   6.481  0.1299 -0.2728 -1.0055
  745TIP3    H223727   6.495   1.652   6.460 -0.0987  0.0230  1.1657
  746TIP3   OH223728   2.137   3.044  12.872 -0.5354 -0.2444  0.3623
  746TIP3    H123729   2.114   3.006  12.788 -0.5541 -1.3829  0.8554
  746TIP3    H223730   2.135   2.970  12.933 -1.1539  0.6609  1.4904
  747TIP3   OH223731   5.354   0.342   1.102 -0.5952  0.3911 -0.0548
  747TIP3    H123732   5.295   0.341   1.026  0.0803 -0.2482 -0.5770
  747TIP3    H223733   5.394   0.428   1.100 -1.1654  0.6683  0.0469
  748TIP3   OH223734   3.043   3.605  13.864  0.5386  0.3955 -0.0504
  748TIP3    H123735   2.952   3.581  13.851  0.4058  0.7447  0.2278
  748TIP3    H223736   3.043   3.700  13.871  0.4963  0.2936  2.9075
  749TIP3   OH223737   5.265   5.872  13.377 -0.5986 -0.5582  0.2851
  749TIP3    H123738   5.265   5.932  13.452 -2.3533  0.4647 -0.4843
  749TIP3    H223739   5.300   5.924  13.304  2.4504 -1.9533  0.5896
  750TIP3   OH223740   6.337   6.524   0.048  0.4100 -0.3795  0.7736
  750TIP3    H123741   6.277   6.588   0.086 -1.1108 -2.2835  1.7680
  750TIP3    H223742   6.386   6.489   0.122  2.5495  0.8501  0.0204
  751TIP3   OH223743   0.780   5.852  15.209 -0.0713 -0.8028 -0.3189
  751TIP3    H123744   0.844   5.802  15.158  0.2131 -0.7819  0.0118
  751TIP3    H223745   0.832   5.915  15.258 -0.5475  0.9564 -1.9574
  752TIP3   OH223746   4.056   4.375  13.308  0.3871 -0.1161  0.0227
  752TIP3    H123747   4.054   4.379  13.212 -0.7131 -0.8736 -0.0109
  752TIP3    H223748   4.140   4.334  13.329  1.6774  2.1267 -0.4891
  753TIP3   OH223749   0.741   3.958   3.532  0.3543 -0.0684 -0.2815
  753TIP3    H123750   0.813   3.912   3.488  2.2222  0.5898  1.8930
  753TIP3    H223751   0.758   4.051   3.513  0.2722  0.1103  0.5113
  754TIP3   OH223752   1.272   3.395   2.951  0.5607 -0.3883  0.5796
  754TIP3    H123753   1.216   3.317   2.951 -1.2443  0.8444  0.7454
  754TIP3    H223754   1.246   3.442   2.872 -1.2569  1.9452  2.4261
  755TIP3   OH223755   3.598   4.258  12.330 -0.2883  0.0556  0.7950
  755TIP3    H123756   3.525   4.197  12.337 -1.1018  0.8849 -0.2461
  755TIP3    H223757   3.598   4.305  12.413 -0.0478 -0.8976  1.3523
  756TIP3   OH223758   1.596   1.460   2.117  0.2309  0.3175  0.8740
  756TIP3    H123759   1.606   1.500   2.030  0.7284 -0.8359  0.3694
  756TIP3    H223760   1.505   1.476   2.141 -0.4123 -0.7975 -0.6379
  757TIP3   OH223761   1.459   2.254  14.920  0.0007 -0.1212 -0.2149
  757TIP3    H123762   1.473   2.235  15.013  0.6413 -0.4104 -0.3603
  757TIP3    H223763   1.539   2.301  14.893 -0.5868  0.8004 -0.3965
  758TIP3   OH223764   2.286   1.862   4.749 -0.2012 -0.6017 -0.1846
  758TIP3    H123765   2.216   1.907   4.702 -0.0823 -0.1606  0.0636
  758TIP3    H223766   2.255   1.856   4.839 -0.0314 -0.6443 -0.1294
  759TIP3   OH223767   1.457   3.205   3.018 -0.3353  0.7270 -0.0293
  759TIP3    H123768   1.392   3.167   3.077  1.7494  0.5837  2.3790
  759TIP3    H223769   1.416   3.284   2.983 -2.3834 -0.2684 -0.0332
  760TIP3   OH223770   2.605   2.178   1.636 -0.4161 -0.0738 -0.5170
  760TIP3    H123771   2.640   2.108   1.691 -3.5303 -2.0100 -0.7897
  760TIP3    H223772   2.683   2.217   1.595  1.9091  0.3072  3.7186
  761TIP3   OH223773   3.800   5.333  11.762 -0.4873 -0.7943 -0.2390
  761TIP3    H123774   3.840   5.309  11.846 -0.2069 -0.1372 -0.1819
  761TIP3    H223775   3.771   5.424  11.774  0.4999 -0.3392 -1.1923
  762TIP3   OH223776   3.709   4.450   1.498 -0.2248  0.1813  0.0826
  762TIP3    H123777   3.750   4.400   1.569 -0.6547  0.5244  0.5788
  762TIP3    H223778   3.771   4.521   1.481 -0.0578  0.0224  0.0256
  763TIP3   OH223779   2.046   1.708  14.232 -0.0660 -0.2984 -0.0112
  763TIP3    H123780   1.998   1.780  14.274  2.4636  0.2560  2.2548
  763TIP3    H223781   2.078   1.745  14.150 -0.5265  0.4776  0.1489
  764TIP3   OH223782   2.523   3.842  11.708 -0.3736  1.3010  0.1438
  764TIP3    H123783   2.515   3.831  11.613  0.4753  1.0304  0.0945
  764TIP3    H223784   2.602   3.896  11.719  0.1195  0.4810  0.7350
  765TIP3   OH223785   0.268   2.707   2.244 -0.1889  0.3983 -0.2657
  765TIP3    H123786   0.297   2.616   2.240 -1.5868 -0.2926  2.7560
  765TIP3    H223787   0.178   2.705   2.210  0.1409  0.8901 -1.2023
  766TIP3   OH223788   1.988   2.331  14.931  0.1182 -0.2343 -0.2624
  766TIP3    H123789   2.068   2.365  14.893  0.4169  0.4499  0.9190
  766TIP3    H223790   1.987   2.238  14.906  2.3425 -0.7773  1.3596
  767TIP3   OH223791   3.742   1.699  16.503  0.4080  0.0039 -0.2885
  767TIP3    H123792   3.819   1.731  16.456  1.2231 -0.6847  0.5263
  767TIP3    H223793   3.702   1.636  16.444 -0.7232  1.8234 -1.5522
  768TIP3   OH223794   3.033   1.374  14.866  0.2603 -0.8543  0.4789
  768TIP3    H123795   3.041   1.367  14.771 -0.3974 -1.2955  0.4513
  768TIP3    H223796   3.007   1.465  14.882 -0.9853 -1.1363  0.1341
  769TIP3   OH223797   4.016   3.647  12.603  0.3798  0.2119  0.1410
  769TIP3    H123798   4.063   3.592  12.666  0.8149 -0.6456 -0.8891
  769TIP3    H223799   3.924   3.629  12.619  0.5090 -0.5182  0.1082
  770TIP3   OH223800   4.864   0.740  16.177  0.1226 -0.5920  0.1963
  770TIP3    H123801   4.891   0.827  16.149 -0.2781  0.1211  1.8852
  770TIP3    H223802   4.853   0.691  16.096  2.7380  0.1798 -0.7163
  771TIP3   OH223803   1.715   4.013   5.395  0.3329 -0.3761  0.2155
  771TIP3    H123804   1.677   3.979   5.476  3.2897 -3.3188  0.5605
  771TIP3    H223805   1.667   3.969   5.325  0.6902 -1.3297  0.5500
  772TIP3   OH223806   0.628   1.860   3.066 -0.1473  0.2003  0.3253
  772TIP3    H123807   0.598   1.770   3.058 -1.4486  0.6619 -0.3214
  772TIP3    H223808   0.718   1.858   3.032 -0.4867 -0.6838 -0.5962
  773TIP3   OH223809   5.757   0.886   0.594 -0.5884 -0.1484 -0.2573
  773TIP3    H123810   5.741   0.954   0.529 -0.5761  1.0716  0.9649
  773TIP3    H223811   5.683   0.826   0.584 -1.2822  0.7255 -0.5163
  774TIP3   OH223812   5.742   3.393   5.201  0.1173 -0.7267 -0.1318
  774TIP3    H123813   5.675   3.325   5.204  0.8495 -1.4630 -0.0580
  774TIP3    H223814   5.719   3.447   5.126 -0.2562 -1.2905 -0.4212
  775TIP3   OH223815   1.749   0.698   2.286  0.5841  0.3183 -0.2746
  775TIP3    H123816   1.768   0.730   2.375  1.2464 -0.0690 -0.2664
  775TIP3    H223817   1.826   0.645   2.264  0.4198  0.4186 -1.0852
  776TIP3   OH223818   4.664   4.593   2.243  0.5015  0.4103 -0.0663
  776TIP3    H123819   4.732   4.586   2.176  0.3517  1.4292 -0.3361
  776TIP3    H223820   4.680   4.677   2.285 -0.5374  0.6234 -0.0786
  777TIP3   OH223821   1.751   4.810  16.508  0.0908 -0.6020 -0.6327
  777TIP3    H123822   1.756   4.756  16.587  0.3219  1.2161  0.6551
  777TIP3    H223823   1.657   4.817  16.490  0.0838 -3.5711 -2.4497
  778TIP3   OH223824   4.631   5.707  16.244 -0.0178 -0.4578  0.0425
  778TIP3    H123825   4.616   5.623  16.287  0.4366 -0.6082 -0.0884
  778TIP3    H223826   4.688   5.687  16.170 -0.8107 -0.2036 -0.6476
  779TIP3   OH223827   3.294   1.963   0.011 -0.2214 -0.0467 -0.1673
  779TIP3    H123828   3.239   2.040   0.024  0.1958  0.0306  1.3393
  779TIP3    H223829   3.373   1.997  -0.032 -0.0370  0.3708  0.4935
  780TIP3   OH223830   0.067   1.245   3.453 -0.3926 -0.6520 -0.5085
  780TIP3    H123831   0.014   1.181   3.405 -3.5097  0.3421  1.2659
  780TIP3    H223832   0.097   1.198   3.531 -5.5563  0.4778  2.6265
  781TIP3   OH223833   6.807   1.760  14.066 -0.1566 -0.5642 -0.5177
  781TIP3    H123834   6.761   1.732  14.145 -0.5617 -0.1487 -0.6021
  781TIP3    H223835   6.893   1.718  14.072 -0.6323 -1.5406 -0.4841
  782TIP3   OH223836   6.274   0.620   5.386  0.1553 -0.2081  0.8174
  782TIP3    H123837   6.312   0.546   5.338 -1.3202 -0.4759  0.0254
  782TIP3    H223838   6.209   0.580   5.444  0.1256  0.3670  1.1908
  783TIP3   OH223839   1.292   1.696   4.429 -0.5610  0.0871 -0.6995
  783TIP3    H123840   1.239   1.727   4.501  0.0325  2.0017 -1.0178
  783TIP3    H223841   1.242   1.718   4.350  0.0700  0.6936 -0.9490
  784TIP3   OH223842   6.808   1.407  15.698  0.2058 -0.3471  0.3405
  784TIP3    H123843   6.871   1.393  15.768  0.5646  0.9704  0.3214
  784TIP3    H223844   6.861   1.422  15.620 -0.1326  0.0043  0.1693
  785TIP3   OH223845   5.285   1.929  17.129  0.3029  0.2607 -0.0902
  785TIP3    H123846   5.306   2.019  17.106 -0.9781  0.7491  0.5503
  785TIP3    H223847   5.250   1.891  17.048  2.0863 -0.1059 -0.7381
  786TIP3   OH223848   5.287   1.946  14.994 -0.0664  0.7159  0.1396
  786TIP3    H123849   5.299   2.015  14.928 -0.4852  0.2240 -0.4695
  786TIP3    H223850   5.198   1.914  14.978  0.4478 -0.5964 -0.2146
  787TIP3   OH223851   2.735   3.690  14.919 -0.0836 -0.1258 -0.3410
  787TIP3    H123852   2.704   3.729  14.837 -1.0834 -1.1055 -0.4487
  787TIP3    H223853   2.690   3.738  14.988 -0.4326 -0.3253 -0.4295
  788TIP3   OH223854   5.753   1.463   0.959 -0.3811  0.7413  0.2649
  788TIP3    H123855   5.698   1.386   0.940  0.3030  0.6202 -1.3686
  788TIP3    H223856   5.798   1.481   0.877  0.6893  1.9335  1.0801
  789TIP3   OH223857   2.876   2.075   5.248  0.2629 -0.1127  0.1430
  789TIP3    H123858   2.885   2.130   5.170 -0.1665  0.1702  0.2862
  789TIP3    H223859   2.854   2.137   5.318 -0.4059 -0.4845  0.2736
  790TIP3   OH223860   5.998   0.065  12.637 -0.0492 -0.0420 -0.2371
  790TIP3    H123861   5.929   0.060  12.703  0.5134  0.0352  0.3718
  790TIP3    H223862   6.067   0.117  12.679  0.4634 -0.2911 -0.7592
  791TIP3   OH223863   5.265   0.668  12.446  0.9964  0.1724 -0.1228
  791TIP3    H123864   5.221   0.744  12.408  0.7938  0.5679  0.8563
  791TIP3    H223865   5.349   0.663  12.402  0.3887  0.0196 -1.3077
  792TIP3   OH223866   4.448   4.940  13.065  0.5223  0.0367  0.1929
  792TIP3    H123867   4.357   4.917  13.046  0.4139 -1.1736  1.9378
  792TIP3    H223868   4.499   4.895  12.997 -0.1036 -0.3575 -0.0256
  793TIP3   OH223869   1.002   2.425  16.855  0.5160  0.1710 -0.6546
  793TIP3    H123870   0.929   2.363  16.852  0.2331  0.5512 -2.3457
  793TIP3    H223871   1.063   2.393  16.789  2.3190 -0.5883  1.2496
  794TIP3   OH223872   5.328   2.483   4.026 -0.2297  0.2540  0.0213
  794TIP3    H123873   5.374   2.535   3.961  1.2157  0.3744  1.0890
  794TIP3    H223874   5.348   2.392   4.002 -0.1396  0.2840 -0.0185
  795TIP3   OH223875   0.973   0.513   1.588  0.4259 -0.1490 -0.3775
  795TIP3    H123876   1.008   0.425   1.598  0.9919  0.0921 -0.2247
  795TIP3    H223877   1.047   0.571   1.604 -0.2639  0.4033  1.0489
  796TIP3   OH223878   2.918   6.520  12.679 -0.7240  0.4845  0.1079
  796TIP3    H123879   2.871   6.602  12.665 -1.1199  0.2939  0.3256
  796TIP3    H223880   2.863   6.453  12.638 -0.1199  0.4012 -0.5770
  797TIP3   OH223881   4.394   2.169   2.510 -0.3405 -0.3898 -0.1734
  797TIP3    H123882   4.325   2.232   2.534 -0.2239 -0.7649  1.2719
  797TIP3    H223883   4.431   2.204   2.429 -2.5111 -0.4057 -1.2584
  798TIP3   OH223884   1.688   5.709   5.950  0.1273 -0.1635 -0.1542
  798TIP3    H123885   1.728   5.794   5.933 -0.1148  0.3229  1.5415
  798TIP3    H223886   1.718   5.685   6.038 -0.7590 -1.2685 -0.1321
  799TIP3   OH223887   2.089   5.662   3.395  0.1942 -0.1206 -0.3829
  799TIP3    H123888   2.160   5.630   3.339  0.5527  0.0817 -0.0471
  799TIP3    H223889   2.054   5.737   3.347  0.1999 -0.2276 -0.5568
  800TIP3   OH223890   2.209   5.530  13.983 -0.2219  0.4307  0.0202
  800TIP3    H123891   2.114   5.540  13.986 -0.5430 -1.0135 -2.4043
  800TIP3    H223892   2.229   5.473  14.057 -0.9473  2.2302  1.6718
  801TIP3   OH223893   1.974   1.617  16.205 -0.7580 -0.6642 -0.6543
  801TIP3    H123894   1.911   1.545  16.197  0.3748 -1.6370 -1.2914
  801TIP3    H223895   2.011   1.608  16.293 -0.9046 -0.6194 -0.5891
  802TIP3   OH223896   0.439   3.093   6.143 -0.2558 -0.1552 -0.5095
  802TIP3    H123897   0.524   3.128   6.117 -0.1744  0.0633  0.0461
  802TIP3    H223898   0.393   3.167   6.183 -0.5571 -0.3683 -0.4588
  803TIP3   OH223899   3.725   4.294   2.445 -0.0026 -0.1592 -0.6620
  803TIP3    H123900   3.724   4.297   2.540 -2.0161 -1.5904 -0.6011
  803TIP3    H223901   3.818   4.288   2.423  0.4997  0.2244  1.1899
  804TIP3   OH223902   6.812   2.695  13.783 -0.0040 -0.2777 -0.5500
  804TIP3    H123903   6.842   2.784  13.764  1.4693 -0.5406  0.3751
  804TIP3    H223904   6.834   2.645  13.704  1.3281 -0.2872 -0.1979
  805TIP3   OH223905   5.252   4.951   5.272 -0.5278 -0.7168  0.3985
  805TIP3    H123906   5.266   4.925   5.363 -3.8833 -2.2770  0.6210
  805TIP3    H223907   5.195   5.028   5.278  0.4878  0.1182 -0.4022
  806TIP3   OH223908   2.630   5.973  12.804 -0.3168 -0.0587 -0.2344
  806TIP3    H123909   2.565   5.908  12.779 -1.3460  0.1130  1.8302
  806TIP3    H223910   2.586   6.057  12.793 -0.4554  0.0606  1.1135
  807TIP3   OH223911   5.521   0.829   0.256  0.2357 -0.0401  0.2381
  807TIP3    H123912   5.595   0.816   0.197  0.2638 -2.6814  0.7611
  807TIP3    H223913   5.451   0.774   0.220 -0.3810 -0.1797  1.6120
  808TIP3   OH223914   1.989   2.392  14.524 -0.9035 -0.2491  0.6385
  808TIP3    H123915   2.007   2.386  14.618  0.6391  0.7424  0.4406
  808TIP3    H223916   1.929   2.466  14.516 -1.3667 -0.5945  0.8702
  809TIP3   OH223917   0.046   6.443  16.652  0.2809 -0.3141 -0.5307
  809TIP3    H123918  -0.009   6.473  16.724  1.1262  0.7711 -0.3239
  809TIP3    H223919   0.039   6.512  16.586  1.0820 -0.3432 -0.6565
  810TIP3   OH223920   3.814   3.548   0.963 -0.1272 -0.2521  0.2118
  810TIP3    H123921   3.767   3.511   1.038  0.3212 -0.1119  0.5662
  810TIP3    H223922   3.746   3.565   0.898 -0.2927 -2.3062 -0.2301
  811TIP3   OH223923   4.966   2.097  14.508 -0.0523  0.2698  0.1409
  811TIP3    H123924   5.000   2.133  14.589 -0.0682  1.8798 -0.5384
  811TIP3    H223925   4.896   2.157  14.482  1.0305  0.7401 -1.8879
  812TIP3   OH223926   1.264   6.052  15.484 -0.0359 -0.0251 -0.0795
  812TIP3    H123927   1.174   6.023  15.498 -0.0531 -0.1703 -0.4855
  812TIP3    H223928   1.259   6.148  15.487 -0.3993  0.0110 -1.2170
  813TIP3   OH223929   2.674   4.756   3.857  0.2598 -0.0083  0.3262
  813TIP3    H123930   2.669   4.843   3.817  0.5948  0.9557  2.2220
  813TIP3    H223931   2.752   4.761   3.913  0.4535 -1.6505  0.2384
  814TIP3   OH223932   5.366   5.913   0.398 -0.0102  0.1396  0.5839
  814TIP3    H123933   5.394   5.821   0.390 -0.9219  0.0110 -2.2508
  814TIP3    H223934   5.366   5.946   0.308 -1.8000  2.2853  1.2811
  815TIP3   OH223935   3.785   0.721   2.494  0.2462  0.0886 -0.1296
  815TIP3    H123936   3.714   0.691   2.551  0.8068 -1.9949 -0.4721
  815TIP3    H223937   3.811   0.643   2.445  1.8134  1.1512 -1.0539
  816TIP3   OH223938   3.162   6.253  13.655  0.3248  0.3350  0.2739
  816TIP3    H123939   3.096   6.299  13.603  0.9373 -0.2384 -1.0676
  816TIP3    H223940   3.138   6.161  13.649 -0.8162  0.3783  2.8338
  817TIP3   OH223941   4.631   4.742   5.222  0.0132 -0.5690  0.5292
  817TIP3    H123942   4.674   4.821   5.188  0.9998 -1.2814  0.0604
  817TIP3    H223943   4.635   4.751   5.317  0.6150 -0.3058  0.4820
  818TIP3   OH223944   4.302   5.661   5.338  0.2598  0.2177 -0.4573
  818TIP3    H123945   4.253   5.689   5.416  0.0360 -3.6279  0.9900
  818TIP3    H223946   4.388   5.636   5.372  1.2984  1.4306 -2.0473
  819TIP3   OH223947   1.895   6.082  11.288 -0.3371 -0.4759 -0.4243
  819TIP3    H123948   1.830   6.142  11.251 -1.0208 -0.1170  1.2952
  819TIP3    H223949   1.844   6.021  11.342  0.6012 -1.1743 -0.3033
  820TIP3   OH223950   0.765   5.068  13.512  0.1463  0.3130 -0.5148
  820TIP3    H123951   0.734   5.024  13.591  2.6958 -1.2064 -0.2649
  820TIP3    H223952   0.815   5.002  13.465  1.4541  2.0876 -1.7579
  821TIP3   OH223953   0.671   6.765  14.970 -0.1346 -1.1515 -0.5476
  821TIP3    H123954   0.737   6.724  15.027 -0.1070 -1.1916 -0.6077
  821TIP3    H223955   0.718   6.781  14.888  0.0006 -0.5130 -0.3479
  822TIP3   OH223956   6.059   3.452  16.269  0.1000  0.4562  0.1216
  822TIP3    H123957   6.081   3.372  16.222 -2.4192 -0.8650  1.0135
  822TIP3    H223958   5.988   3.491  16.219  1.1332  2.0755 -0.1660
  823TIP3   OH223959   5.353   5.798   4.656  0.0426 -0.4051 -0.0029
  823TIP3    H123960   5.392   5.712   4.641 -0.6069 -0.3899 -1.9448
  823TIP3    H223961   5.358   5.842   4.572  0.5057  1.5547  0.9930
  824TIP3   OH223962   4.959   1.896   0.803  0.1471  0.3470  0.3272
  824TIP3    H123963   4.937   1.811   0.842 -1.6430  0.8832  0.5582
  824TIP3    H223964   4.877   1.929   0.768  0.8259  1.9548  0.1549
  825TIP3   OH223965   3.677   0.143  11.083 -0.1320 -0.0027  0.4767
  825TIP3    H123966   3.582   0.135  11.074 -0.2545  0.2678  1.5015
  825TIP3    H223967   3.703   0.197  11.009 -0.2547 -3.2061 -2.1893
  826TIP3   OH223968   2.606   3.478   5.665 -0.4401 -0.2632 -0.6150
  826TIP3    H123969   2.614   3.562   5.618 -0.3229  2.0120  3.0464
  826TIP3    H223970   2.524   3.487   5.714  0.2435 -1.7545  0.8723
  827TIP3   OH223971   3.521   6.009   3.118  0.2833  0.1105  0.6058
  827TIP3    H123972   3.562   5.929   3.150 -0.6369 -0.6919 -0.1846
  827TIP3    H223973   3.594   6.060   3.082  0.8339 -0.5013  0.8396
  828TIP3   OH223974   2.067   5.221   4.221 -0.1302  0.4125 -0.1589
  828TIP3    H123975   2.140   5.259   4.269 -0.5443  0.5568  0.3705
  828TIP3    H223976   2.106   5.153   4.167  0.5051  1.0342 -0.4948
  829TIP3   OH223977   4.839   4.571  15.109  0.4895 -0.1217  0.2176
  829TIP3    H123978   4.935   4.572  15.118  0.5480 -0.1114 -0.3573
  829TIP3    H223979   4.808   4.538  15.193  0.9589  0.7419  0.7472
  830TIP3   OH223980   0.752   3.939  16.442  0.1740 -0.2508 -0.4617
  830TIP3    H123981   0.754   4.033  16.458 -2.4416  0.0350 -1.2320
  830TIP3    H223982   0.751   3.931  16.346 -0.1109 -1.0232 -0.4003
  831TIP3   OH223983   3.010   0.851  11.269  0.7996 -0.0086  0.0692
  831TIP3    H123984   3.106   0.854  11.268  0.8397  2.3271 -2.9233
  831TIP3    H223985   2.989   0.776  11.213  0.5853 -3.8228  4.6029
  832TIP3   OH223986   1.542   1.803   4.490  0.1279 -0.5785 -0.0961
  832TIP3    H123987   1.534   1.774   4.581 -0.2645  3.0078  1.1719
  832TIP3    H223988   1.454   1.792   4.454 -0.1697 -0.3928  0.5481
  833TIP3   OH223989   3.002   4.891  15.475 -0.1385 -0.4292 -0.7156
  833TIP3    H123990   2.923   4.882  15.420 -0.8296 -2.0819  0.4789
  833TIP3    H223991   3.041   4.804  15.476  0.2473 -0.2648  0.8455
  834TIP3   OH223992   6.765   0.882  16.340 -0.3772  0.1801  0.1085
  834TIP3    H123993   6.754   0.945  16.269  0.5573  1.2777  0.9029
  834TIP3    H223994   6.776   0.935  16.418  1.0275 -0.9430  0.7175
  835TIP3   OH223995   3.335   1.443  14.621  0.2267 -0.5965 -0.1712
  835TIP3    H123996   3.268   1.457  14.555  0.1289  2.3353  0.4163
  835TIP3    H223997   3.298   1.480  14.701  1.8407 -0.4953  0.5826
  836TIP3   OH223998   5.870   5.702   3.177 -0.2679 -0.1373 -0.3981
  836TIP3    H123999   5.882   5.795   3.194 -1.1640  0.0333 -0.6265
  836TIP3    H224000   5.807   5.674   3.244  0.5294 -0.7442  0.1163
  837TIP3   OH224001   0.635   3.421  15.695  0.6751  0.0127  0.0394
  837TIP3    H124002   0.699   3.381  15.754  0.3759 -1.4261 -0.5712
  837TIP3    H224003   0.590   3.486  15.749  1.4282 -0.2167  0.9744
  838TIP3   OH224004   1.746   1.058  13.229 -0.7080  0.4556 -0.5511
  838TIP3    H124005   1.768   1.076  13.138 -0.1548 -2.5763 -1.1118
  838TIP3    H224006   1.652   1.076  13.235 -0.4714  2.1018 -1.2709
  839TIP3   OH224007   3.566   2.041  16.465  0.4165 -0.8969 -0.2027
  839TIP3    H124008   3.478   2.021  16.433  1.2000  0.0436 -3.3033
  839TIP3    H224009   3.599   1.958  16.499 -1.8945 -1.0781  1.8617
  840TIP3   OH224010   1.281   1.372   0.892  0.1557 -0.1126  0.7047
  840TIP3    H124011   1.247   1.417   0.969  0.3631  0.4106  0.4908
  840TIP3    H224012   1.356   1.322   0.924  0.5664  0.5258  0.7389
  841TIP3   OH224013   5.450   4.636   3.105 -0.4737  0.3127 -0.2867
  841TIP3    H124014   5.388   4.564   3.118  0.2940  0.0497  2.8603
  841TIP3    H224015   5.536   4.596   3.120  0.2399  1.2943 -1.5494
  842TIP3   OH224016   6.662   3.187  14.245 -0.1053 -0.2374 -0.7122
  842TIP3    H124017   6.742   3.151  14.282  0.0058 -0.5699 -1.2650
  842TIP3    H224018   6.687   3.220  14.158 -0.0511  1.8183  0.0335
  843TIP3   OH224019   2.382   2.138  12.937 -0.0893  0.7518  0.5390
  843TIP3    H124020   2.289   2.128  12.917 -0.6499  2.0283  2.2236
  843TIP3    H224021   2.394   2.092  13.021  1.3198 -1.2500 -0.6691
  844TIP3   OH224022   6.736   6.367   2.433 -0.6066 -0.1747 -0.2046
  844TIP3    H124023   6.729   6.329   2.520 -0.8496 -0.3068 -0.2789
  844TIP3    H224024   6.804   6.433   2.440  1.1306 -1.8582 -0.5284
  845TIP3   OH224025   2.640   2.843   4.814 -0.0130  0.8565  0.3651
  845TIP3    H124026   2.724   2.806   4.788  0.4038  2.2563 -0.4018
  845TIP3    H224027   2.611   2.892   4.737 -1.0301  1.2611  0.9800
  846TIP3   OH224028   3.382   1.784   0.248 -0.7982  0.2971  0.3152
  846TIP3    H124029   3.428   1.866   0.270  0.4535  0.4171 -2.3694
  846TIP3    H224030   3.326   1.807   0.174 -1.0739 -1.0917  0.0636
  847TIP3   OH224031   5.097   5.534   6.401  0.2103  0.5093 -0.0553
  847TIP3    H124032   5.105   5.546   6.495  0.0516  0.5614 -0.0490
  847TIP3    H224033   5.186   5.544   6.368 -0.0517  2.8203 -0.1812
  848TIP3   OH224034   1.630   1.383  14.899 -0.1889 -0.4519 -0.0399
  848TIP3    H124035   1.616   1.449  14.967 -0.7321 -1.2131  0.6074
  848TIP3    H224036   1.555   1.393  14.841  1.5262  1.9357 -2.0616
  849TIP3   OH224037   0.647   3.860  12.443  0.2237  0.1968 -0.8533
  849TIP3    H124038   0.732   3.858  12.486  0.1325 -0.9970 -0.6843
  849TIP3    H224039   0.667   3.846  12.350  0.2483  0.4765 -0.8911
  850TIP3   OH224040   1.486   1.689   2.849 -0.6085 -0.3592  0.6905
  850TIP3    H124041   1.419   1.729   2.906 -0.7068 -0.2939  0.5311
  850TIP3    H224042   1.541   1.763   2.822  0.4748 -0.6212  2.0590
  851TIP3   OH224043   6.463   4.669   2.292  0.4594  0.0402  0.4078
  851TIP3    H124044   6.475   4.752   2.339  1.1264  0.4494 -0.4445
  851TIP3    H224045   6.368   4.658   2.287  0.2915  1.5530 -0.7849
  852TIP3   OH224046   3.408   0.804  13.356  0.2890 -0.1537  0.2355
  852TIP3    H124047   3.498   0.837  13.349  0.1470  0.9487  2.4646
  852TIP3    H224048   3.419   0.712  13.382  0.7646 -0.1143  0.1971
  853TIP3   OH224049   3.697   0.200   1.897  0.2948  0.2052 -0.4943
  853TIP3    H124050   3.703   0.212   1.803 -2.6352  2.5601 -0.5325
  853TIP3    H224051   3.775   0.243   1.932  0.7158  0.5150 -1.7633
  854TIP3   OH224052   4.009   1.870   4.372 -0.0918 -0.6932 -0.2072
  854TIP3    H124053   4.060   1.951   4.367  1.1368 -1.2303  2.0355
  854TIP3    H224054   4.065   1.804   4.332  0.3048 -0.9680  0.7561
  855TIP3   OH224055   0.844   3.726  12.217 -0.4498 -0.0575 -0.7635
  855TIP3    H124056   0.816   3.654  12.161  1.8515 -1.4079 -0.3294
  855TIP3    H224057   0.901   3.779  12.162 -1.4164  0.9568 -0.8182
  856TIP3   OH224058   3.711   4.155  13.717 -0.2433  0.5457 -0.1340
  856TIP3    H124059   3.720   4.064  13.692 -3.1229  0.4836 -1.4040
  856TIP3    H224060   3.792   4.176  13.764  0.6334 -2.5192 -0.0837
  857TIP3   OH224061   2.241   3.771   6.276  0.2765  0.1540 -0.2269
  857TIP3    H124062   2.277   3.752   6.363  0.6076 -0.0033 -0.3977
  857TIP3    H224063   2.169   3.708   6.266  0.4443 -0.0433 -0.1979
  858TIP3   OH224064   4.018   4.810  13.407  0.3470 -0.4835  0.8276
  858TIP3    H124065   4.016   4.723  13.449  0.2142 -1.1539 -0.5118
  858TIP3    H224066   4.071   4.797  13.328  0.7978  0.8053  0.8906
  859TIP3   OH224067   6.087   0.229  16.134  0.1508  0.1048  0.3973
  859TIP3    H124068   6.086   0.324  16.148 -1.2037 -0.0884  1.9917
  859TIP3    H224069   6.082   0.192  16.223  4.2053 -1.5578  0.1401
  860TIP3   OH224070   2.427   3.634  11.869 -0.0176  0.3029 -0.2573
  860TIP3    H124071   2.470   3.558  11.829 -0.8290 -0.4447  0.2576
  860TIP3    H224072   2.440   3.705  11.806 -0.7864 -0.7029 -1.5879
  861TIP3   OH224073   5.196   2.497  14.880  0.3900  0.7647 -0.6576
  861TIP3    H124074   5.120   2.535  14.836 -1.3795 -0.9944  0.6914
  861TIP3    H224075   5.179   2.509  14.973  1.0920 -0.8369 -0.2752
  862TIP3   OH224076   0.792   4.538   1.838  0.2247  0.0391 -0.3863
  862TIP3    H124077   0.707   4.553   1.796  0.0578  1.0197  0.2558
  862TIP3    H224078   0.772   4.532   1.932  0.8679  0.4273 -0.2151
  863TIP3   OH224079   4.759   2.185  15.203 -0.5769  0.1684 -0.1164
  863TIP3    H124080   4.668   2.212  15.187 -0.7288 -0.7577 -0.8629
  863TIP3    H224081   4.791   2.155  15.118  0.2839  0.0552  0.2387
  864TIP3   OH224082   4.395   5.361   6.004  0.2391  0.2377 -0.3521
  864TIP3    H124083   4.407   5.273   5.967  0.8151  0.8622 -1.6944
  864TIP3    H224084   4.484   5.395   6.013 -0.0238  0.9971 -0.6169
  865TIP3   OH224085   4.229   6.296   3.811 -0.0398 -0.2806 -0.1950
  865TIP3    H124086   4.136   6.300   3.835  0.3639 -1.7325  1.8784
  865TIP3    H224087   4.272   6.356   3.872  0.6194 -1.4593  0.5483
  866TIP3   OH224088   4.158   2.110   4.269  0.3422 -0.0467  0.3905
  866TIP3    H124089   4.116   2.049   4.208 -0.3950 -2.0411  2.7209
  866TIP3    H224090   4.128   2.197   4.240 -0.0006 -0.8779 -1.9852
  867TIP3   OH224091   3.733   4.669   0.020 -0.4756 -0.1327  0.3013
  867TIP3    H124092   3.663   4.699  -0.039 -0.7860 -1.1050  0.1631
  867TIP3    H224093   3.811   4.665  -0.035 -0.7538 -0.9904 -0.0506
  868TIP3   OH224094   4.240   4.806  15.803  0.4015 -0.2962 -0.0027
  868TIP3    H124095   4.298   4.839  15.872  0.3663 -1.4302  0.5770
  868TIP3    H224096   4.162   4.775  15.849  0.0387 -0.3420 -0.6308
  869TIP3   OH224097   2.787   1.378   5.102  0.1184 -0.3555  0.8768
  869TIP3    H124098   2.837   1.409   5.026  0.3850 -1.4651  0.5931
  869TIP3    H224099   2.760   1.289   5.080 -0.9278 -0.2305  1.5496
  870TIP3   OH224100   5.998   3.537   1.195  0.6301 -0.5635  0.5443
  870TIP3    H124101   5.966   3.616   1.153  1.0844  0.1897  1.5685
  870TIP3    H224102   6.004   3.473   1.124 -4.1943 -1.2165  0.3854
  871TIP3   OH224103   3.460   6.811  11.944  0.3837  0.1948  0.3671
  871TIP3    H124104   3.387   6.764  11.905  1.0158  0.2407 -0.9129
  871TIP3    H224105   3.515   6.836  11.870  0.0934  2.9418  0.9793
  872TIP3   OH224106   6.812   0.150  17.148 -0.1725 -0.4652  0.3416
  872TIP3    H124107   6.860   0.070  17.168  0.7721 -0.2005 -0.7752
  872TIP3    H224108   6.848   0.215  17.209  0.9150 -0.2668 -0.4935
  873TIP3   OH224109   6.342   1.543  17.016  0.0375 -0.0962 -0.1419
  873TIP3    H124110   6.291   1.464  17.033  0.4180 -0.0684  1.1939
  873TIP3    H224111   6.383   1.565  17.100  0.9083  0.8348 -0.7793
  874TIP3   OH224112   0.070   1.000  13.823 -0.6630 -0.2074  0.0921
  874TIP3    H124113   0.001   0.989  13.889 -0.2200 -0.8498  0.4534
  874TIP3    H224114   0.091   0.911  13.795  0.3415 -0.0474  0.3184
  875TIP3   OH224115   2.218   4.644   4.298  0.2065  0.1769 -0.0629
  875TIP3    H124116   2.169   4.683   4.226  0.4396 -0.0353 -0.3361
  875TIP3    H224117   2.275   4.713   4.329 -0.5832  0.5675  0.5514
  876TIP3   OH224118   1.557   0.513  10.624  0.3995  0.1910  0.8694
  876TIP3    H124119   1.523   0.426  10.603 -0.0511  0.7390 -0.9022
  876TIP3    H224120   1.621   0.530  10.555 -0.6719  1.8780  0.2280
  877TIP3   OH224121   3.607   2.310   3.308 -0.0308 -0.0485  0.5159
  877TIP3    H124122   3.631   2.394   3.347  0.2719  1.2761 -2.3203
  877TIP3    H224123   3.536   2.331   3.247 -0.2912 -1.9488  0.1083
  878TIP3   OH224124   1.451   1.738  16.810  0.0867  0.1045  0.2041
  878TIP3    H124125   1.460   1.818  16.861  0.1227  0.0198  0.3310
  878TIP3    H224126   1.526   1.739  16.751 -0.5139  0.7216 -0.5705
  879TIP3   OH224127   0.757   4.992  11.805  0.5049 -0.3140 -0.2982
  879TIP3    H124128   0.845   4.955  11.805  0.6414  0.0133 -0.3529
  879TIP3    H224129   0.701   4.919  11.778  0.8338 -0.3421 -0.9292
  880TIP3   OH224130   4.686   6.662   2.787 -0.0491  0.4813  0.9317
  880TIP3    H124131   4.632   6.682   2.864 -0.5193 -1.7667  1.2715
  880TIP3    H224132   4.767   6.625   2.823  0.4926  1.0726  0.3568
  881TIP3   OH224133   4.547   1.642   5.937 -0.7718 -0.1223 -0.9538
  881TIP3    H124134   4.529   1.733   5.914 -1.2816  0.0278 -0.0204
  881TIP3    H224135   4.551   1.642   6.033 -1.2871 -1.1697 -0.9205
  882TIP3   OH224136   1.573   4.087   3.706 -0.1512 -0.1545 -0.4456
  882TIP3    H124137   1.642   4.023   3.687 -0.2733 -0.4783  0.1527
  882TIP3    H224138   1.571   4.144   3.630  0.4110 -0.4717 -0.7055
  883TIP3   OH224139   4.327   0.946   0.591 -0.1128  0.1556  0.1486
  883TIP3    H124140   4.333   0.969   0.499  0.6503  3.4543  0.9032
  883TIP3    H224141   4.368   0.860   0.597  0.7993  0.3367 -2.4049
  884TIP3   OH224142   1.553   4.039   5.011 -0.1979  0.2206 -0.7060
  884TIP3    H124143   1.511   4.026   5.095 -2.2626  1.1214 -1.5189
  884TIP3    H224144   1.609   4.116   5.024  0.2010 -0.1900  0.0568
  885TIP3   OH224145   1.901   4.612  13.526 -0.2170  0.0987  0.3552
  885TIP3    H124146   1.948   4.692  13.550  0.5649 -0.1633 -0.2321
  885TIP3    H224147   1.849   4.590  13.603 -0.7685  1.4016  0.3805
  886TIP3   OH224148   6.493   2.555  14.982 -0.6706  0.0473  0.2281
  886TIP3    H124149   6.571   2.517  14.942 -0.0088  0.2241  1.3200
  886TIP3    H224150   6.496   2.648  14.957 -1.4959 -0.2604 -1.1852
  887TIP3   OH224151   1.332   4.401   2.231 -0.4015 -0.0447 -0.2793
  887TIP3    H124152   1.288   4.452   2.164  0.7712  2.1315  0.4910
  887TIP3    H224153   1.421   4.436   2.234  0.3228 -1.7934  0.7004
  888TIP3   OH224154   0.186   3.137  11.752 -0.4853 -0.5764  0.0293
  888TIP3    H124155   0.092   3.122  11.750 -0.4602 -0.7562  0.1716
  888TIP3    H224156   0.223   3.062  11.705 -0.2601 -1.8078  2.0466
  889TIP3   OH224157   3.086   4.851   0.899  0.0936 -0.1180  0.0069
  889TIP3    H124158   3.181   4.853   0.916  0.7430  1.0913 -3.0364
  889TIP3    H224159   3.051   4.923   0.951  0.8367 -0.4897  1.0658
  890TIP3   OH224160   4.933   4.816   1.241 -0.2452  0.4426 -0.6140
  890TIP3    H124161   4.980   4.799   1.323  0.7879  1.6166 -0.9274
  890TIP3    H224162   4.864   4.750   1.239  0.3305 -0.2470  0.7121
  891TIP3   OH224163   2.796   2.448  10.735  0.0116 -0.0006  1.0038
  891TIP3    H124164   2.797   2.513  10.664  4.4567  0.4505  1.2296
  891TIP3    H224165   2.812   2.365  10.691 -1.0418 -0.3081  1.1743
  892TIP3   OH224166   2.132   2.704  16.230 -0.5841 -0.3688 -0.0409
  892TIP3    H124167   2.077   2.720  16.307  0.6113  0.6937  0.6287
  892TIP3    H224168   2.087   2.747  16.158 -0.6320  0.5067  0.5042
  893TIP3   OH224169   5.596   4.357   3.804  0.1345  0.4252  0.3402
  893TIP3    H124170   5.663   4.292   3.780 -0.0270  0.8882 -1.5491
  893TIP3    H224171   5.635   4.441   3.782 -0.5770  0.7946  0.4562
  894TIP3   OH224172   4.369   4.718  14.067 -0.5200 -0.2319  0.0899
  894TIP3    H124173   4.285   4.671  14.065 -0.0108 -1.1406 -0.4958
  894TIP3    H224174   4.425   4.664  14.122  0.4351 -0.9806 -1.5397
  895TIP3   OH224175   5.633   0.017  11.360 -0.0687  0.2089 -0.5949
  895TIP3    H124176   5.595   0.025  11.272  0.1125 -1.7741 -0.8896
  895TIP3    H224177   5.708  -0.041  11.348 -0.2387 -0.3645  0.9290
  896TIP3   OH224178   1.466   1.735  17.117 -0.3732 -0.2136  0.1769
  896TIP3    H124179   1.528   1.733  17.190 -0.8296  0.7559  0.6129
  896TIP3    H224180   1.472   1.824  17.084 -1.6465 -0.0572  0.3298
  897TIP3   OH224181   4.964   0.268   2.308  0.1414  0.5078  0.2111
  897TIP3    H124182   4.884   0.244   2.261 -0.6786  4.0129 -0.4689
  897TIP3    H224183   5.031   0.269   2.240  0.3747 -0.5298  0.4073
  898TIP3   OH224184   2.880   4.050   3.573  0.2441  0.1692  0.4897
  898TIP3    H124185   2.809   4.067   3.636  1.6196  1.6806  1.7251
  898TIP3    H224186   2.860   4.109   3.499 -0.4198 -0.3009  0.2857
  899TIP3   OH224187   0.151   6.228  14.134 -0.4762 -0.2232  0.0003
  899TIP3    H124188   0.158   6.207  14.227  0.0174  0.2444  0.0729
  899TIP3    H224189   0.137   6.322  14.132  1.7639  0.1641 -0.4535
  900TIP3   OH224190   2.929   0.236   1.565  0.0655  0.2572 -0.5794
  900TIP3    H124191   3.004   0.264   1.514 -0.7594 -0.6169 -2.3603
  900TIP3    H224192   2.932   0.140   1.562 -0.5586  0.2016  0.1967
  901TIP3   OH224193   3.998   2.647  16.528 -0.0772 -0.0604 -0.0466
  901TIP3    H124194   4.093   2.639  16.532 -0.0733  0.2130  0.7270
  901TIP3    H224195   3.978   2.720  16.587 -1.0071 -2.3888  2.8113
  902TIP3   OH224196   2.018   4.682   2.728 -0.3983 -0.0987 -0.4084
  902TIP3    H124197   1.924   4.669   2.716 -0.5732  0.6856  0.0710
  902TIP3    H224198   2.026   4.725   2.813  0.4287 -0.5450 -0.2419
  903TIP3   OH224199   1.486   4.636  16.275  0.3436  0.1653 -0.1072
  903TIP3    H124200   1.429   4.565  16.245 -1.1806  0.7668  1.2223
  903TIP3    H224201   1.573   4.613  16.242 -0.2530 -1.9180 -0.3429
  904TIP3   OH224202   6.426   3.579   3.524 -0.0456 -0.5430 -0.3547
  904TIP3    H124203   6.367   3.620   3.587  1.0508 -0.5034  0.6720
  904TIP3    H224204   6.376   3.578   3.442 -1.0279  0.5442  0.2006
  905TIP3   OH224205   2.365   4.781  11.660  0.3810  0.3030  0.2407
  905TIP3    H124206   2.307   4.803  11.587  0.5526 -1.3836 -0.4603
  905TIP3    H224207   2.323   4.820  11.737 -0.3947  1.1665 -0.5998
  906TIP3   OH224208   2.773   1.246   3.471  0.6766 -0.1183  0.2110
  906TIP3    H124209   2.705   1.307   3.497  0.0705  0.0247 -1.5545
  906TIP3    H224210   2.761   1.235   3.376  0.3581 -3.4654  0.5025
  907TIP3   OH224211   1.529   0.785   0.902  0.9615  0.4006  0.1088
  907TIP3    H124212   1.455   0.827   0.945  0.2102 -1.1425  0.4066
  907TIP3    H224213   1.602   0.845   0.914  0.6308  0.3537  3.0044
  908TIP3   OH224214   4.583   1.264   2.506  0.2279  0.3405  0.2177
  908TIP3    H124215   4.495   1.286   2.534  0.4090  0.5850  0.6105
  908TIP3    H224216   4.640   1.298   2.576  0.5476 -1.2443  0.7770
  909TIP3   OH224217   2.270   1.010   4.731  0.4408  0.1414 -0.1819
  909TIP3    H124218   2.256   1.053   4.815  0.2931  0.2105 -0.2416
  909TIP3    H224219   2.207   1.052   4.672 -0.5821 -1.0296  0.0473
  910TIP3   OH224220   2.968   1.544   4.321  0.4935  0.1411 -0.0954
  910TIP3    H124221   3.044   1.539   4.262 -0.8849  0.9132 -2.0300
  910TIP3    H224222   2.925   1.626   4.298 -0.5443  0.0751  1.4840
  911TIP3   OH224223   4.842   3.875   5.560 -0.3115 -0.5147 -0.1061
  911TIP3    H124224   4.829   3.961   5.521 -2.1983 -1.6426 -2.1843
  911TIP3    H224225   4.774   3.868   5.627  0.2808 -0.1763  0.5522
  912TIP3   OH224226   1.670   3.044   1.920  0.0541  0.1446 -0.0303
  912TIP3    H124227   1.681   3.125   1.969  0.8176  0.8097 -1.2750
  912TIP3    H224228   1.610   3.067   1.849  0.3400 -0.3592 -0.4385
  913TIP3   OH224229   4.389   0.403   3.278 -0.3017 -0.4710  0.6034
  913TIP3    H124230   4.480   0.432   3.272  0.3098 -2.0403  1.6166
  913TIP3    H224231   4.370   0.404   3.372 -0.4787 -2.5575  0.6343
  914TIP3   OH224232   5.921   4.517   5.874  0.3721 -0.5160  0.6462
  914TIP3    H124233   5.922   4.427   5.841 -1.2356 -0.3734  0.1691
  914TIP3    H224234   5.848   4.520   5.935  0.7047  0.3607  1.0188
  915TIP3   OH224235   2.835   5.770  11.974  0.0808 -0.0350  0.7256
  915TIP3    H124236   2.744   5.798  11.963  0.0457  0.4070  1.9469
  915TIP3    H224237   2.887   5.844  11.942 -0.0121  0.6628  2.1086
  916TIP3   OH224238   6.761   5.712  15.809 -0.0594 -0.3111  0.0952
  916TIP3    H124239   6.698   5.640  15.816  0.4742 -0.9645 -1.3613
  916TIP3    H224240   6.749   5.763  15.889 -1.5024 -1.1706  0.4571
  917TIP3   OH224241   4.278   2.127  16.784 -0.2417  0.2741 -0.0646
  917TIP3    H124242   4.326   2.197  16.740 -0.7041 -1.1455 -3.0403
  917TIP3    H224243   4.192   2.127  16.744 -1.1767 -0.3123  1.8150
  918TIP3   OH224244   6.241   0.033  14.419 -0.3055 -0.3972  0.0726
  918TIP3    H124245   6.189   0.106  14.451  0.3398  0.1870 -0.1745
  918TIP3    H224246   6.285  -0.002  14.497 -2.7878 -2.3848  0.7089
  919TIP3   OH224247   4.173   3.714  13.210 -0.1265 -0.0801 -0.0136
  919TIP3    H124248   4.263   3.747  13.214  0.3880 -0.8572 -2.7226
  919TIP3    H224249   4.182   3.626  13.171 -2.0883  0.1873 -1.2003
  920TIP3   OH224250   5.718   2.522   1.298 -0.4760 -0.7479  0.1164
  920TIP3    H124251   5.703   2.560   1.385 -1.8641 -1.1542  0.0770
  920TIP3    H224252   5.794   2.465   1.309 -0.8425 -1.0575  1.1555
  921TIP3   OH224253   0.078   1.886   2.624 -0.3825  0.2997 -0.1854
  921TIP3    H124254   0.014   1.821   2.653  0.8453 -0.3656  1.1684
  921TIP3    H224255   0.107   1.854   2.538  0.2858 -1.0541  0.5034
  922TIP3   OH224256   3.441   6.678   3.891 -0.0623 -0.4033  0.2279
  922TIP3    H124257   3.346   6.663   3.891 -0.0321 -1.2913 -2.9817
  922TIP3    H224258   3.450   6.773   3.890 -1.0106 -0.2960 -0.7475
  923TIP3   OH224259   2.777   6.100   1.026 -0.1809  0.0843 -0.2751
  923TIP3    H124260   2.863   6.126   1.059 -0.4094  0.8966 -0.2893
  923TIP3    H224261   2.781   6.005   1.020  0.6212  0.0946 -0.0116
  924TIP3   OH224262   4.814   4.163  14.947 -0.9654 -0.2332  0.0416
  924TIP3    H124263   4.809   4.125  15.035  0.9156  1.3624  0.9297
  924TIP3    H224264   4.783   4.094  14.889 -2.1243 -1.3927  1.9380
  925TIP3   OH224265   2.558   1.102  15.350 -0.2835  0.8229 -0.5156
  925TIP3    H124266   2.594   1.181  15.391  2.1821  0.7380 -2.3183
  925TIP3    H224267   2.583   1.031  15.408 -0.0371  1.0894 -0.2937
  926TIP3   OH224268   3.652   5.857   0.004  0.2900  0.6061 -0.0912
  926TIP3    H124269   3.600   5.825  -0.070 -0.5163  0.8345  0.3747
  926TIP3    H224270   3.670   5.778   0.055  3.1756 -0.0784 -1.8776
  927TIP3   OH224271   1.014   0.871   2.156  0.0289  0.0218  0.1332
  927TIP3    H124272   1.027   0.873   2.061  1.7022 -0.9347  0.3045
  927TIP3    H224273   1.042   0.958   2.185  1.5132 -0.3461 -0.0745
  928TIP3   OH224274   4.197   2.264  15.546  0.4167 -0.1780  0.0279
  928TIP3    H124275   4.183   2.291  15.637  0.5151 -2.6334  0.8410
  928TIP3    H224276   4.109   2.242  15.515  0.5373 -0.5321 -0.0593
  929TIP3   OH224277   1.945   6.663  15.672 -0.1618 -0.2506 -0.5521
  929TIP3    H124278   2.026   6.686  15.718 -0.8793 -0.5644  0.9239
  929TIP3    H224279   1.975   6.621  15.591  1.1645 -1.1709  0.3666
  930TIP3   OH224280   0.226   3.923   3.444 -0.0196  0.2123  0.1407
  930TIP3    H124281   0.279   3.962   3.375 -1.5614 -1.3427 -2.0223
  930TIP3    H224282   0.145   3.975   3.445 -0.7748 -0.9142 -0.5760
  931TIP3   OH224283   3.487   5.360  15.897  0.1742 -0.0544  0.4941
  931TIP3    H124284   3.538   5.282  15.875 -0.7908 -0.2814 -1.1221
  931TIP3    H224285   3.551   5.432  15.896  0.3149 -0.0022 -3.4646
  932TIP3   OH224286   0.158   3.272  11.366 -0.2398  0.5464  0.0685
  932TIP3    H124287   0.176   3.363  11.345 -0.6852  1.0809  1.8175
  932TIP3    H224288   0.093   3.275  11.436 -1.5718 -1.1764 -0.9897
  933TIP3   OH224289   3.880   6.821   3.891 -0.7771 -0.6410 -0.2137
  933TIP3    H124290   3.897   6.788   3.803  0.5528 -1.9146  0.4888
  933TIP3    H224291   3.918   6.909   3.892  1.1496 -1.4392 -0.2945
  934TIP3   OH224292   0.444   4.082   3.290  0.1831  0.2591  0.0074
  934TIP3    H124293   0.440   4.101   3.384  0.3499 -0.5391  0.1806
  934TIP3    H224294   0.534   4.056   3.274  0.2244  0.6633 -0.4334
  935TIP3   OH224295   3.689   6.502  13.076  0.3107  0.1821 -0.2268
  935TIP3    H124296   3.631   6.459  13.014  0.1897  0.7187 -0.4960
  935TIP3    H224297   3.630   6.550  13.135  0.3779 -0.9267  0.7887
  936TIP3   OH224298   2.653   1.442  14.143  0.1197  0.4993 -0.4468
  936TIP3    H124299   2.572   1.493  14.145 -0.8033 -0.7867 -2.1476
  936TIP3    H224300   2.695   1.459  14.228 -1.3427  2.1119 -0.0012
  937TIP3   OH224301   4.671   5.052  12.797  0.5024  0.1300  0.0546
  937TIP3    H124302   4.693   5.016  12.882  1.2375 -1.2403 -0.6908
  937TIP3    H224303   4.737   5.017  12.737 -0.0883  0.9287 -1.1147
  938TIP3   OH224304   1.657   4.442  16.635  0.1180 -0.3336  0.6497
  938TIP3    H124305   1.631   4.437  16.543  0.4816 -1.1808  0.5846
  938TIP3    H224306   1.725   4.376  16.644  0.4552  0.1038  1.4113
  939TIP3   OH224307   1.674   1.128   0.490  0.8875 -0.4317 -0.1108
  939TIP3    H124308   1.585   1.111   0.458  0.8572 -0.0348 -0.2374
  939TIP3    H224309   1.730   1.105   0.416  1.0624 -2.8554  0.6818
  940TIP3   OH224310   0.725   2.639  16.637 -0.2308 -0.2396  0.0650
  940TIP3    H124311   0.640   2.602  16.614 -1.2417  1.0346  1.6187
  940TIP3    H224312   0.720   2.730  16.607 -0.0266  0.2804  1.5696
  941TIP3   OH224313   4.930   5.491  14.675 -0.2736 -0.0682  0.3014
  941TIP3    H124314   4.917   5.438  14.753 -1.6316  0.7091  0.6299
  941TIP3    H224315   4.907   5.580  14.702  0.6585  0.4713 -0.5996
  942TIP3   OH224316   2.746   6.352  12.571 -0.1516 -0.0453 -0.0926
  942TIP3    H124317   2.654   6.356  12.599 -0.7744  0.3908 -2.0267
  942TIP3    H224318   2.745   6.293  12.496  1.3655 -0.8823  0.5064
  943TIP3   OH224319   1.071   0.482  11.355  0.4973  0.6196  0.3638
  943TIP3    H124320   1.037   0.401  11.317  2.1458  0.1999 -0.3166
  943TIP3    H224321   0.999   0.545  11.348  0.2542  0.1427 -2.1397
  944TIP3   OH224322   6.359   5.463  11.946  0.2353 -0.3288  0.9127
  944TIP3    H124323   6.412   5.541  11.961  0.9072 -0.3759 -0.9981
  944TIP3    H224324   6.269   5.490  11.965  0.3842  1.0873 -0.2233
  945TIP3   OH224325   2.020   2.844   6.339  0.5169 -0.4825  0.3313
  945TIP3    H124326   2.093   2.817   6.395  0.3215 -0.3926  0.6333
  945TIP3    H224327   2.022   2.940   6.342 -1.0664 -0.4443  2.2909
  946TIP3   OH224328   1.172   0.623  10.514 -0.4744  0.1437 -0.5720
  946TIP3    H124329   1.207   0.620  10.603  0.0768 -1.6171 -0.8051
  946TIP3    H224330   1.189   0.712  10.484  0.5811  0.3533  0.5913
  947TIP3   OH224331   1.696   1.733  14.842  0.6425 -0.0583 -0.4307
  947TIP3    H124332   1.760   1.727  14.771 -0.5030 -0.7511 -1.4556
  947TIP3    H224333   1.614   1.703  14.802  0.1181 -1.1897  1.3884
  948TIP3   OH224334   4.267   3.154   1.947  0.2890 -0.2743 -0.6548
  948TIP3    H124335   4.241   3.114   1.864 -0.3039 -0.6122 -0.3151
  948TIP3    H224336   4.339   3.099   1.978 -0.5975 -1.1812 -0.1333
  949TIP3   OH224337   2.329   2.799   2.677  0.4280 -0.2995  0.7933
  949TIP3    H124338   2.397   2.733   2.667  0.2956 -0.9011  3.2261
  949TIP3    H224339   2.371   2.869   2.726 -1.1798 -1.8018  4.7395
  950TIP3   OH224340   2.456   3.819   1.616  0.2239  0.0837  0.5370
  950TIP3    H124341   2.419   3.786   1.697  3.3607 -0.4630  1.8938
  950TIP3    H224342   2.511   3.892   1.643  0.2155  0.8219 -1.3133
  951TIP3   OH224343   1.602   6.455   3.225 -0.4536 -0.3862  0.2344
  951TIP3    H124344   1.542   6.471   3.297 -0.7718 -0.0782 -0.0934
  951TIP3    H224345   1.550   6.470   3.146 -0.6343 -2.5648 -0.1019
  952TIP3   OH224346   6.337   4.633  12.615 -0.3543  0.0932 -0.4361
  952TIP3    H124347   6.404   4.570  12.591 -0.1515  0.0215  0.3036
  952TIP3    H224348   6.337   4.697  12.544  0.5985  0.1764 -0.3728
  953TIP3   OH224349   3.167   3.166   4.635  0.3841  0.5269 -0.5069
  953TIP3    H124350   3.247   3.189   4.682  0.8740  0.0281 -1.0716
  953TIP3    H224351   3.198   3.118   4.558 -0.5046 -0.5162 -0.2417
  954TIP3   OH224352   1.691   1.245  12.403  0.1304  0.0067  0.3243
  954TIP3    H124353   1.688   1.263  12.497  1.3241  0.7467  0.2470
  954TIP3    H224354   1.784   1.241  12.383 -0.1159 -0.7664 -0.7271
  955TIP3   OH224355   2.125   4.046   1.083 -0.2937  0.4427  0.0701
  955TIP3    H124356   2.100   3.957   1.056 -0.3256  0.6036 -0.4487
  955TIP3    H224357   2.051   4.076   1.136 -0.8302  0.5963 -0.7451
  956TIP3   OH224358   0.147   0.626  15.647 -0.4609  0.0141  0.3957
  956TIP3    H124359   0.099   0.662  15.572 -0.3713  0.7797  0.6899
  956TIP3    H224360   0.213   0.569  15.608 -1.0044 -0.3088 -0.0574
  957TIP3   OH224361   3.063   3.409  17.105 -0.9094 -0.3360 -0.3745
  957TIP3    H124362   3.073   3.483  17.165 -0.1207 -0.5072 -0.2875
  957TIP3    H224363   3.007   3.443  17.035 -2.3979 -0.3348  0.7628
  958TIP3   OH224364   5.261   0.301  14.124 -0.2117  0.0505 -0.2572
  958TIP3    H124365   5.209   0.235  14.077  0.4826  0.3943 -1.5660
  958TIP3    H224366   5.197   0.368  14.148 -0.6551 -0.3196 -0.3880
  959TIP3   OH224367   5.338   1.511   3.251 -0.0863  0.1016  0.4317
  959TIP3    H124368   5.410   1.513   3.189  0.1111 -0.1020  0.6498
  959TIP3    H224369   5.371   1.459   3.325 -0.7018 -0.6301  0.2158
  960TIP3   OH224370   0.147   3.640   5.072 -0.2099 -0.1039  0.0888
  960TIP3    H124371   0.115   3.552   5.093 -1.0478 -0.2166 -1.4517
  960TIP3    H224372   0.241   3.636   5.089 -0.3801 -1.0002  0.9309
  961TIP3   OH224373   1.678   5.802  13.700  0.0933 -1.2363 -0.5054
  961TIP3    H124374   1.633   5.788  13.784  0.2535 -1.0532 -0.3909
  961TIP3    H224375   1.608   5.799  13.635 -0.4205  1.2268 -0.1526
  962TIP3   OH224376   2.528   4.405  14.867  0.3703  0.6518 -0.2033
  962TIP3    H124377   2.437   4.377  14.867 -0.3573  2.8014 -1.3331
  962TIP3    H224378   2.544   4.435  14.956 -0.4389  1.4536 -0.3181
  963TIP3   OH224379   1.395   4.060   5.387 -0.1084 -0.7153 -0.5504
  963TIP3    H124380   1.457   3.997   5.423  1.6104 -0.1638 -2.3502
  963TIP3    H224381   1.450   4.134   5.359 -1.6481  0.0219 -1.7443
  964TIP3   OH224382   0.771   4.988   2.751  0.5993 -0.1732  0.2389
  964TIP3    H124383   0.682   5.010   2.725 -0.8379 -0.2869  4.4042
  964TIP3    H224384   0.779   4.894   2.734  0.5348  0.0818 -1.4358
  965TIP3   OH224385   0.598   3.230  14.125  0.5234 -0.0642 -0.1166
  965TIP3    H124386   0.519   3.213  14.073  0.8765 -1.1548 -0.3199
  965TIP3    H224387   0.577   3.309  14.175 -0.7363 -0.3993 -0.0792
  966TIP3   OH224388   1.565   3.385  16.137  0.1492  0.1271 -0.5645
  966TIP3    H124389   1.492   3.330  16.163  0.1332  0.4452  0.1009
  966TIP3    H224390   1.555   3.465  16.190  1.0835  0.0927 -0.3129
  967TIP3   OH224391   4.417   5.721  11.483  0.0655 -0.6238  0.1077
  967TIP3    H124392   4.444   5.710  11.392  0.6928  1.0941  0.0508
  967TIP3    H224393   4.352   5.791  11.480  0.2061 -0.4467  0.9977
  968TIP3   OH224394   5.957   6.256   5.205 -0.3064 -0.8756  0.0673
  968TIP3    H124395   6.025   6.322   5.211 -1.1721  0.0988 -0.4964
  968TIP3    H224396   5.947   6.223   5.295 -0.0905 -0.0008  0.4229
  969TIP3   OH224397   5.987   5.224   2.323 -0.0585  0.5070 -0.2839
  969TIP3    H124398   5.944   5.288   2.380  1.6124  1.1264  0.3180
  969TIP3    H224399   6.022   5.275   2.251  0.6240  0.1851 -0.1922
  970TIP3   OH224400   5.889   5.174   2.007  0.0868 -0.1119  0.1260
  970TIP3    H124401   5.917   5.254   2.051  1.6297  0.7007 -2.1551
  970TIP3    H224402   5.964   5.115   2.016 -0.4081 -0.7150  0.3598
  971TIP3   OH224403   1.444   5.995   0.185  0.3969 -0.4295  0.5575
  971TIP3    H124404   1.465   6.033   0.100 -1.0167  0.3246  0.5189
  971TIP3    H224405   1.385   5.922   0.165  0.9114 -0.9264  0.8275
  972TIP3   OH224406   4.126   1.419   0.819 -0.6888 -0.3464  0.0212
  972TIP3    H124407   4.135   1.507   0.782 -0.5599  0.4998  1.9724
  972TIP3    H224408   4.195   1.369   0.776  0.3029  0.9423  0.0434
  973TIP3   OH224409   1.094   2.329  11.093 -0.9994 -0.1107  0.1577
  973TIP3    H124410   1.129   2.418  11.098 -0.4244 -0.1565 -1.9416
  973TIP3    H224411   1.024   2.334  11.029  0.3692 -1.5075 -1.5446
  974TIP3   OH224412   1.203   6.404   1.227  0.2090 -0.0025 -0.1544
  974TIP3    H124413   1.167   6.483   1.187  0.1344 -0.1453 -0.3779
  974TIP3    H224414   1.292   6.428   1.252 -0.6156  0.9099  2.0942
  975TIP3   OH224415   0.530   5.960  16.505 -0.2035 -0.0791  0.8768
  975TIP3    H124416   0.518   5.943  16.599  3.2633  0.0670  1.4769
  975TIP3    H224417   0.520   6.054  16.496 -0.8603 -0.1307  1.0288
  976TIP3   OH224418   0.904   5.623  10.756  0.1456 -0.2220 -0.2468
  976TIP3    H124419   0.988   5.604  10.715  0.0953  2.1681 -1.6703
  976TIP3    H224420   0.921   5.700  10.811 -0.6508 -1.0895  1.2844
  977TIP3   OH224421   0.596   5.909  16.757  0.0591 -0.0187 -0.4591
  977TIP3    H124422   0.606   5.898  16.852 -2.6737  0.3281 -0.0382
  977TIP3    H224423   0.635   5.994  16.738  0.4492  0.0045  0.4001
  978TIP3   OH224424   5.116   2.484  16.314 -0.6177 -0.5535  0.0613
  978TIP3    H124425   5.196   2.474  16.366  0.9813 -0.3815 -2.2145
  978TIP3    H224426   5.054   2.528  16.372 -0.1739 -3.3692  2.9271
  979TIP3   OH224427   2.753   4.029  15.718 -0.1826 -0.6312  0.4534
  979TIP3    H124428   2.831   4.030  15.662  0.2622 -0.7269  1.0658
  979TIP3    H224429   2.711   4.114  15.702  0.0650 -0.5638  0.1525
  980TIP3   OH224430   1.493   1.496   3.073 -0.2285  0.5681  0.3373
  980TIP3    H124431   1.513   1.497   3.166 -2.2344 -0.0591  0.8323
  980TIP3    H224432   1.522   1.581   3.041  1.4002  0.4096  1.2937
  981TIP3   OH224433   4.718   5.983  17.076  0.3484 -0.3500 -0.0408
  981TIP3    H124434   4.629   5.949  17.070 -0.1352  0.7930  0.3150
  981TIP3    H224435   4.715   6.046  17.147  1.1698  0.4999 -0.7275
  982TIP3   OH224436   5.632   2.049  11.673  0.7942  0.3451  0.1210
  982TIP3    H124437   5.714   2.004  11.651  0.3642 -1.0736  1.2600
  982TIP3    H224438   5.593   1.995  11.741 -0.1892  2.0261  0.9523
  983TIP3   OH224439   0.984   1.293  13.231 -0.4165  0.0820 -0.3795
  983TIP3    H124440   1.069   1.250  13.237 -0.5513 -0.2617 -0.8607
  983TIP3    H224441   0.920   1.223  13.245 -0.6590  0.7853  3.0149
  984TIP3   OH224442   1.763   5.529  14.228 -0.3295 -0.1098 -0.3414
  984TIP3    H124443   1.721   5.466  14.287  0.1865  0.7353  0.9733
  984TIP3    H224444   1.851   5.495  14.216 -0.5621 -0.5024 -0.9853
  985TIP3   OH224445   3.179   0.012  10.749 -0.1524 -0.3580  0.6243
  985TIP3    H124446   3.206   0.102  10.769 -1.1501 -0.2180  1.4185
  985TIP3    H224447   3.261  -0.036  10.742  0.3784  0.4955  0.7718
  986TIP3   OH224448   1.610   3.070  13.444 -0.9663  0.3417 -0.9541
  986TIP3    H124449   1.567   2.985  13.432  0.9995 -0.6434 -1.3547
  986TIP3    H224450   1.599   3.090  13.537 -0.9035 -0.6580 -0.7241
  987TIP3   OH224451   1.590   2.792   2.461  0.1921  0.5633 -0.9342
  987TIP3    H124452   1.577   2.869   2.406 -1.6153  1.4861  0.6559
  987TIP3    H224453   1.644   2.823   2.534  0.0422  0.1473 -0.6392
  988TIP3   OH224454   6.806   3.593   2.682  0.0578 -0.1916  0.6218
  988TIP3    H124455   6.821   3.649   2.606  0.0503 -0.9352  0.0663
  988TIP3    H224456   6.754   3.520   2.649 -0.5861 -0.1480  1.5035
  989TIP3   OH224457   5.114   4.591  11.034  0.2655 -0.3827  0.0949
  989TIP3    H124458   5.090   4.505  11.002  0.9219 -1.6020  2.6222
  989TIP3    H224459   5.048   4.612  11.100 -0.9424  1.9284 -1.6860
  990TIP3   OH224460   5.332   2.127  16.611  0.6375  0.5782 -0.3979
  990TIP3    H124461   5.336   2.044  16.660 -0.9506  0.2839 -0.6976
  990TIP3    H224462   5.370   2.106  16.526 -0.9751 -0.2668 -0.9617
  991TIP3   OH224463   6.222   4.698  14.875 -0.6836 -0.0924  0.4302
  991TIP3    H124464   6.300   4.683  14.823  0.1850  1.0586  1.3364
  991TIP3    H224465   6.194   4.611  14.903  0.1737 -0.5293 -0.0352
  992TIP3   OH224466   4.504   6.386   6.015 -0.0039 -0.8106 -0.1079
  992TIP3    H124467   4.540   6.471   5.992 -0.8610 -0.4740 -0.2314
  992TIP3    H224468   4.459   6.356   5.936 -0.7335 -0.8311  0.3068
  993TIP3   OH224469   5.329   1.234   4.624 -0.5533  0.0741 -0.2143
  993TIP3    H124470   5.294   1.179   4.554  0.6248  0.8599 -1.4809
  993TIP3    H224471   5.301   1.323   4.601  0.5818  0.4568 -0.1871
  994TIP3   OH224472   5.942   2.816   5.174 -0.9281  0.4728  0.0435
  994TIP3    H124473   5.901   2.776   5.251  2.8104 -1.0346  1.5012
  994TIP3    H224474   5.940   2.747   5.107 -3.2417  1.4300 -0.9777
  995TIP3   OH224475   0.091   1.822   4.146  0.2715 -0.6084 -0.0875
  995TIP3    H124476   0.109   1.915   4.158  0.9333 -0.7841  0.2742
  995TIP3    H224477   0.091   1.810   4.051 -0.8567 -0.0404 -0.1802
  996TIP3   OH224478   1.969   0.695   0.236  0.3364 -0.4161  0.4151
  996TIP3    H124479   1.968   0.786   0.267 -3.1499  0.5171 -1.8062
  996TIP3    H224480   1.967   0.702   0.141 -0.9277 -2.7632  0.1835
  997TIP3   OH224481   6.702   1.147  11.637  0.4773  0.0835 -0.2139
  997TIP3    H124482   6.690   1.148  11.732  2.0563 -1.0780  0.0418
  997TIP3    H224483   6.795   1.127  11.625 -0.0846 -1.8953 -1.9950
  998TIP3   OH224484   3.505   1.796   1.334 -0.0574 -0.1355  0.2699
  998TIP3    H124485   3.446   1.739   1.286  0.2073 -0.4092  0.2664
  998TIP3    H224486   3.483   1.884   1.305 -0.6073 -0.2170  0.4284
  999TIP3   OH224487   5.984   4.082  15.947  0.0402  0.2883 -0.1217
  999TIP3    H124488   6.018   4.007  15.996  2.2570  1.1584 -0.2027
  999TIP3    H224489   5.889   4.069  15.944  0.3315 -2.2717  0.2165
 1000TIP3   OH224490   6.799   6.796  14.035  0.1937 -0.1676 -0.5707
 1000TIP3    H124491   6.797   6.892  14.034 -0.3565 -0.1508 -2.2833
 1000TIP3    H224492   6.854   6.773  13.960  2.0191 -1.2198  0.9965
 1001TIP3   OH224493   6.419   3.913  12.603 -0.1647 -0.1680  0.0546
 1001TIP3    H124494   6.368   3.981  12.558  1.6595  0.5519 -1.0213
 1001TIP3    H224495   6.510   3.931  12.579  0.6592 -1.2259  2.1391
 1002TIP3   OH224496   1.437   5.035   1.555 -0.7505 -0.2632 -0.0933
 1002TIP3    H124497   1.390   5.012   1.636  0.2351  1.2494  0.9658
 1002TIP3    H224498   1.430   5.131   1.550  0.1899 -0.2332 -1.1920
 1003TIP3   OH224499   2.130   5.391   0.360 -0.7679  0.3627 -0.5033
 1003TIP3    H124500   2.043   5.370   0.327 -1.4007 -1.2884  1.9443
 1003TIP3    H224501   2.187   5.323   0.323 -0.8530  0.3826 -0.6718
 1004TIP3   OH224502   1.893   5.105   4.914 -0.0229 -0.2161 -0.0253
 1004TIP3    H124503   1.904   5.096   4.820  2.1549  1.0737  0.0277
 1004TIP3    H224504   1.969   5.059   4.951  0.5930  1.5077  0.9498
 1005TIP3   OH224505   6.039   1.018  13.701 -0.5098 -0.1025 -0.7261
 1005TIP3    H124506   6.115   1.056  13.657 -0.5861 -0.2538 -0.9910
 1005TIP3    H224507   6.077   0.965  13.772 -0.4275  1.0375  0.1179
 1006TIP3   OH224508   1.237   5.939  11.420 -0.3818 -0.1282  0.4154
 1006TIP3    H124509   1.300   5.920  11.350 -1.1097  1.0822 -0.5953
 1006TIP3    H224510   1.288   5.990  11.483  0.0503 -0.5091  0.3904
 1007TIP3   OH224511   0.354   6.688  13.415  0.1916  0.1205 -0.1491
 1007TIP3    H124512   0.378   6.654  13.501  2.6007 -0.2990 -0.9100
 1007TIP3    H224513   0.391   6.624  13.353 -1.5699  0.3431 -1.5402
 1008TIP3   OH224514   0.688   2.578   5.069  0.5598  0.3293 -0.6967
 1008TIP3    H124515   0.635   2.534   5.003  0.1970  0.2316 -0.3439
 1008TIP3    H224516   0.774   2.587   5.028  0.6386 -0.6908 -0.7901
 1009TIP3   OH224517   6.231   2.340   4.594  0.6964 -0.1859 -0.1165
 1009TIP3    H124518   6.241   2.296   4.509  2.6688  2.4776 -1.3965
 1009TIP3    H224519   6.320   2.346   4.629  0.2074  0.8230  1.0252
 1010TIP3   OH224520   4.478   3.607  12.632  0.5143 -0.0778  0.1788
 1010TIP3    H124521   4.515   3.674  12.575 -0.9570 -0.2668 -1.0457
 1010TIP3    H224522   4.425   3.552  12.574 -2.9000  1.0490  1.9751
 1011TIP3   OH224523   3.174   1.222   2.210  0.4246  0.1448 -0.6002
 1011TIP3    H124524   3.078   1.229   2.212  0.1744 -1.5540 -2.4363
 1011TIP3    H224525   3.193   1.186   2.123  2.5677 -1.4294  0.4153
 1012TIP3   OH224526   5.499   3.290   5.225  0.7686  0.3167  0.2439
 1012TIP3    H124527   5.488   3.194   5.229 -0.6118  0.3392 -1.5902
 1012TIP3    H224528   5.481   3.319   5.314 -1.0559 -0.9846  0.3708
 1013TIP3   OH224529   0.703   0.322  14.609  0.2061 -0.2679  0.2000
 1013TIP3    H124530   0.765   0.360  14.547 -0.7523 -1.2301 -1.4033
 1013TIP3    H224531   0.655   0.397  14.644 -0.2309  0.2012 -1.3331
 1014TIP3   OH224532   5.346   0.890  14.046 -0.3230 -0.0502 -0.0846
 1014TIP3    H124533   5.333   0.806  14.002  0.3342  0.3388 -1.0736
 1014TIP3    H224534   5.438   0.888  14.074  0.0389  0.7878 -1.1508
 1015TIP3   OH224535   5.379   6.205   5.472 -0.0364 -0.1125 -0.0460
 1015TIP3    H124536   5.426   6.123   5.455  0.3733  0.2458 -0.6540
 1015TIP3    H224537   5.317   6.182   5.542  1.6205 -0.3840  1.4191
 1016TIP3   OH224538   6.408   3.331  14.203 -0.2963  0.0225  0.3177
 1016TIP3    H124539   6.433   3.288  14.121  1.4775  0.8480  0.3810
 1016TIP3    H224540   6.450   3.279  14.271 -0.4016  0.2886  0.5874
 1017TIP3   OH224541   4.963   2.787   1.638  0.5296  0.4283  0.3323
 1017TIP3    H124542   5.042   2.747   1.676  0.3611  0.5627  0.8272
 1017TIP3    H224543   4.950   2.739   1.555  0.5243 -0.3206  0.7546
 1018TIP3   OH224544   4.715   3.107  13.837 -0.3195 -0.4250 -0.3109
 1018TIP3    H124545   4.731   3.143  13.924 -0.7621 -0.4858 -0.2036
 1018TIP3    H224546   4.697   3.015  13.852 -0.6295 -0.3876 -0.4389
 1019TIP3   OH224547   3.623   2.725  11.532  0.4401  0.4516  0.0992
 1019TIP3    H124548   3.717   2.732  11.516  0.4142  0.4463 -0.0588
 1019TIP3    H224549   3.607   2.631  11.539  0.2890  0.3925 -0.8649
 1020TIP3   OH224550   6.816   3.972   1.886  0.2288 -0.8742 -0.1947
 1020TIP3    H124551   6.767   4.054   1.892  1.9692  0.1379  1.3114
 1020TIP3    H224552   6.773   3.913   1.947 -1.3895 -1.3411 -1.7117
 1021TIP3   OH224553   4.421   4.646  16.865 -0.4439  0.3985  0.0393
 1021TIP3    H124554   4.472   4.595  16.927 -0.2077  1.8305  1.0711
 1021TIP3    H224555   4.481   4.716  16.837 -0.9659  0.5138 -0.8385
 1022TIP3   OH224556   1.674   3.362  17.006  0.3435 -0.1687  0.1172
 1022TIP3    H124557   1.650   3.304  17.079  2.2450 -1.2897 -0.0750
 1022TIP3    H224558   1.666   3.450  17.041 -1.4240 -0.5796  0.8151
 1023TIP3   OH224559   0.702   2.605   2.441 -0.2003 -0.0131  0.1093
 1023TIP3    H124560   0.651   2.637   2.515 -0.2524 -1.3860  0.6801
 1023TIP3    H224561   0.640   2.554   2.389  0.1578 -0.1665 -0.1701
 1024TIP3   OH224562   4.485   1.734   3.403  0.6244  0.7237 -0.3600
 1024TIP3    H124563   4.429   1.808   3.382  2.7388  2.0532 -1.6828
 1024TIP3    H224564   4.541   1.767   3.474  0.6974 -0.0804 -0.0376
 1025TIP3   OH224565   5.564   3.458   3.971 -0.0262 -0.6255  0.8828
 1025TIP3    H124566   5.590   3.428   4.058 -2.3880 -0.5648  1.6751
 1025TIP3    H224567   5.593   3.550   3.969  0.2462 -0.6882  1.5240
 1026TIP3   OH224568   1.123   3.884  14.501 -0.3169  0.0943 -0.2495
 1026TIP3    H124569   1.151   3.800  14.465  0.1684 -0.4767  1.3625
 1026TIP3    H224570   1.047   3.863  14.555 -0.1244  0.6573  0.2527
 1027TIP3   OH224571   4.798   0.768  12.222  0.2237  0.1444  0.0205
 1027TIP3    H124572   4.884   0.746  12.259 -0.5917 -1.1299  1.2871
 1027TIP3    H224573   4.766   0.685  12.185  0.4362  1.0937 -2.4803
 1028TIP3   OH224574   1.157   0.939  10.872 -0.4870 -0.4044 -0.1312
 1028TIP3    H124575   1.198   1.024  10.855 -0.4498  0.4606  3.4626
 1028TIP3    H224576   1.063   0.955  10.863 -0.4871  0.0812  0.6708
 1029TIP3   OH224577   5.201   4.035  11.119  0.0964 -0.1068 -0.0200
 1029TIP3    H124578   5.289   3.999  11.111 -0.0788 -0.7329  0.7302
 1029TIP3    H224579   5.145   3.972  11.074 -0.3023 -1.2233  1.8981
 1030TIP3   OH224580   4.597   3.821  13.618  0.4193 -0.3955  0.2411
 1030TIP3    H124581   4.508   3.795  13.595  0.2212 -0.7900  1.3807
 1030TIP3    H224582   4.590   3.915  13.636 -0.0966 -0.6760  1.6929
 1031TIP3   OH224583   3.779   2.532   1.469 -0.2958 -0.2023  0.0910
 1031TIP3    H124584   3.759   2.615   1.513  0.6570  0.5162 -0.7826
 1031TIP3    H224585   3.866   2.508   1.502 -0.5042 -0.7772  0.2269
 1032TIP3   OH224586   3.806   4.428   3.706  0.0867 -0.1765 -0.1469
 1032TIP3    H124587   3.807   4.515   3.667 -1.0349  0.4252  1.0852
 1032TIP3    H224588   3.895   4.416   3.741  0.7435 -0.2417 -1.7570
 1033TIP3   OH224589   1.301   3.121   6.169 -0.2916 -0.2132  0.8278
 1033TIP3    H124590   1.362   3.069   6.223 -1.1675 -0.3575  1.7084
 1033TIP3    H224591   1.215   3.083   6.187 -0.6324 -0.1771 -0.6046
 1034TIP3   OH224592   3.810   0.053   2.635  0.9306  0.8800  0.1360
 1034TIP3    H124593   3.853   0.123   2.586  0.4777  0.3648 -1.0364
 1034TIP3    H224594   3.726   0.090   2.661  0.1329  0.3953 -1.6022
 1035TIP3   OH224595   3.017   4.064   2.728 -0.6191 -0.3633  0.4553
 1035TIP3    H124596   3.111   4.047   2.724 -0.7459 -1.4600  1.4024
 1035TIP3    H224597   2.998   4.117   2.650  0.6933 -0.5381 -0.0028
 1036TIP3   OH224598   5.360   5.470  16.655  0.0446 -0.0137 -0.0616
 1036TIP3    H124599   5.281   5.417  16.653  0.4433 -0.8239  2.4263
 1036TIP3    H224600   5.331   5.556  16.685 -0.0734  0.1161 -0.5346
 1037TIP3   OH224601   4.008   0.097   1.107 -0.2628 -0.4908  0.1663
 1037TIP3    H124602   4.063   0.164   1.148 -1.0959  0.4990 -0.2830
 1037TIP3    H224603   4.040   0.014   1.143  0.2867  0.1984  1.3397
 1038TIP3   OH224604   0.064   0.661  14.635 -0.2181  1.0130  0.1540
 1038TIP3    H124605   0.089   0.578  14.593 -0.8183  1.6169 -1.4728
 1038TIP3    H224606   0.115   0.727  14.590 -1.6864  1.8044 -0.4292
 1039TIP3   OH224607   1.505   0.264   0.054  0.5358  0.3343  0.2301
 1039TIP3    H124608   1.498   0.359   0.041  1.9730  0.4652  0.2480
 1039TIP3    H224609   1.598   0.249   0.071  0.6081 -1.2633 -1.2889
 1040TIP3   OH224610   6.070   4.399   2.274 -0.5460 -0.1294 -0.0477
 1040TIP3    H124611   6.160   4.385   2.304  1.6570  0.9087 -5.0041
 1040TIP3    H224612   6.041   4.478   2.319  2.1794  1.0889 -0.2418
 1041TIP3   OH224613   2.018   5.682  15.021 -0.4855  0.1151 -0.1829
 1041TIP3    H124614   2.091   5.673  15.082  0.8739  2.5797 -1.3375
 1041TIP3    H224615   1.943   5.701  15.078  0.5426  1.3124  0.8441
 1042TIP3   OH224616   0.790   1.809  12.451  0.6152 -0.2627  0.1023
 1042TIP3    H124617   0.815   1.716  12.453 -1.1901 -0.7793  2.2920
 1042TIP3    H224618   0.862   1.854  12.494  1.7415 -0.5243 -1.4186
 1043TIP3   OH224619   6.242   2.380   0.270 -0.6204  0.3094  0.4211
 1043TIP3    H124620   6.214   2.289   0.259  2.5494 -0.7317 -0.0982
 1043TIP3    H224621   6.239   2.416   0.181 -0.8163  0.3685  0.4514
 1044TIP3   OH224622   6.503   1.930   0.026  0.5496 -0.4435  0.2627
 1044TIP3    H124623   6.517   1.841   0.060  1.6705  0.5259  2.5085
 1044TIP3    H224624   6.490   1.984   0.104  1.9339  1.7259 -0.9153
 1045TIP3   OH224625   6.821   4.018  13.819 -0.2613  0.0850  0.0564
 1045TIP3    H124626   6.779   4.093  13.862  1.1014  1.7180 -1.2962
 1045TIP3    H224627   6.754   3.984  13.760 -1.2866 -0.5588  1.5218
 1046TIP3   OH224628   1.867   0.402   1.271 -0.0567  0.0088  0.3596
 1046TIP3    H124629   1.908   0.488   1.258  4.1524 -1.4535  2.0522
 1046TIP3    H224630   1.846   0.399   1.364  2.5766 -1.6261  1.0240
 1047TIP3   OH224631   1.997   5.065   5.596 -1.0482 -0.3475 -0.2798
 1047TIP3    H124632   2.004   5.153   5.560  3.5295 -0.4789 -0.2908
 1047TIP3    H224633   1.995   5.077   5.691  0.4716 -0.2061 -0.2545
 1048TIP3   OH224634   4.107   4.989  10.772  0.0477  0.1883  0.5997
 1048TIP3    H124635   4.049   4.961  10.701 -0.3827  0.4179  0.8582
 1048TIP3    H224636   4.145   5.071  10.741  1.4540 -0.7501 -0.2378
 1049TIP3   OH224637   3.544   0.108   3.921  0.7309 -0.3573  0.5910
 1049TIP3    H124638   3.524   0.189   3.874 -1.6039 -1.4665 -0.5230
 1049TIP3    H224639   3.540   0.133   4.014 -3.9666  0.2188  0.4887
 1050TIP3   OH224640   2.517   5.330   1.009 -0.2674 -1.4188 -0.0777
 1050TIP3    H124641   2.459   5.395   1.048 -1.3399 -0.9864 -2.2319
 1050TIP3    H224642   2.585   5.315   1.075 -0.8384  0.7495  1.0812
 1051TIP3   OH224643   5.983   1.116  12.305 -0.0239 -0.4094  0.0260
 1051TIP3    H124644   5.910   1.060  12.330  0.4161 -0.9271  0.1898
 1051TIP3    H224645   6.040   1.060  12.252 -0.3497  0.3403 -1.1558
 1052TIP3   OH224646   4.498   3.425  14.005 -0.3170 -0.7490 -0.7936
 1052TIP3    H124647   4.534   3.385  14.084 -1.0142  0.3214  0.0784
 1052TIP3    H224648   4.575   3.445  13.952  0.1570 -1.4438 -0.3934
 1053TIP3   OH224649   3.876   4.809   4.591 -0.0147 -0.0255  0.4569
 1053TIP3    H124650   3.783   4.791   4.603 -0.4231  0.5429 -1.5431
 1053TIP3    H224651   3.919   4.724   4.605 -0.7469 -0.2001  1.8521
 1054TIP3   OH224652   6.275   5.876  13.885 -0.2298 -0.0980 -0.0453
 1054TIP3    H124653   6.219   5.903  13.812  0.1805 -0.8650 -0.6538
 1054TIP3    H224654   6.229   5.803  13.925 -1.1821  1.2357  1.4108
 1055TIP3   OH224655   4.223   1.517  14.321 -0.0848  0.5113 -0.2556
 1055TIP3    H124656   4.293   1.527  14.386 -0.5484  0.8440  0.2010
 1055TIP3    H224657   4.260   1.553  14.241 -0.1709  1.8960  0.2950
 1056TIP3   OH224658   6.177   2.546   5.795  0.3480  0.1290  0.4871
 1056TIP3    H124659   6.208   2.496   5.870 -0.1057  0.4244  0.8729
 1056TIP3    H224660   6.240   2.618   5.786 -0.8329  1.4217  2.0057
 1057TIP3   OH224661   0.929   3.598   4.729 -0.0284 -0.2043  0.1881
 1057TIP3    H124662   0.985   3.531   4.690 -0.1010 -0.1265 -0.0538
 1057TIP3    H224663   0.984   3.639   4.797  0.4832  0.3863 -0.5608
 1058TIP3   OH224664   0.316   0.298  11.772 -0.0180  0.4281  0.4251
 1058TIP3    H124665   0.269   0.236  11.717 -1.4960  2.2802 -0.5124
 1058TIP3    H224666   0.407   0.268  11.770 -0.6259 -1.4911 -0.2344
 1059TIP3   OH224667   3.617   0.717  11.955  0.0683 -0.2315  0.2656
 1059TIP3    H124668   3.576   0.700  11.870 -0.5227 -1.2449  0.7317
 1059TIP3    H224669   3.668   0.639  11.973  0.3387  0.0542  0.7583
 1060TIP3   OH224670   0.738   1.420  13.840  0.4604  0.6896  0.2501
 1060TIP3    H124671   0.723   1.456  13.928 -1.3155  0.2858  0.1499
 1060TIP3    H224672   0.734   1.325  13.852 -2.7587  0.5885 -0.6200
 1061TIP3   OH224673   0.785   5.775  15.578  0.0892  0.2098 -0.4965
 1061TIP3    H124674   0.817   5.814  15.660 -0.3294 -1.4923  0.5135
 1061TIP3    H224675   0.757   5.850  15.525  2.0458  1.4744  0.1628
 1062TIP3   OH224676   6.012   3.730  17.120  0.4759 -0.1821  0.3728
 1062TIP3    H124677   5.981   3.776  17.199 -2.0003 -0.2504 -0.4692
 1062TIP3    H224678   6.038   3.644  17.152 -1.0248 -0.4099  1.0965
 1063TIP3   OH224679   0.317   2.165   5.331  0.0274  0.3947  0.2945
 1063TIP3    H124680   0.341   2.228   5.263  1.4921 -0.6190 -0.1626
 1063TIP3    H224681   0.254   2.107   5.290 -0.5899  0.9645  0.4219
 1064TIP3   OH224682   0.151   4.789   3.305  0.1014 -0.8456  0.5310
 1064TIP3    H124683   0.235   4.744   3.316  0.4203 -0.9261 -1.7289
 1064TIP3    H224684   0.174   4.882   3.302  0.3941 -0.9444 -1.7917
 1065TIP3   OH224685   6.442   2.256   3.610 -0.0370  0.3451  0.0006
 1065TIP3    H124686   6.476   2.178   3.653 -0.3393 -0.4576 -1.1889
 1065TIP3    H224687   6.490   2.261   3.528 -0.8982  0.7120 -0.4925
 1066TIP3   OH224688   0.790   2.216  11.417 -0.1364  0.0700 -0.3192
 1066TIP3    H124689   0.865   2.275  11.431  0.3086 -0.3939 -0.6880
 1066TIP3    H224690   0.808   2.175  11.332  0.2970 -1.6269  0.5346
 1067TIP3   OH224691   0.983   4.386  11.756  0.0321  0.0688  0.5702
 1067TIP3    H124692   0.928   4.313  11.784 -0.1546  0.2219  0.6014
 1067TIP3    H224693   0.997   4.372  11.663  0.0443 -0.0388  0.5888
 1068TIP3   OH224694   1.581   3.973   2.115 -0.0344 -0.6451 -0.3385
 1068TIP3    H124695   1.594   4.001   2.024  0.9915 -0.0520 -0.0193
 1068TIP3    H224696   1.525   4.041   2.153  0.9149  0.0051 -0.0778
 1069TIP3   OH224697   0.736   0.460   4.366  0.5560  0.5412  0.1414
 1069TIP3    H124698   0.766   0.370   4.373 -0.9608  0.0760  1.2959
 1069TIP3    H224699   0.789   0.508   4.430 -0.0306  0.0333  1.0369
 1070TIP3   OH224700   1.008   4.250   1.095 -0.1975  0.4748  1.0183
 1070TIP3    H124701   0.977   4.297   1.173  0.6391  2.1166  0.4003
 1070TIP3    H224702   1.096   4.283   1.080  0.0790 -0.6409 -0.0086
 1071TIP3   OH224703   4.185   4.016  12.374  0.3445 -0.0157  0.3984
 1071TIP3    H124704   4.159   3.924  12.367 -1.2818  0.4213  0.3070
 1071TIP3    H224705   4.241   4.030  12.298  0.2465 -0.8178  0.1634
 1072TIP3   OH224706   4.486   1.460   1.354  0.7345 -0.3304  0.6248
 1072TIP3    H124707   4.447   1.413   1.427  1.1392 -0.4928  0.7402
 1072TIP3    H224708   4.469   1.404   1.278 -0.2105  0.1245  0.4848
 1073TIP3   OH224709   1.592   3.331   5.837 -0.1435 -0.4500  0.0134
 1073TIP3    H124710   1.531   3.369   5.900 -1.3993 -0.0092 -1.4105
 1073TIP3    H224711   1.589   3.237   5.854 -0.2404 -0.3062  0.7951
 1074TIP3   OH224712   0.145   0.291  16.293 -0.0495  0.2106 -0.5430
 1074TIP3    H124713   0.179   0.377  16.316  1.3009 -0.4751  0.1550
 1074TIP3    H224714   0.123   0.251  16.376  1.8128 -1.0748 -0.5952
 1075TIP3   OH224715   1.769   4.868  16.953  0.0646  0.1268 -0.5229
 1075TIP3    H124716   1.778   4.931  16.881  0.7509  0.3184 -0.2772
 1075TIP3    H224717   1.764   4.783  16.910 -0.3915  0.3094 -0.8358
 1076TIP3   OH224718   0.341   3.112   6.503 -0.4201  0.2740  0.0744
 1076TIP3    H124719   0.292   3.193   6.520 -2.0569 -0.7153  0.2623
 1076TIP3    H224720   0.291   3.044   6.547  0.4586 -0.9759 -0.8066
 1077TIP3   OH224721   3.295   3.903   3.614 -0.1245 -0.3202 -0.0261
 1077TIP3    H124722   3.300   3.908   3.709  0.9197  1.6852 -0.1426
 1077TIP3    H224723   3.311   3.811   3.594  1.3628 -0.4729  1.6456
 1078TIP3   OH224724   6.263   5.551   5.010 -0.3688  0.5507  0.4242
 1078TIP3    H124725   6.174   5.514   5.006  0.5490 -1.7634 -0.0494
 1078TIP3    H224726   6.305   5.520   4.929  1.6237 -0.5129  1.7937
 1079TIP3   OH224727   3.237   0.784   2.276  0.3984  0.2659  0.5647
 1079TIP3    H124728   3.308   0.779   2.341  1.2935  0.5072 -0.3639
 1079TIP3    H224729   3.277   0.828   2.201 -1.0162  1.2473  0.3581
 1080TIP3   OH224730   4.657   6.593   4.018  0.4738  0.1750 -1.0953
 1080TIP3    H124731   4.680   6.662   3.956  0.1497  0.2169 -1.1659
 1080TIP3    H224732   4.741   6.553   4.041  0.6914  0.7573 -0.8619
 1081TIP3   OH224733   6.807   3.274   4.936  0.2963  0.8459  0.1776
 1081TIP3    H124734   6.797   3.341   4.869  1.1012  0.4022 -0.4034
 1081TIP3    H224735   6.788   3.192   4.891 -0.5418  0.6568  0.8473
 1082TIP3   OH224736   0.008   0.441  13.606 -0.4009  0.1621 -0.6465
 1082TIP3    H124737  -0.042   0.375  13.558 -1.8804  2.3023 -2.1690
 1082TIP3    H224738  -0.047   0.464  13.680  0.2449 -0.4650  0.0518
 1083TIP3   OH224739   5.742   3.066  12.189 -0.3972 -0.3561  0.4645
 1083TIP3    H124740   5.810   3.072  12.257 -0.7285  0.3685  0.7445
 1083TIP3    H224741   5.727   2.972  12.180  0.6104 -0.5315  0.4257
 1084TIP3   OH224742   0.791   0.148  15.499  0.3235 -0.9851 -0.1256
 1084TIP3    H124743   0.829   0.060  15.494 -0.4968 -1.3014 -1.4316
 1084TIP3    H224744   0.708   0.136  15.545  0.6925 -0.6959  0.6359
 1085TIP3   OH224745   1.988   1.909   4.322  0.5546  0.5854 -0.0146
 1085TIP3    H124746   2.031   1.989   4.291  0.2993  0.6194 -0.2780
 1085TIP3    H224747   2.059   1.847   4.336  0.7301  0.7812 -0.0349
 1086TIP3   OH224748   2.756   6.619   3.072 -0.3561  0.4309  0.0794
 1086TIP3    H124749   2.675   6.668   3.059 -0.8737 -0.4803 -0.1976
 1086TIP3    H224750   2.729   6.538   3.117  0.7562  1.3252  2.5676
 1087TIP3   OH224751   6.826   3.458  11.740  0.2896  0.0514 -0.0100
 1087TIP3    H124752   6.897   3.515  11.711 -0.7930  1.3108 -0.2714
 1087TIP3    H224753   6.832   3.381  11.683  1.5088  0.0833  0.0588
 1088TIP3   OH224754   3.213   3.309  11.713  0.1984 -0.1687 -0.7772
 1088TIP3    H124755   3.255   3.224  11.722 -2.3002 -1.3140  1.4374
 1088TIP3    H224756   3.188   3.314  11.620  0.6294 -1.7145 -1.0038
 1089TIP3   OH224757   0.349   6.015   2.605  0.1140  0.2568 -0.1876
 1089TIP3    H124758   0.297   6.095   2.607 -1.7034 -0.8620 -0.0514
 1089TIP3    H224759   0.303   5.955   2.663  2.5055 -0.3056  1.2567
 1090TIP3   OH224760   5.493   2.831  14.253 -0.6539 -0.5206 -0.1645
 1090TIP3    H124761   5.482   2.908  14.308 -1.9594  0.1089 -1.2532
 1090TIP3    H224762   5.551   2.774  14.303  1.4684  1.6924  0.1020
 1091TIP3   OH224763   2.457   4.737  17.044  0.2372 -0.2578 -0.2749
 1091TIP3    H124764   2.488   4.746  16.954  0.4992 -2.6506 -0.4821
 1091TIP3    H224765   2.528   4.771  17.098  0.0992  1.1468 -0.9172
 1092TIP3   OH224766   3.640   6.023  16.931 -0.0955 -0.3652  0.8433
 1092TIP3    H124767   3.702   6.069  16.987 -0.2135  1.0650 -0.1627
 1092TIP3    H224768   3.580   6.091  16.901  0.4254 -0.9213 -1.6509
 1093TIP3   OH224769   2.739   1.059  14.123  0.5371  0.1837 -0.2472
 1093TIP3    H124770   2.816   1.116  14.119  0.3996  0.5320  1.1707
 1093TIP3    H224771   2.684   1.088  14.051 -1.1870  4.4894  2.3728
 1094TIP3   OH224772   1.576   6.225   5.896  0.1519  0.0147  0.1820
 1094TIP3    H124773   1.518   6.216   5.972 -3.1278  1.4186 -1.9263
 1094TIP3    H224774   1.591   6.319   5.889  0.1164 -0.0548 -1.0721
 1095TIP3   OH224775   1.776   2.529   4.388  0.4291  0.1132  0.0975
 1095TIP3    H124776   1.790   2.435   4.377  0.8392 -0.0024  1.4054
 1095TIP3    H224777   1.838   2.555   4.456  0.3122  1.3331 -0.2277
 1096TIP3   OH224778   6.249   3.243   1.526  0.8663 -0.0502 -0.6897
 1096TIP3    H124779   6.197   3.309   1.572  1.1333  0.1868 -0.7244
 1096TIP3    H224780   6.192   3.211   1.456  0.8064  0.2868 -0.7957
 1097TIP3   OH224781   1.871   0.455  11.074 -0.3123 -0.0503 -0.5256
 1097TIP3    H124782   1.838   0.409  10.997  0.6708 -1.9367  0.1145
 1097TIP3    H224783   1.800   0.515  11.097 -1.6060 -1.0866 -1.5429
 1098TIP3   OH224784   6.293   0.863  15.202  0.7536  0.3717 -0.0562
 1098TIP3    H124785   6.219   0.836  15.258 -0.4270 -1.0353 -2.1652
 1098TIP3    H224786   6.367   0.812  15.234 -0.1519 -1.2019 -0.3797
 1099TIP3   OH224787   5.332   5.365  15.878 -0.1667 -0.8879  0.4985
 1099TIP3    H124788   5.355   5.410  15.796 -0.7917 -0.4530  0.5493
 1099TIP3    H224789   5.356   5.274  15.863  3.0658 -0.2752  1.1178
 1100TIP3   OH224790   6.310   6.361  16.586  0.2487  0.4719  0.7020
 1100TIP3    H124791   6.285   6.298  16.653 -2.0206  0.3967 -0.1364
 1100TIP3    H224792   6.251   6.435  16.599 -0.7187  0.1947 -1.5613
 1101TIP3   OH224793   0.624   4.490   4.406  0.1948 -0.2463 -0.0463
 1101TIP3    H124794   0.697   4.429   4.396  1.0797  0.5476  1.3559
 1101TIP3    H224795   0.548   4.441   4.373  1.0517 -1.6967  0.0209
 1102TIP3   OH224796   1.480   3.541   1.662  0.0428  0.1311  0.5158
 1102TIP3    H124797   1.466   3.454   1.626  0.0725  0.1151  0.5433
 1102TIP3    H224798   1.404   3.557   1.718 -0.4225  0.4914 -0.2039
 1103TIP3   OH224799   4.654   3.365  15.980 -0.4139  0.1509 -0.1543
 1103TIP3    H124800   4.657   3.277  16.017 -0.5313  1.2195  2.6100
 1103TIP3    H224801   4.640   3.423  16.055 -0.6496  2.5309 -1.9023
 1104TIP3   OH224802   1.419   4.432  13.047 -0.4328  0.1832 -0.0156
 1104TIP3    H124803   1.331   4.447  13.081 -0.8636  2.7759 -2.0020
 1104TIP3    H224804   1.461   4.518  13.047  1.4869 -0.6691 -0.8075
 1105TIP3   OH224805   5.971   2.879  13.817  0.1388  0.3667 -0.3216
 1105TIP3    H124806   6.022   2.950  13.778  1.5360 -1.1681 -1.4247
 1105TIP3    H224807   5.961   2.904  13.909  2.9712  0.7579 -0.0181
 1106TIP3   OH224808   2.268   3.936   0.240 -0.7450 -0.4491 -0.5825
 1106TIP3    H124809   2.330   3.884   0.188 -1.1982 -0.1099 -1.4931
 1106TIP3    H224810   2.204   3.872   0.271 -0.5156 -0.6466 -0.5122
 1107TIP3   OH224811   4.015   3.725   0.963  0.1598 -0.1331  0.3726
 1107TIP3    H124812   3.951   3.656   0.947 -0.2766 -0.0969  1.8230
 1107TIP3    H224813   3.975   3.781   1.029  0.9492  0.9294 -0.0026
 1108TIP3   OH224814   5.235   4.981   4.686  0.3366 -0.6503 -0.1190
 1108TIP3    H124815   5.156   5.008   4.639  1.6030  2.3923 -0.7701
 1108TIP3    H224816   5.288   4.937   4.621  0.3645 -0.1455 -0.4397
 1109TIP3   OH224817   3.387   6.500   1.948  0.3326  0.6629  0.4164
 1109TIP3    H124818   3.335   6.434   1.901  1.5194  0.4761 -0.6833
 1109TIP3    H224819   3.351   6.584   1.918  1.6607  0.5768 -1.6162
 1110TIP3   OH224820   5.792   0.868  11.194 -0.3806  0.6425 -0.0766
 1110TIP3    H124821   5.748   0.943  11.234  0.5673  1.4063 -0.4109
 1110TIP3    H224822   5.816   0.899  11.106  1.5304  0.5513  0.3794
 1111TIP3   OH224823   2.280   6.753  10.956  0.3374  0.2872  0.4690
 1111TIP3    H124824   2.287   6.815  11.028 -0.6950  1.1503 -0.1357
 1111TIP3    H224825   2.318   6.798  10.881 -1.1362  0.5282 -0.1620
 1112TIP3   OH224826   5.282   2.380  13.755 -0.3019 -0.2954  0.3023
 1112TIP3    H124827   5.234   2.462  13.740 -0.7770 -0.1716  2.1655
 1112TIP3    H224828   5.262   2.326  13.679  2.6110  2.3876 -2.6904
 1113TIP3   OH224829   4.268   4.083  11.411 -0.0307 -0.0172 -0.3834
 1113TIP3    H124830   4.182   4.096  11.370  0.3706  1.0239 -0.9239
 1113TIP3    H224831   4.294   3.995  11.383 -0.2466  0.2504 -1.4853
 1114TIP3   OH224832   5.787   1.098   3.342  0.6035 -0.6787 -0.7112
 1114TIP3    H124833   5.843   1.049   3.282 -1.7382 -2.3239 -1.6931
 1114TIP3    H224834   5.760   1.033   3.407  0.9431  0.4431  0.6062
 1115TIP3   OH224835   0.137   4.232  16.309  0.2370 -0.1310 -0.1354
 1115TIP3    H124836   0.122   4.324  16.330  0.3849 -0.1211 -0.0742
 1115TIP3    H224837   0.187   4.198  16.383  1.8523  0.2100 -1.0376
 1116TIP3   OH224838   2.763   5.669  15.771 -0.3621 -0.1797  0.3661
 1116TIP3    H124839   2.851   5.696  15.798 -0.1863 -1.4492  1.1432
 1116TIP3    H224840   2.777   5.592  15.716 -0.9946 -0.7483  0.9744
 1117TIP3   OH224841   3.234   4.038  13.342  0.0028 -0.1366  0.3861
 1117TIP3    H124842   3.171   4.052  13.413  0.2431  1.2397  0.3594
 1117TIP3    H224843   3.319   4.055  13.382  0.2878 -0.9603  0.1571
 1118TIP3   OH224844   2.290   6.256  11.088 -0.4057  0.3490 -0.3373
 1118TIP3    H124845   2.305   6.249  10.994  1.0070  0.2394 -0.1294
 1118TIP3    H224846   2.300   6.349  11.107  2.7213 -0.0058  0.1758
 1119TIP3   OH224847   0.114   5.298  11.514  0.0580  0.5352  0.3361
 1119TIP3    H124848   0.084   5.320  11.426  0.5714 -0.0698  0.0040
 1119TIP3    H224849   0.209   5.299  11.508  0.0943 -0.5633  0.6182
 1120TIP3   OH224850   6.416   3.446   5.333  0.4688  0.1670  0.5683
 1120TIP3    H124851   6.435   3.498   5.255 -0.2276  1.5581  1.2773
 1120TIP3    H224852   6.490   3.386   5.341 -0.8830 -2.3134 -2.9325
 1121TIP3   OH224853   4.378   3.434   1.852 -0.2758  0.8150  0.1020
 1121TIP3    H124854   4.464   3.413   1.887 -0.5682 -1.5803 -0.4149
 1121TIP3    H224855   4.330   3.351   1.855 -2.5728  2.0701  0.3630
 1122TIP3   OH224856   5.042   4.091  14.610  0.5099 -0.2343  1.0311
 1122TIP3    H124857   5.135   4.096  14.635  0.2942  0.7295  1.7192
 1122TIP3    H224858   5.007   4.177  14.634  0.7750  1.9977 -4.7929
 1123TIP3   OH224859   4.781   5.707   1.680  0.2566 -0.5666  0.4853
 1123TIP3    H124860   4.753   5.702   1.589  0.1861 -0.0253  0.4764
 1123TIP3    H224861   4.829   5.789   1.687  0.0686 -0.4932  0.9882
 1124TIP3   OH224862   1.502   1.120  13.724  0.1069 -0.2414 -0.2407
 1124TIP3    H124863   1.439   1.107  13.653 -0.1296  0.9833 -0.2779
 1124TIP3    H224864   1.513   1.215  13.729  1.0061 -0.3762  0.5980
 1125TIP3   OH224865   3.238   6.442  11.232 -0.7156 -0.3866  0.2856
 1125TIP3    H124866   3.197   6.525  11.209 -2.1718 -1.1078  0.1589
 1125TIP3    H224867   3.325   6.446  11.193 -2.0450 -0.3863 -2.9235
 1126TIP3   OH224868   2.245   3.667  15.542  0.5399 -0.0094 -0.4415
 1126TIP3    H124869   2.271   3.691  15.454 -0.1542  0.1990 -0.5977
 1126TIP3    H224870   2.321   3.622  15.579  1.8992  2.3389 -0.1641
 1127TIP3   OH224871   1.415   3.609   2.097 -0.4233  0.2471  0.7078
 1127TIP3    H124872   1.369   3.604   2.013 -0.6847 -3.1822  0.9330
 1127TIP3    H224873   1.506   3.626   2.073 -0.6994  0.5369 -0.1678
 1128TIP3   OH224874   0.859   1.595  12.093  0.5657 -0.1501 -0.7440
 1128TIP3    H124875   0.898   1.548  12.166  1.0765  0.2779 -0.7417
 1128TIP3    H224876   0.933   1.628  12.042  0.2546  1.9921  0.1036
 1129TIP3   OH224877   4.164   3.889   2.326  0.8379  0.3221  0.1660
 1129TIP3    H124878   4.138   3.803   2.356 -1.6857  1.2259  0.7846
 1129TIP3    H224879   4.217   3.872   2.248  2.2747 -1.8064  1.4962
 1130TIP3   OH224880   2.397   1.663  13.084  0.2447  0.0797  0.6912
 1130TIP3    H124881   2.409   1.625  12.997  0.3340  2.6029 -0.4834
 1130TIP3    H224882   2.313   1.708  13.079 -0.8533 -1.5255  2.6974
 1131TIP3   OH224883   4.471   4.459  15.234  0.7268  0.1249 -0.4273
 1131TIP3    H124884   4.487   4.412  15.152 -1.9768 -0.4861 -0.7027
 1131TIP3    H224885   4.512   4.544  15.221  1.5962 -0.4701 -1.8373
 1132TIP3   OH224886   0.568   4.259  15.721 -0.1885  0.0600  0.4859
 1132TIP3    H124887   0.498   4.240  15.658 -0.2219 -1.1743  0.8707
 1132TIP3    H224888   0.590   4.351  15.705 -0.5667 -0.0769 -0.9578
 1133TIP3   OH224889   0.956   4.973  14.518  0.6600 -0.1471 -0.4810
 1133TIP3    H124890   0.879   4.985  14.462  0.1536 -0.5054  0.1184
 1133TIP3    H224891   1.007   4.905  14.474  0.5758  0.0047 -0.8206
 1134TIP3   OH224892   5.457   2.741   2.392 -0.4594  0.2373  0.6957
 1134TIP3    H124893   5.546   2.764   2.416 -0.3165  0.0030  0.4035
 1134TIP3    H224894   5.448   2.649   2.416 -0.5782  0.2234  0.6039
 1135TIP3   OH224895   0.653   1.519   1.527  0.0549 -1.1671  0.3075
 1135TIP3    H124896   0.713   1.523   1.452  1.0883 -1.1930  1.1166
 1135TIP3    H224897   0.567   1.537   1.489  0.7497  0.3833 -0.6558
 1136TIP3   OH224898   1.145   5.208   3.981  0.1408  0.3731  0.0673
 1136TIP3    H124899   1.220   5.267   3.987  0.8969 -0.5560  0.0261
 1136TIP3    H224900   1.182   5.127   3.945 -0.5339 -0.6826  1.6450
 1137TIP3   OH224901   1.372   4.574   2.943 -0.4709  0.0234 -0.4122
 1137TIP3    H124902   1.462   4.581   2.973 -0.6361  2.4244 -0.2852
 1137TIP3    H224903   1.368   4.491   2.896  1.3449 -0.9212  1.0015
 1138TIP3   OH224904   4.062   4.334   0.552 -0.2957  0.1032 -0.0113
 1138TIP3    H124905   4.077   4.242   0.529 -1.5573 -1.0352  3.1557
 1138TIP3    H224906   4.147   4.376   0.541  0.4432 -1.5600 -0.9479
 1139TIP3   OH224907   0.681   4.154   6.261 -0.0716 -0.1705 -0.0048
 1139TIP3    H124908   0.622   4.156   6.336  0.0087  0.6470  0.0464
 1139TIP3    H224909   0.666   4.237   6.216  2.7942  1.2523  1.3776
 1140TIP3   OH224910   6.683   3.377  15.211 -0.2938 -0.2412  0.2195
 1140TIP3    H124911   6.776   3.394  15.226 -0.4110  0.3612  0.2838
 1140TIP3    H224912   6.645   3.463  15.197 -1.1578 -0.3153  1.8911
 1141TIP3   OH224913   2.417   2.256  14.435  0.0212 -0.3604  0.2443
 1141TIP3    H124914   2.429   2.351  14.444 -1.2276 -0.1496 -0.0826
 1141TIP3    H224915   2.433   2.221  14.523  1.6299 -0.0119  0.1319
 1142TIP3   OH224916   2.022   4.197   1.493 -0.1075 -0.2160  0.4589
 1142TIP3    H124917   2.115   4.192   1.516  0.0111  0.0016  0.0499
 1142TIP3    H224918   1.977   4.209   1.577  0.3826  1.4398  0.5381
 1143TIP3   OH224919   0.723   6.828  17.175  0.2122 -0.4308 -0.2930
 1143TIP3    H124920   0.785   6.866  17.238 -1.4441 -0.0897  1.2089
 1143TIP3    H224921   0.760   6.743  17.154  1.9126  0.3314 -0.5623
 1144TIP3   OH224922   6.598   6.600  11.508 -0.7928  0.3589 -0.1377
 1144TIP3    H124923   6.597   6.518  11.460 -1.5096  1.0972 -1.4364
 1144TIP3    H224924   6.522   6.595  11.566 -1.1553  0.3236 -0.6103
 1145TIP3   OH224925   4.130   1.188   1.905 -0.7224  0.2675  0.0090
 1145TIP3    H124926   4.216   1.154   1.879 -1.1244 -0.5325 -0.3197
 1145TIP3    H224927   4.084   1.111   1.940 -1.3013  0.6879  0.1888
 1146TIP3   OH224928   6.068   5.747  14.125  0.2756  0.1180  0.0672
 1146TIP3    H124929   6.023   5.697  14.057 -0.5724 -0.0891  0.7587
 1146TIP3    H224930   6.030   5.715  14.207  1.3637  0.2827  0.6497
 1147TIP3   OH224931   2.108   1.654  15.784  0.3374 -0.2225  0.2285
 1147TIP3    H124932   2.149   1.740  15.776  0.3228 -0.1980  0.4117
 1147TIP3    H224933   2.162   1.608  15.849  0.0848 -0.1965  0.4551
 1148TIP3   OH224934   4.220   6.043   1.121  0.0796 -0.3527  0.4281
 1148TIP3    H124935   4.144   5.992   1.150 -0.6459  0.0601 -0.7025
 1148TIP3    H224936   4.183   6.125   1.088  1.0076 -0.1885 -0.2355
 1149TIP3   OH224937   4.660   1.471  14.663 -0.1524  0.4207  0.4078
 1149TIP3    H124938   4.683   1.519  14.742 -0.1847 -0.2145  0.8171
 1149TIP3    H224939   4.603   1.400  14.694 -1.5551  1.1602 -0.3988
 1150TIP3   OH224940   6.439   3.536  15.246 -0.0898 -0.7256  0.5129
 1150TIP3    H124941   6.432   3.620  15.292 -0.7453 -0.0259 -0.8338
 1150TIP3    H224942   6.475   3.476  15.312 -2.5033 -0.1801  2.4800
 1151TIP3   OH224943   6.774   5.918   5.523 -0.0261 -0.1808 -0.7017
 1151TIP3    H124944   6.722   5.990   5.488 -0.2032  0.4602  0.7794
 1151TIP3    H224945   6.714   5.844   5.528 -0.8487  0.5416  0.9576
 1152TIP3   OH224946   0.389   1.110   4.493 -0.2024 -0.2439  0.4165
 1152TIP3    H124947   0.311   1.065   4.526  0.0392 -1.2013 -0.2685
 1152TIP3    H224948   0.383   1.103   4.398 -0.0898  1.0930  0.2906
 1153TIP3   OH224949   4.777   4.471  13.806  0.3108 -0.0400 -0.0726
 1153TIP3    H124950   4.853   4.529  13.818 -0.7783  1.8113 -1.5418
 1153TIP3    H224951   4.737   4.466  13.892  0.8692  0.7851  0.2515
 1154TIP3   OH224952   2.981   3.104   3.468 -0.6202  0.3121  0.2495
 1154TIP3    H124953   2.943   3.170   3.411 -2.9662  0.5922  1.9968
 1154TIP3    H224954   2.958   3.132   3.556  0.1702 -1.7222  1.1644
 1155TIP3   OH224955   2.442   3.050  11.950  0.1438  0.3905 -0.3645
 1155TIP3    H124956   2.440   2.965  11.905 -1.4405  0.5560 -0.6458
 1155TIP3    H224957   2.520   3.093  11.916  0.4512 -0.5830 -0.9250
 1156TIP3   OH224958   5.799   5.483  11.917  0.3283 -0.1729  0.3961
 1156TIP3    H124959   5.706   5.499  11.932  0.8389  1.9539  1.6248
 1156TIP3    H224960   5.807   5.387  11.914 -1.8179 -0.3954  0.6112
 1157TIP3   OH224961   3.538   1.087  12.591 -0.3187  0.2415  0.6093
 1157TIP3    H124962   3.502   1.173  12.569 -0.9303 -0.1593 -0.0036
 1157TIP3    H224963   3.556   1.046  12.506  0.0743 -0.1979  0.9002
 1158TIP3   OH224964   1.087   2.977  12.953 -0.3303  0.2616 -0.0752
 1158TIP3    H124965   1.011   2.951  12.901 -0.5943  1.4013 -0.2902
 1158TIP3    H224966   1.053   2.990  13.041  0.0699 -1.4281  0.3561
 1159TIP3   OH224967   1.121   5.079  15.109 -0.1710  0.0116  0.4103
 1159TIP3    H124968   1.184   5.150  15.119  0.0005 -0.3652  2.4478
 1159TIP3    H224969   1.045   5.120  15.068 -0.4832  1.6640  2.4650
 1160TIP3   OH224970   2.758   0.873   4.469 -0.7009  0.3527  0.1923
 1160TIP3    H124971   2.695   0.941   4.496 -0.6196 -0.2245  1.9534
 1160TIP3    H224972   2.744   0.801   4.530 -2.6026 -2.4215 -3.1574
 1161TIP3   OH224973   0.408   6.454  13.918 -0.2029 -0.2837 -0.4240
 1161TIP3    H124974   0.503   6.450  13.927 -0.2499  1.2316  1.5323
 1161TIP3    H224975   0.386   6.378  13.864  1.9039 -2.0537  1.0031
 1162TIP3   OH224976   0.668   5.701  16.095  0.4213 -0.3135 -0.4085
 1162TIP3    H124977   0.739   5.704  16.032 -0.6587  1.0434 -1.6546
 1162TIP3    H224978   0.660   5.791  16.126  0.1755 -0.7375  0.7855
 1163TIP3   OH224979   4.786   2.542   2.169 -0.0668 -0.2590  0.3205
 1163TIP3    H124980   4.838   2.608   2.123  0.6593 -0.6838  0.5238
 1163TIP3    H224981   4.807   2.460   2.124 -0.2028 -0.5082  0.7129
 1164TIP3   OH224982   6.551   0.541  14.987 -0.6175  0.1463 -0.5953
 1164TIP3    H124983   6.467   0.532  15.032 -0.0725  0.6873  0.5828
 1164TIP3    H224984   6.528   0.568  14.898 -1.6956 -0.0952 -0.4027
 1165TIP3   OH224985   6.097   5.971   1.164 -0.0653 -0.0660  0.6885
 1165TIP3    H124986   6.070   5.924   1.085  1.1235  3.1773 -1.8631
 1165TIP3    H224987   6.015   6.003   1.202 -0.6109 -1.0492  0.3820
 1166TIP3   OH224988   2.081   3.178   1.231  0.0920 -0.0022 -0.0040
 1166TIP3    H124989   2.010   3.225   1.274 -1.3619 -2.0038 -0.0744
 1166TIP3    H224990   2.160   3.202   1.281 -1.0611  0.1630  1.8219
 1167TIP3   OH224991   2.191   0.542  13.108 -0.2629  0.3021 -0.3930
 1167TIP3    H124992   2.124   0.610  13.098  0.0090  0.6646  0.2175
 1167TIP3    H224993   2.200   0.505  13.020 -2.0488 -0.5011 -0.2817
 1168TIP3   OH224994   0.337   5.174   0.515  0.4450  0.2962 -0.4186
 1168TIP3    H124995   0.402   5.163   0.584  0.0538 -0.2111 -0.1218
 1168TIP3    H224996   0.357   5.259   0.476 -1.9293  2.7614  3.1404
 1169TIP3   OH224997   5.510   0.226  14.800 -0.2319  0.4490 -0.2000
 1169TIP3    H124998   5.536   0.162  14.734 -0.2177 -1.0675  1.2156
 1169TIP3    H224999   5.458   0.291  14.751 -0.2969 -0.6527 -1.6681
 1170TIP3   OH225000   5.297   3.738   3.796  0.2529 -0.0752  0.2462
 1170TIP3    H125001   5.357   3.792   3.846  0.2264  1.1852 -1.0247
 1170TIP3    H225002   5.348   3.659   3.774  2.0826  1.5949 -2.0957
 1171TIP3   OH225003   2.444   0.007  15.799 -0.4297 -0.1705 -0.3945
 1171TIP3    H125004   2.514   0.066  15.824 -0.1854  0.0085 -1.4422
 1171TIP3    H225005   2.485  -0.056  15.739 -0.6695 -1.4616  0.7327
 1172TIP3   OH225006   0.895   0.017   3.703  0.2270 -0.0183  0.2545
 1172TIP3    H125007   0.933   0.078   3.640 -1.5063 -0.2191 -1.0489
 1172TIP3    H225008   0.906  -0.070   3.663  0.8476 -0.3669  1.1475
 1173TIP3   OH225009   2.286   4.480  12.938  0.4842 -0.3248  0.4706
 1173TIP3    H125010   2.286   4.443  13.026  2.3075 -0.0816  0.6162
 1173TIP3    H225011   2.201   4.454  12.901 -0.1015 -0.8676  2.0970
 1174TIP3   OH225012   3.863   6.165  13.257  0.7381  0.6109  0.8272
 1174TIP3    H125013   3.893   6.220  13.185  0.3448  0.6441  0.6833
 1174TIP3    H225014   3.810   6.224  13.311 -1.6452 -0.1175 -0.5555
 1175TIP3   OH225015   6.668   3.159   4.503 -0.2275  0.6070 -0.5832
 1175TIP3    H125016   6.763   3.164   4.497 -0.3661  3.4201 -2.2672
 1175TIP3    H225017   6.637   3.200   4.423 -2.8632  0.9539  0.5245
 1176TIP3   OH225018   4.153   5.245   4.487  0.7624  0.1969 -0.2237
 1176TIP3    H125019   4.113   5.331   4.499 -0.1799 -0.1988 -0.3967
 1176TIP3    H225020   4.188   5.223   4.573 -0.4789  0.0473  0.2757
 1177TIP3   OH225021   4.133   6.709   3.428  0.0241 -0.1658 -0.1814
 1177TIP3    H125022   4.090   6.690   3.345  0.5160  0.6703 -0.6378
 1177TIP3    H225023   4.170   6.797   3.416 -1.2839  0.6759  1.4779
 1178TIP3   OH225024   6.357   6.075  14.864 -0.1807 -0.6356 -0.3338
 1178TIP3    H125025   6.323   6.136  14.798  0.9269  1.4013  0.8865
 1178TIP3    H225026   6.385   6.130  14.937  2.7149 -2.3839  0.0699
 1179TIP3   OH225027   5.236   5.918  11.111 -0.3861 -0.1552 -0.1343
 1179TIP3    H125028   5.156   5.940  11.159 -1.2227 -1.4360 -0.8790
 1179TIP3    H225029   5.226   5.959  11.026 -0.4241 -0.6171 -0.3552
 1180TIP3   OH225030   3.039   4.610  11.759  0.8652 -0.4702 -0.2380
 1180TIP3    H125031   3.108   4.653  11.709 -0.4366 -0.1453 -1.8474
 1180TIP3    H225032   2.998   4.681  11.809 -0.1514 -0.1042 -1.5424
 1181TIP3   OH225033   0.724   1.713   1.701  0.3307  0.4121  0.5444
 1181TIP3    H125034   0.675   1.708   1.783 -1.1629  1.2763 -0.2354
 1181TIP3    H225035   0.687   1.644   1.646 -1.0798  1.9347 -0.5385
 1182TIP3   OH225036   4.582   1.980  13.677  0.4501 -0.3114  0.4107
 1182TIP3    H125037   4.659   2.010  13.629 -0.0858 -0.2988 -0.4676
 1182TIP3    H225038   4.514   1.974  13.611  0.2390 -2.3942  0.7735
 1183TIP3   OH225039   1.642   5.944   1.700 -0.4424  0.2165  0.0725
 1183TIP3    H125040   1.716   5.918   1.645  1.6583  2.3252  1.6801
 1183TIP3    H225041   1.570   5.956   1.639  0.9567 -0.4340 -1.8015
 1184TIP3   OH225042   2.194   6.633  13.519 -0.0209  0.0421 -0.4285
 1184TIP3    H125043   2.129   6.704  13.519  0.7840  0.8091  0.1340
 1184TIP3    H225044   2.162   6.572  13.586 -1.4928 -0.9091 -1.9264
 1185TIP3   OH225045   5.093   6.249   5.897 -0.2339 -0.0908  0.3581
 1185TIP3    H125046   5.102   6.321   5.960  4.5262  1.1574 -1.2891
 1185TIP3    H225047   5.154   6.182   5.928  0.9460 -0.1467 -1.8628
 1186TIP3   OH225048   6.111   3.856  13.076 -0.3502 -0.6369 -0.1455
 1186TIP3    H125049   6.023   3.880  13.105 -1.6607 -1.8514 -2.7273
 1186TIP3    H225050   6.129   3.772  13.120  0.5995  0.6814  2.1744
 1187TIP3   OH225051   3.883   6.501   0.949  0.1742 -0.2507 -0.1121
 1187TIP3    H125052   3.969   6.541   0.960 -0.7798  1.4500  1.7343
 1187TIP3    H225053   3.880   6.431   1.014 -0.1114  0.2287  0.4012
 1188TIP3   OH225054   4.999   5.662  11.952 -0.1173 -0.2531  0.0175
 1188TIP3    H125055   4.936   5.654  12.023  0.9469 -0.4041  0.9633
 1188TIP3    H225056   5.084   5.667  11.995  0.3994  2.3652 -1.1044
 1189TIP3   OH225057   5.980   4.314   4.447  0.9665  0.5822 -0.3648
 1189TIP3    H125058   6.056   4.365   4.418  2.2634  0.2177  2.1381
 1189TIP3    H225059   5.941   4.281   4.366  2.0564  2.7261 -1.8597
 1190TIP3   OH225060   5.271   4.204  11.736 -0.4238 -0.3867 -0.2973
 1190TIP3    H125061   5.251   4.289  11.775  1.6663 -0.9689  2.3888
 1190TIP3    H225062   5.334   4.222  11.667 -1.4811  0.3707 -1.0951
 1191TIP3   OH225063   1.099   0.195  14.696 -0.2518  0.5554  0.0410
 1191TIP3    H125064   1.104   0.282  14.737  0.1746  0.1573  0.8675
 1191TIP3    H225065   1.181   0.152  14.721  0.1994  0.4166 -1.5823
 1192TIP3   OH225066   6.142   4.162  13.837 -0.4518  0.0411  0.2608
 1192TIP3    H125067   6.182   4.197  13.758 -0.8286  1.4352  0.6645
 1192TIP3    H225068   6.049   4.183  13.829 -0.7536 -1.1712  0.3769
 1193TIP3   OH225069   3.345   4.833  16.249  0.2265 -0.6634 -0.0922
 1193TIP3    H125070   3.335   4.874  16.163  0.6406  0.3242  0.3037
 1193TIP3    H225071   3.439   4.814  16.256  0.4461  0.5147  0.6454
 1194TIP3   OH225072   4.548   6.670  12.789  0.4519  0.2723  0.0388
 1194TIP3    H125073   4.640   6.650  12.773  0.6199  0.4571  0.7536
 1194TIP3    H225074   4.529   6.630  12.873 -0.7695 -1.8188 -1.1350
 1195TIP3   OH225075   0.800   4.733  14.460 -0.6058  0.7653 -0.1121
 1195TIP3    H125076   0.749   4.685  14.395 -0.1408 -0.3511  0.3273
 1195TIP3    H225077   0.748   4.812  14.478 -2.0320 -0.1893  0.0984
 1196TIP3   OH225078   3.803   1.582   5.133  0.1527  0.2455  0.4120
 1196TIP3    H125079   3.830   1.544   5.049  0.5352  0.0296  0.6323
 1196TIP3    H225080   3.774   1.671   5.110 -2.0385 -0.5838 -0.3251
 1197TIP3   OH225081   4.845   6.412   5.666 -0.6572  0.0557  0.9750
 1197TIP3    H125082   4.858   6.455   5.751 -0.6830 -0.2571  1.1413
 1197TIP3    H225083   4.924   6.359   5.655  0.0721  1.2775  0.0754
 1198TIP3   OH225084   0.559   3.684   6.808  0.2617  0.0741 -0.4484
 1198TIP3    H125085   0.521   3.770   6.792 -0.1621 -0.0786 -0.2830
 1198TIP3    H225086   0.640   3.683   6.756  0.6969  0.8711  0.2002
 1199TIP3   OH225087   4.502   4.297  12.301 -0.1444 -0.2594  0.4250
 1199TIP3    H125088   4.551   4.238  12.243 -0.1701  0.3447 -0.2243
 1199TIP3    H225089   4.562   4.370  12.316 -0.0029 -0.5793  1.4625
 1200TIP3   OH225090   1.638   4.942   1.408 -0.0360 -0.0628 -0.1988
 1200TIP3    H125091   1.571   4.886   1.368  0.0059  0.0044 -0.3605
 1200TIP3    H225092   1.594   4.979   1.485 -0.4354  0.5991 -0.7413
 1201TIP3   OH225093   6.346   3.603  12.484 -0.1713 -0.0465  0.2871
 1201TIP3    H125094   6.367   3.673  12.546 -1.6078 -0.7524  1.6532
 1201TIP3    H225095   6.318   3.648  12.405  3.0799  0.8970 -0.4639
 1202TIP3   OH225096   1.612   3.000  12.599  0.0048  0.1777 -0.3846
 1202TIP3    H125097   1.596   2.957  12.515  1.0351  2.5076 -1.8599
 1202TIP3    H225098   1.527   3.000  12.643 -0.4027 -1.6819 -1.0621
 1203TIP3   OH225099   1.812   6.056  13.313 -0.0474  0.5879 -1.2421
 1203TIP3    H125100   1.762   6.128  13.275 -1.3671  0.6605  0.5151
 1203TIP3    H225101   1.879   6.098  13.366 -0.9477  0.5721 -0.0488
 1204TIP3   OH225102   4.168   2.316   4.672 -0.4027  0.2556 -0.4976
 1204TIP3    H125103   4.175   2.230   4.630 -0.9811  0.7972 -1.7503
 1204TIP3    H225104   4.243   2.365   4.639  0.9499 -0.2972  1.6002
 1205TIP3   OH225105   2.112   0.004   0.573  0.1083 -0.0542 -0.2878
 1205TIP3    H125106   2.182   0.005   0.508  1.2033 -0.5785  0.8591
 1205TIP3    H225107   2.090  -0.088   0.584 -1.0782  0.1276 -0.9409
 1206TIP3   OH225108   3.737   6.639  16.849  0.0820 -0.7089  0.4802
 1206TIP3    H125109   3.813   6.682  16.887 -0.4210  0.6879 -0.0107
 1206TIP3    H225110   3.769   6.554  16.820  2.2252  0.8643 -2.2909
 1207TIP3   OH225111   0.935   1.690   5.304  0.2266  0.4172  0.0000
 1207TIP3    H125112   0.986   1.614   5.333  1.0629  0.5333 -1.0787
 1207TIP3    H225113   0.893   1.661   5.223 -1.9417  0.1379  1.1744
 1208TIP3   OH225114   5.828   1.099  15.003 -0.3109 -0.0977  0.9701
 1208TIP3    H125115   5.770   1.140  14.938 -0.8417 -2.0162  0.1694
 1208TIP3    H225116   5.780   1.021  15.032  1.9138 -1.8870  0.1247
 1209TIP3   OH225117   4.996   3.263  14.332  0.7769 -0.0715  0.6516
 1209TIP3    H125118   5.056   3.229  14.266 -0.4057  1.0765 -1.1181
 1209TIP3    H225119   4.945   3.187  14.359 -0.7491 -0.1262 -2.0474
 1210TIP3   OH225120   5.974   2.625   1.965 -0.5334 -0.2493 -0.0631
 1210TIP3    H125121   5.966   2.688   2.037 -0.2863 -0.7969  0.4555
 1210TIP3    H225122   6.042   2.661   1.908  0.1101 -0.3754  0.5976
 1211TIP3   OH225123   0.327   4.419   4.130  0.5761  0.2092  0.1012
 1211TIP3    H125124   0.390   4.350   4.152  2.3261  1.6964 -0.1089
 1211TIP3    H225125   0.377   4.500   4.133 -1.7164  1.7045  1.7267
 1212TIP3   OH225126   2.336   4.547   3.010  0.3005  0.0414 -0.6222
 1212TIP3    H125127   2.260   4.598   3.036  0.2492 -0.4087  0.1462
 1212TIP3    H225128   2.317   4.458   3.042  0.4360 -0.4324 -1.8221
 1213TIP3   OH225129   6.105   2.810   3.472  0.2599  0.0581  0.2754
 1213TIP3    H125130   6.150   2.794   3.555 -1.8615 -1.3864  1.2250
 1213TIP3    H225131   6.142   2.745   3.412  2.8676  2.0448 -0.4655
 1214TIP3   OH225132   4.512   4.521  11.737 -0.1848 -0.3209  0.5273
 1214TIP3    H125133   4.498   4.438  11.692 -2.5274  0.0082  0.5406
 1214TIP3    H225134   4.536   4.497  11.827  1.6488 -0.9436 -0.0796
 1215TIP3   OH225135   2.661   0.847  12.718  0.3664  0.0755  0.6266
 1215TIP3    H125136   2.745   0.891  12.706  0.6044 -0.2821  0.9553
 1215TIP3    H225137   2.654   0.831  12.812 -0.0161 -0.0033  0.5895
 1216TIP3   OH225138   3.462   5.748   3.635  0.0032 -0.2185 -0.5104
 1216TIP3    H125139   3.447   5.835   3.599  1.5526 -0.2282 -1.2502
 1216TIP3    H225140   3.493   5.765   3.724 -0.8781 -0.0841 -0.2152
 1217TIP3   OH225141   2.405   4.972   5.118 -0.4400  0.9413  0.4954
 1217TIP3    H125142   2.412   4.991   5.212  0.7523  0.1716  0.5812
 1217TIP3    H225143   2.491   4.992   5.083 -0.1013 -1.0855  0.0280
 1218TIP3   OH225144   4.180   2.028  10.991  0.0553 -0.8059 -0.5219
 1218TIP3    H125145   4.155   2.116  10.963  1.3688 -0.6223 -1.2531
 1218TIP3    H225146   4.207   1.984  10.909  6.0349  0.3911  0.3270
 1219TIP3   OH225147   1.370   1.179   0.619 -0.4627 -0.1795  0.0463
 1219TIP3    H125148   1.432   1.236   0.664 -1.9521  1.3962  0.2124
 1219TIP3    H225149   1.423   1.108   0.585  0.9637 -0.6511  2.9621
 1220TIP3   OH225150   0.506   3.664  14.670 -0.4289 -0.3851  0.0864
 1220TIP3    H125151   0.537   3.726  14.736 -1.0248 -0.5933  0.5709
 1220TIP3    H225152   0.420   3.698  14.644 -0.3277 -0.4681 -0.3701
 1221TIP3   OH225153   0.584   3.933  16.975 -0.1632 -0.3539 -0.1755
 1221TIP3    H125154   0.601   3.892  16.890 -0.0491 -0.8886  0.0975
 1221TIP3    H225155   0.614   3.868  17.038 -0.2177  0.0562  0.2731
 1222TIP3   OH225156   0.493   6.683  10.741 -0.0653  0.0929  0.1568
 1222TIP3    H125157   0.432   6.752  10.768 -0.5295 -0.0197 -0.5547
 1222TIP3    H225158   0.456   6.603  10.777 -0.1915  0.0617 -0.0387
 1223TIP3   OH225159   4.740   5.166   2.408 -0.7156 -0.4580  0.0884
 1223TIP3    H125160   4.679   5.114   2.356 -1.2614 -1.4705  1.6691
 1223TIP3    H225161   4.743   5.251   2.363 -2.5133 -0.7145 -0.6113
 1224TIP3   OH225162   1.074   2.326   0.154  0.5338 -0.0618 -0.4416
 1224TIP3    H125163   0.996   2.276   0.129 -0.5224  1.4862 -0.3836
 1224TIP3    H225164   1.087   2.387   0.081 -0.2004  1.7873  0.8838
 1225TIP3   OH225165   3.060   5.261   5.056  0.4006 -0.6304  0.1152
 1225TIP3    H125166   3.013   5.341   5.078  1.2814 -0.6769  2.4589
 1225TIP3    H225167   3.115   5.243   5.132  2.2857 -1.9867 -1.4461
 1226TIP3   OH225168   4.492   1.199  15.793  0.1743  0.5511  0.3888
 1226TIP3    H125169   4.530   1.262  15.853 -0.3102  1.8705 -0.6419
 1226TIP3    H225170   4.535   1.116  15.815  0.3613  1.0845  2.1889
 1227TIP3   OH225171   0.539   2.661  12.100  0.2829  0.1818 -0.1999
 1227TIP3    H125172   0.583   2.745  12.088  0.2083  0.1304 -0.8811
 1227TIP3    H225173   0.455   2.672  12.054  1.0302 -0.8687 -1.8856
 1228TIP3   OH225174   1.896   1.556   4.191  0.4319  0.4573  0.1719
 1228TIP3    H125175   1.842   1.575   4.268  0.7712  1.4007  0.1900
 1228TIP3    H225176   1.844   1.495   4.139 -0.9554  1.8163 -0.1182
 1229TIP3   OH225177   3.578   5.169   5.247  0.8108 -0.6224  0.0806
 1229TIP3    H125178   3.552   5.261   5.239 -1.9776 -1.3176 -0.0610
 1229TIP3    H225179   3.620   5.148   5.164 -2.7386 -0.5698 -1.9365
 1230TIP3   OH225180   1.190   6.157   2.394 -0.2325 -0.1566 -0.4163
 1230TIP3    H125181   1.263   6.220   2.393  0.6742 -1.0834  1.4809
 1230TIP3    H225182   1.202   6.104   2.316  1.0139 -0.1394 -0.2499
 1231TIP3   OH225183   4.854   1.386   4.983  0.2556 -0.2780 -0.1842
 1231TIP3    H125184   4.872   1.305   4.936  0.5432 -0.3035 -0.0317
 1231TIP3    H225185   4.820   1.358   5.067  0.4317 -0.2416 -0.1005
 1232TIP3   OH225186   4.261   4.810  14.572  0.1319 -0.3298  0.3461
 1232TIP3    H125187   4.259   4.893  14.523 -0.6757 -0.5393  0.0053
 1232TIP3    H225188   4.209   4.827  14.650  0.4547 -0.3432  0.5643
 1233TIP3   OH225189   2.507   3.220  14.827  0.3166  0.1806 -0.5530
 1233TIP3    H125190   2.557   3.256  14.900 -0.7493 -0.3657  0.4951
 1233TIP3    H225191   2.569   3.164  14.780  1.1058  0.7886 -0.2589
 1234TIP3   OH225192   1.689   4.544  14.757  0.3854  0.0166  0.5446
 1234TIP3    H125193   1.601   4.516  14.782 -1.0003  1.0588 -2.5987
 1234TIP3    H225194   1.698   4.516  14.666  3.0951  0.4923  0.5809
 1235TIP3   OH225195   3.248   0.214  13.922  0.5722 -0.1192 -0.1754
 1235TIP3    H125196   3.237   0.122  13.946 -1.0690 -0.1363 -0.8653
 1235TIP3    H225197   3.197   0.262  13.987  0.5368  0.2182 -0.4479
 1236TIP3   OH225198   5.911   5.312   4.538  0.1127 -0.0217 -0.4108
 1236TIP3    H125199   5.917   5.239   4.476  0.6532 -0.6179  0.3187
 1236TIP3    H225200   5.820   5.313   4.566 -0.2843  0.6553 -1.6803
 1237TIP3   OH225201   3.622   1.365   4.598  0.6768  0.0268  0.9078
 1237TIP3    H125202   3.541   1.322   4.571 -0.5033  0.4242  3.4606
 1237TIP3    H225203   3.669   1.298   4.648  1.8630 -0.1362 -0.3796
 1238TIP3   OH225204   3.634   6.725  14.148 -0.1221  0.2270  0.4710
 1238TIP3    H125205   3.600   6.669  14.218  2.1906 -2.7778 -0.6065
 1238TIP3    H225206   3.714   6.762  14.185 -0.7151  1.4626  0.5566
 1239TIP3   OH225207   1.887   3.621   3.571 -0.0595  0.5345  0.9829
 1239TIP3    H125208   1.870   3.528   3.580 -1.0367  0.3561 -1.7588
 1239TIP3    H225209   1.944   3.629   3.494 -0.9198  2.2186  0.4485
 1240TIP3   OH225210   2.542   4.587   1.757 -0.0020 -0.4407 -0.1864
 1240TIP3    H125211   2.619   4.643   1.757  0.4443 -1.0190  0.6369
 1240TIP3    H225212   2.495   4.611   1.837  1.5022 -2.8725  1.6079
 1241TIP3   OH225213   2.848   1.144  14.889 -0.1355 -0.5241  0.3782
 1241TIP3    H125214   2.777   1.093  14.929 -1.3266  0.7861  0.0069
 1241TIP3    H225215   2.863   1.216  14.951 -0.3095  0.1478 -0.3442
 1242TIP3   OH225216   5.413   0.925  16.767 -0.7055  0.2436 -0.3369
 1242TIP3    H125217   5.479   0.971  16.819 -1.0934 -0.5746  0.9316
 1242TIP3    H225218   5.461   0.886  16.695  0.1278  0.0124  0.3350
 1243TIP3   OH225219   0.212   3.230  12.699  1.0037 -0.5871 -0.0305
 1243TIP3    H125220   0.299   3.230  12.737  0.6004  0.5565  0.9700
 1243TIP3    H225221   0.214   3.161  12.633  3.2535  0.7311 -1.4264
 1244TIP3   OH225222   4.317   0.756   3.829  0.6424 -0.6573  0.0566
 1244TIP3    H125223   4.318   0.662   3.810  2.4931 -0.6047 -0.3383
 1244TIP3    H225224   4.269   0.795   3.756  0.6655 -1.2132 -0.2641
 1245TIP3   OH225225   2.271   4.042   3.812 -0.3771  0.2654  0.3243
 1245TIP3    H125226   2.248   4.114   3.753  0.5906  0.6654  0.4245
 1245TIP3    H225227   2.217   3.969   3.782 -1.8413  1.1745  0.5950
 1246TIP3   OH225228   4.226   6.135   0.155 -0.2813 -0.0362  0.0624
 1246TIP3    H125229   4.257   6.046   0.169 -0.1665  0.0672  0.4810
 1246TIP3    H225230   4.131   6.126   0.141  0.1268 -0.5726 -3.2208
 1247TIP3   OH225231   0.620   6.519  12.470 -0.3736 -0.5404  0.5618
 1247TIP3    H125232   0.701   6.478  12.440  0.6215  0.7998  1.2644
 1247TIP3    H225233   0.605   6.590  12.408 -0.0058  0.3142  1.4253
 1248TIP3   OH225234   2.158   3.470  15.117  0.1330  0.2339 -0.0390
 1248TIP3    H125235   2.225   3.406  15.095  0.2056  0.7090 -1.2893
 1248TIP3    H225236   2.126   3.443  15.203 -0.4311 -1.9816 -0.8786
 1249TIP3   OH225237   5.790   4.636  10.575 -0.6091 -0.4171 -0.1434
 1249TIP3    H125238   5.748   4.573  10.634 -0.1863 -1.6805 -1.1477
 1249TIP3    H225239   5.833   4.582  10.509 -0.6161  0.9520 -1.3100
 1250TIP3   OH225240   2.252   5.520  16.086 -0.4923  0.2922  0.0183
 1250TIP3    H125241   2.184   5.466  16.126  1.1656 -0.5166  1.9139
 1250TIP3    H225242   2.283   5.575  16.158 -0.6398  2.2597 -1.3509
 1251TIP3   OH225243   3.195   0.251  16.286 -0.2525 -0.1593  0.4711
 1251TIP3    H125244   3.209   0.341  16.316  0.4966  1.3716 -3.7316
 1251TIP3    H225245   3.119   0.256  16.228 -0.0199 -2.1536 -0.0860
 1252TIP3   OH225246   4.096   6.641   4.965 -0.2860 -0.0688 -0.4255
 1252TIP3    H125247   4.068   6.604   4.881 -0.1914  0.0972 -0.5324
 1252TIP3    H225248   4.189   6.619   4.970 -0.0314  0.8642 -0.8784
 1253TIP3   OH225249   0.617   1.392   5.336 -0.1517  0.1840 -0.0915
 1253TIP3    H125250   0.600   1.456   5.268 -0.0949 -0.2715 -0.5396
 1253TIP3    H225251   0.600   1.307   5.295 -2.0095 -0.0385  1.0014
 1254TIP3   OH225252   6.115   5.759  12.770 -0.0803  0.0657 -0.1523
 1254TIP3    H125253   6.167   5.684  12.799 -0.0427  0.4317  0.7675
 1254TIP3    H225254   6.115   5.818  12.846 -0.6400  0.7058 -0.6451
 1255TIP3   OH225255   0.357   3.732   0.016 -0.4410  0.0953  0.2649
 1255TIP3    H125256   0.274   3.705  -0.023  0.7718 -0.8608 -1.8106
 1255TIP3    H225257   0.381   3.659   0.073 -0.8099  0.1775  0.5270
 1256TIP3   OH225258   5.108   1.331  11.394  0.8295 -0.9891 -0.6280
 1256TIP3    H125259   5.115   1.239  11.366 -0.1160 -1.3647  0.2779
 1256TIP3    H225260   5.112   1.327  11.490 -1.3777 -0.3541 -0.4423
 1257TIP3   OH225261   0.915   4.992   2.988  0.4263  0.3247 -0.3127
 1257TIP3    H125262   0.868   4.911   3.005  0.8857  0.2394  0.6469
 1257TIP3    H225263   0.879   5.025   2.906 -3.0447  1.4905  1.4705
 1258TIP3   OH225264   1.081   1.765  12.881 -0.0777 -0.5513  0.1699
 1258TIP3    H125265   1.124   1.770  12.966  0.5312 -1.1933 -0.0886
 1258TIP3    H225266   1.079   1.672  12.860 -1.5008 -0.5296  0.1102
 1259TIP3   OH225267   1.593   0.976  12.398  0.4128 -0.2892 -0.0957
 1259TIP3    H125268   1.616   1.069  12.389  0.7170 -0.3539 -0.0012
 1259TIP3    H225269   1.677   0.931  12.403  0.2620 -0.4556  1.0582
 1260TIP3   OH225270   0.630   0.950  15.732 -0.1315  0.5675 -0.3112
 1260TIP3    H125271   0.540   0.958  15.764 -0.0985  0.1170 -0.1081
 1260TIP3    H225272   0.623   0.892  15.656 -0.0117  0.5444 -0.3042
 1261TIP3   OH225273   6.006   1.796   3.415 -0.0232 -0.5349 -0.0305
 1261TIP3    H125274   6.101   1.808   3.417  0.0546 -1.1910  0.9523
 1261TIP3    H225275   5.994   1.703   3.395 -0.4994 -0.1764 -1.5266
 1262TIP3   OH225276   3.347   5.247  13.591 -0.3827  0.4279 -0.4009
 1262TIP3    H125277   3.340   5.342  13.592 -0.7298  0.4092 -0.8422
 1262TIP3    H225278   3.400   5.227  13.513  0.5300  0.3068  0.2295
 1263TIP3   OH225279   3.453   1.893  15.357 -0.9212 -0.2555 -0.4818
 1263TIP3    H125280   3.378   1.842  15.388 -0.4533 -0.6914 -0.0516
 1263TIP3    H225281   3.529   1.849  15.394 -0.5465  1.3908  0.8698
 1264TIP3   OH225282   4.467   2.330  12.468  0.0075 -0.0328  0.2506
 1264TIP3    H125283   4.401   2.314  12.400  0.0993 -1.1196  0.3991
 1264TIP3    H225284   4.455   2.422  12.492 -0.8384  0.0324 -0.3714
 1265TIP3   OH225285   1.459   6.138   3.906  0.4577 -0.5332  0.2702
 1265TIP3    H125286   1.521   6.090   3.961 -1.6260 -2.1335  1.3856
 1265TIP3    H225287   1.382   6.081   3.902 -1.1769  1.6146 -0.5360
 1266TIP3   OH225288   3.164   3.670  14.191 -0.7522  0.0732  0.2003
 1266TIP3    H125289   3.080   3.663  14.147 -0.5934 -1.6920  0.1132
 1266TIP3    H225290   3.157   3.611  14.267 -0.2600  1.3908  1.3092
 1267TIP3   OH225291   5.714   0.114  15.404 -0.0736 -0.6321  0.0259
 1267TIP3    H125292   5.756   0.176  15.344  1.9218 -0.4329  1.5217
 1267TIP3    H225293   5.680   0.045  15.347  2.3726 -0.8165 -1.3357
 1268TIP3   OH225294   2.437   5.607  11.449 -0.6914 -0.1234  0.4952
 1268TIP3    H125295   2.418   5.540  11.515 -1.7914 -0.8485 -0.5226
 1268TIP3    H225296   2.496   5.564  11.387  0.8115  0.7397  1.2802
 1269TIP3   OH225297   6.560   2.341  16.479 -0.0935 -0.3414  0.0617
 1269TIP3    H125298   6.534   2.432  16.464 -0.4502 -0.5296 -0.5080
 1269TIP3    H225299   6.484   2.290  16.449  0.0293 -0.8184  0.5542
 1270TIP3   OH225300   6.284   2.777   3.661  0.1185 -0.1282  0.0999
 1270TIP3    H125301   6.274   2.800   3.753 -1.9428 -0.4443  0.0066
 1270TIP3    H225302   6.284   2.681   3.660 -0.5369 -0.1293 -0.2765
 1271TIP3   OH225303   3.929   6.382   3.826  0.0592 -0.5175 -0.3462
 1271TIP3    H125304   3.881   6.421   3.753  1.0098 -0.6080 -1.0445
 1271TIP3    H225305   3.864   6.372   3.895 -0.5793  0.7303 -0.7381
 1272TIP3   OH225306   1.336   5.016  12.958 -0.1800  0.1648  0.6684
 1272TIP3    H125307   1.317   4.952  12.890  2.3701 -1.1181  1.0504
 1272TIP3    H225308   1.334   5.100  12.913 -0.1777 -0.5053 -0.6267
 1273TIP3   OH225309   5.369   6.164   1.644 -0.2687 -0.0660  0.1385
 1273TIP3    H125310   5.370   6.195   1.553  0.8239  0.3379  0.2754
 1273TIP3    H225311   5.420   6.083   1.642  1.4744  0.9629  0.7113
 1274TIP3   OH225312   2.568   0.026  17.089  0.3756  0.2920  0.3926
 1274TIP3    H125313   2.563   0.112  17.047  0.2411 -0.0539 -0.3191
 1274TIP3    H225314   2.638   0.035  17.154  1.0316  0.6641 -0.3479
 1275TIP3   OH225315   1.627   0.928  16.425 -0.3176 -0.8564  0.0329
 1275TIP3    H125316   1.666   0.988  16.362 -1.5886 -0.4641 -0.4173
 1275TIP3    H225317   1.694   0.861  16.441  2.4991  2.2765  2.9709
 1276TIP3   OH225318   2.037   0.911   1.272  0.6269 -0.4683  0.3401
 1276TIP3    H125319   2.041   0.817   1.255 -0.8601 -0.8639  1.8119
 1276TIP3    H225320   2.013   0.950   1.188 -1.3850 -1.7338  0.2404
 1277TIP3   OH225321   2.105   5.153  16.614 -0.1078  0.1129  0.0695
 1277TIP3    H125322   2.026   5.115  16.575 -0.1350  0.2399  0.0005
 1277TIP3    H225323   2.160   5.078  16.635  0.7941  0.1043 -2.0874
 1278TIP3   OH225324   1.193   6.059  13.940  0.3773  0.7469  0.7762
 1278TIP3    H125325   1.228   5.974  13.968 -2.1006 -0.6549 -0.0796
 1278TIP3    H225326   1.120   6.076  13.999 -0.5417  1.1787 -0.4405
 1279TIP3   OH225327   2.591   0.133   2.839 -0.4165 -0.0059 -0.5634
 1279TIP3    H125328   2.684   0.110   2.838 -0.3680  0.1384  0.1521
 1279TIP3    H225329   2.583   0.198   2.909 -1.2168 -0.7686  0.0772
 1280TIP3   OH225330   2.067   2.457  13.188 -0.3722 -0.0925 -0.0288
 1280TIP3    H125331   2.129   2.474  13.117 -0.6891 -2.1456 -0.8720
 1280TIP3    H225332   1.997   2.520  13.175  0.2735  0.5070 -0.6584
 1281TIP3   OH225333   6.463   1.994  14.632 -0.4071  0.0323 -0.5184
 1281TIP3    H125334   6.542   2.030  14.672 -0.9507  0.7813 -0.1003
 1281TIP3    H225335   6.458   1.904  14.667 -0.5964  0.5016  0.7356
 1282TIP3   OH225336   4.531   2.850   0.404  0.3549 -0.3871 -0.4455
 1282TIP3    H125337   4.552   2.943   0.396 -2.2385  0.2218 -0.9802
 1282TIP3    H225338   4.569   2.810   0.326  1.7930  0.1380 -0.0416
 1283TIP3   OH225339   5.604   2.195  13.917 -0.1905 -0.1968 -0.1704
 1283TIP3    H125340   5.569   2.283  13.929  1.0390  0.1669  1.0332
 1283TIP3    H225341   5.587   2.150  14.000  1.8772 -0.0769  0.3802
 1284TIP3   OH225342   4.227   5.974   3.546 -0.3572 -0.6250 -0.7003
 1284TIP3    H125343   4.131   5.970   3.552 -0.6076  1.0278 -2.7079
 1284TIP3    H225344   4.249   5.910   3.479 -0.3192  0.6017 -1.8995
 1285TIP3   OH225345   2.890   0.751  15.019  0.0145 -0.2907  0.0790
 1285TIP3    H125346   2.863   0.790  15.102  1.9551  0.0269  0.6232
 1285TIP3    H225347   2.865   0.659  15.026 -2.2773  0.2698 -0.1394
 1286TIP3   OH225348   6.720   4.745  14.486 -0.6651  0.1850 -0.5665
 1286TIP3    H125349   6.711   4.747  14.391  0.3616  0.6546 -0.6706
 1286TIP3    H225350   6.668   4.820  14.516 -0.8062  0.1725 -0.7759
 1287TIP3   OH225351   2.864   6.176   3.471 -0.2704 -0.0734  0.3886
 1287TIP3    H125352   2.829   6.209   3.554  0.6960  1.1101  0.3511
 1287TIP3    H225353   2.924   6.244   3.441 -0.1728 -0.7385 -1.0150
 1288TIP3   OH225354   6.020   3.653  16.468 -0.2418 -0.4672 -0.2222
 1288TIP3    H125355   5.996   3.570  16.509 -0.5634 -1.7069 -2.7266
 1288TIP3    H225356   6.067   3.628  16.388 -0.2049  1.7661 -0.9701
 1289TIP3   OH225357   5.927   1.055  13.438  0.1881 -0.1610  0.2670
 1289TIP3    H125358   5.951   0.962  13.444 -1.5111 -0.5864  1.0234
 1289TIP3    H225359   5.962   1.093  13.518 -0.8444 -0.5948  0.9444
 1290TIP3   OH225360   1.535   4.543   3.983  0.3305  0.1762 -0.5984
 1290TIP3    H125361   1.620   4.565   3.945  0.4173 -0.5865 -0.8667
 1290TIP3    H225362   1.531   4.447   3.977 -0.1554  0.1369  0.2471
 1291TIP3   OH225363   5.848   3.934  12.018  0.1982 -0.7166 -0.6479
 1291TIP3    H125364   5.900   3.951  11.939  0.6883  0.5476 -0.0788
 1291TIP3    H225365   5.908   3.887  12.076  0.6031  0.3848 -0.1493
 1292TIP3   OH225366   0.077   0.972   3.603 -0.7544  0.4556 -0.6120
 1292TIP3    H125367   0.166   0.975   3.639 -0.3401  0.9955 -1.6255
 1292TIP3    H225368   0.027   1.032   3.658 -1.0016 -1.2535  1.1700
 1293TIP3   OH225369   6.441   3.886  15.024 -0.4679  0.5878  0.2086
 1293TIP3    H125370   6.367   3.845  15.070 -0.0284 -0.1995  0.2368
 1293TIP3    H225371   6.516   3.872  15.083  0.6364 -2.5641 -1.6616
 1294TIP3   OH225372   5.382   1.464  11.080 -0.7352 -0.3501 -0.0105
 1294TIP3    H125373   5.298   1.510  11.083  0.4972  2.1991 -1.3565
 1294TIP3    H225374   5.406   1.463  10.988  0.2128 -2.0689  0.2165
 1295TIP3   OH225375   4.071   1.315  12.145  0.0612 -0.2555 -0.6660
 1295TIP3    H125376   4.070   1.286  12.236 -1.1481  0.7731 -0.3262
 1295TIP3    H225377   4.164   1.329  12.125  0.3987 -1.2187  0.1528
 1296TIP3   OH225378   5.977   5.493  16.463  0.1330 -0.5918 -0.1787
 1296TIP3    H125379   5.986   5.507  16.369  0.4998 -0.3347 -0.1060
 1296TIP3    H225380   5.913   5.423  16.470 -1.5109  0.8121 -0.5523
 1297TIP3   OH225381   3.257   0.014  13.232  0.5090  0.3062 -0.6393
 1297TIP3    H125382   3.196   0.087  13.222 -1.3570 -1.0506  0.2439
 1297TIP3    H225383   3.276   0.011  13.326 -0.6174 -1.1963 -0.4219
 1298TIP3   OH225384   3.054   5.703  13.135  0.5145  0.0303 -0.2026
 1298TIP3    H125385   3.033   5.619  13.175  0.8043  0.6763  1.3650
 1298TIP3    H225386   2.970   5.747  13.125  0.5556  0.3885  0.9329
 1299TIP3   OH225387   3.678   3.260  16.557  0.2501  0.4935  0.0648
 1299TIP3    H125388   3.723   3.342  16.575 -0.4332  0.8619  0.1436
 1299TIP3    H225389   3.647   3.230  16.642  1.7322 -0.6035  0.2485
 1300TIP3   OH225390   2.009   6.204  11.031  0.2215  0.2547 -0.2936
 1300TIP3    H125391   2.083   6.200  11.091  0.1388 -2.2556 -0.2713
 1300TIP3    H225392   2.029   6.279  10.974  2.2581  0.2747  0.3665
 1301TIP3   OH225393   4.968   2.063   3.880 -0.3757 -0.3487 -0.6909
 1301TIP3    H125394   4.945   2.129   3.946 -0.5813 -0.7537 -0.3453
 1301TIP3    H225395   4.888   2.050   3.830 -0.1093  0.2476 -1.2904
 1302TIP3   OH225396   1.248   5.033   5.104  0.0288 -0.1719  0.6762
 1302TIP3    H125397   1.287   5.060   5.021  0.4506  0.0501  0.9401
 1302TIP3    H225398   1.183   4.968   5.081 -1.2196  1.2586 -0.0301
 1303TIP3   OH225399   2.163   4.943  13.254  0.3914 -0.6448 -0.1070
 1303TIP3    H125400   2.184   4.866  13.307  0.1195 -0.5657  0.1186
 1303TIP3    H225401   2.243   4.962  13.206 -0.1783 -2.3962 -1.8402
 1304TIP3   OH225402   6.203   3.386  16.492 -0.1128  0.4804 -0.2721
 1304TIP3    H125403   6.142   3.400  16.419  0.9572 -0.2409 -1.3551
 1304TIP3    H225404   6.289   3.402  16.453  0.3876  2.6899  1.5007
 1305TIP3   OH225405   0.087   5.313   0.771  0.2052  0.2614 -0.2210
 1305TIP3    H125406   0.098   5.381   0.705 -2.2587  0.6517 -0.3392
 1305TIP3    H225407   0.095   5.230   0.723 -2.0651  0.5400 -1.2013
 1306TIP3   OH225408   5.460   0.013   1.999  0.4588 -0.5116  0.1319
 1306TIP3    H125409   5.461   0.100   1.959  1.0600 -1.0757 -1.1529
 1306TIP3    H225410   5.452   0.029   2.093 -2.3988  0.8462 -0.2516
 1307TIP3   OH225411   2.549   4.305  13.717  0.0174  0.0192  0.0937
 1307TIP3    H125412   2.578   4.303  13.626  0.1329 -1.1840  0.1433
 1307TIP3    H225413   2.473   4.363  13.717  0.4741  0.6223 -0.6271
 1308TIP3   OH225414   1.788   6.272   3.186 -0.5754  0.5783  0.2547
 1308TIP3    H125415   1.857   6.336   3.203 -0.1033 -0.4272  2.4282
 1308TIP3    H225416   1.707   6.321   3.201 -0.2911  1.1378  0.0160
 1309TIP3   OH225417   1.796   5.274  13.430 -0.2647 -0.0013  0.0439
 1309TIP3    H125418   1.833   5.206  13.487 -0.5188  0.4948  0.8130
 1309TIP3    H225419   1.829   5.252  13.343 -0.3457 -1.1184  0.2753
 1310TIP3   OH225420   4.967   3.601  13.564  0.2620 -0.0003 -0.3068
 1310TIP3    H125421   4.918   3.661  13.620  0.4288  0.0320 -0.1944
 1310TIP3    H225422   4.994   3.530  13.621 -0.8970 -0.7624 -0.6794
 1311TIP3   OH225423   4.434   0.130   3.180 -0.0854 -0.7074  0.3013
 1311TIP3    H125424   4.487   0.142   3.101  1.3820 -0.5398  1.2842
 1311TIP3    H225425   4.419   0.218   3.213 -0.4331 -0.7995  0.3966
 1312TIP3   OH225426   2.419   2.353  16.006  0.1642  0.2974 -0.0512
 1312TIP3    H125427   2.429   2.286  16.074  0.6829 -0.9539 -1.3223
 1312TIP3    H225428   2.389   2.430  16.054 -1.4127 -1.0889  1.3329
 1313TIP3   OH225429   6.088   0.641   0.970 -0.0562 -0.0627 -0.3103
 1313TIP3    H125430   6.134   0.609   0.892  1.8998  0.0346  0.7225
 1313TIP3    H225431   6.057   0.728   0.946 -1.2929 -0.8146 -1.6113
 1314TIP3   OH225432   0.930   6.623  13.109 -0.2245  0.3813  0.2127
 1314TIP3    H125433   0.897   6.535  13.095 -2.3757  0.8653  1.7184
 1314TIP3    H225434   1.012   6.611  13.156 -0.8428 -0.8347  1.0260
 1315TIP3   OH225435   0.372   3.948   5.554  0.9155 -0.1217  0.5682
 1315TIP3    H125436   0.459   3.910   5.543  0.4187 -1.0200 -0.3972
 1315TIP3    H225437   0.323   3.919   5.477 -0.0079  1.0347  0.6922
 1316TIP3   OH225438   0.567   6.225  10.820 -0.3998  0.2220 -0.1144
 1316TIP3    H125439   0.614   6.146  10.846 -0.4328  0.3574  0.3641
 1316TIP3    H225440   0.575   6.227  10.725 -2.3264 -1.5977 -0.3994
 1317TIP3   OH225441   0.275   1.915  12.069 -0.2138  0.5733  0.5058
 1317TIP3    H125442   0.252   1.955  11.986 -0.3119  0.0683  0.2815
 1317TIP3    H225443   0.343   1.851  12.046 -0.3259  0.3487  0.7962
 1318TIP3   OH225444   1.393   3.547  12.679 -0.1972  0.1006  0.0180
 1318TIP3    H125445   1.400   3.462  12.636  1.6414  0.8424 -1.2893
 1318TIP3    H225446   1.343   3.529  12.759  0.3997 -2.2692 -0.0544
 1319TIP3   OH225447   3.803   2.767   2.442 -0.2117  0.4585 -0.4364
 1319TIP3    H125448   3.780   2.764   2.535 -1.4034 -0.1722 -0.7240
 1319TIP3    H225449   3.787   2.677   2.411  1.6738  0.2649 -0.9253
 1320TIP3   OH225450   2.820   3.776   0.297 -0.2644  0.0061 -0.1273
 1320TIP3    H125451   2.781   3.740   0.218  0.4488 -1.3745  0.1182
 1320TIP3    H225452   2.914   3.770   0.282 -0.1245  1.2538  0.1701
 1321TIP3   OH225453   1.289   1.432  16.109  0.4985 -0.7258  0.3373
 1321TIP3    H125454   1.226   1.493  16.148  1.3660  0.0793  0.5373
 1321TIP3    H225455   1.238   1.381  16.046 -0.1737  0.5626 -0.2045
 1322TIP3   OH225456   3.535   3.588   2.693 -0.2026  0.0253  0.0707
 1322TIP3    H125457   3.506   3.640   2.768  2.1523  0.4724  0.7500
 1322TIP3    H225458   3.537   3.498   2.726 -1.0247 -0.0528 -0.0718
 1323TIP3   OH225459   5.661   4.019  11.638 -0.3828  0.2433  0.4964
 1323TIP3    H125460   5.738   3.993  11.687  0.5171  0.4481 -0.7446
 1323TIP3    H225461   5.643   4.109  11.666  0.2167  0.4146  0.3426
 1324TIP3   OH225462   4.042   6.624   3.157 -0.2881  0.6030  0.5507
 1324TIP3    H125463   4.097   6.684   3.107 -0.2222  2.0578  2.2802
 1324TIP3    H225464   3.952   6.651   3.135 -0.2628  1.0140  0.9399
 1325TIP3   OH225465   1.893   3.606  14.030  0.4299 -0.6256 -0.3141
 1325TIP3    H125466   1.983   3.583  14.055  0.3670 -0.8400 -0.2905
 1325TIP3    H225467   1.846   3.614  14.113  0.0361 -2.0673 -0.3745
 1326TIP3   OH225468   1.984   0.900  15.347  0.3233  0.6172 -0.9932
 1326TIP3    H125469   2.037   0.898  15.267  0.6168 -0.3485 -0.7850
 1326TIP3    H225470   1.952   0.990  15.351 -0.9047  0.3438 -2.9842
 1327TIP3   OH225471   1.682   4.951   1.775  0.4156  0.4938  0.5058
 1327TIP3    H125472   1.770   4.927   1.747  0.2656  1.8173 -1.2167
 1327TIP3    H225473   1.626   4.884   1.735  0.4400  0.9393 -0.2859
 1328TIP3   OH225474   1.798   2.864   3.884  0.1256  0.1217 -0.2565
 1328TIP3    H125475   1.729   2.833   3.825  0.7634 -0.7067 -0.5919
 1328TIP3    H225476   1.766   2.948   3.916 -0.8086 -0.0084 -0.7967
 1329TIP3   OH225477   5.572   6.623   1.207  0.0943 -0.1559 -0.1304
 1329TIP3    H125478   5.664   6.620   1.230  0.3068  1.8449 -0.5111
 1329TIP3    H225479   5.528   6.574   1.277  1.3871 -0.7857  0.2715
 1330TIP3   OH225480   0.025   4.476  11.565 -0.0623  0.2593  0.0635
 1330TIP3    H125481   0.052   4.533  11.637 -1.2552  1.8926 -0.6968
 1330TIP3    H225482   0.015   4.535  11.490  0.7450 -1.3190 -1.3593
 1331TIP3   OH225483   0.933   2.666   4.971  0.0444  0.4885  0.2591
 1331TIP3    H125484   0.992   2.654   4.897  0.4470 -0.4739  0.7230
 1331TIP3    H225485   0.957   2.752   5.008  1.1358  0.1189  0.4299
 1332TIP3   OH225486   4.741   1.196   0.701 -0.9271  0.1758 -0.0263
 1332TIP3    H125487   4.753   1.180   0.607 -1.6384  1.7276 -0.4147
 1332TIP3    H225488   4.647   1.183   0.715 -1.0774  1.3143  0.1483
 1333TIP3   OH225489   2.052   0.620   1.336  0.0421 -0.2103 -0.4445
 1333TIP3    H125490   2.061   0.589   1.426 -1.6982 -2.2353 -0.9056
 1333TIP3    H225491   2.140   0.614   1.299  0.6685  0.1355  0.9269
 1334TIP3   OH225492   6.087   0.680  15.228 -0.2565  0.1060  0.3228
 1334TIP3    H125493   5.997   0.648  15.228  0.1289 -1.1444 -1.2304
 1334TIP3    H225494   6.125   0.646  15.309 -1.3835  1.3644  1.4110
 1335TIP3   OH225495   5.663   0.053   3.352  0.1387 -0.0385  0.4747
 1335TIP3    H125496   5.690   0.086   3.267  0.3351  0.7062  0.8235
 1335TIP3    H225497   5.608   0.122   3.389 -0.1761 -0.4747  0.8327
 1336TIP3   OH225498   2.255   2.437  11.082 -0.5253  0.3388  0.0556
 1336TIP3    H125499   2.275   2.377  11.010 -0.3169 -0.1277  0.4945
 1336TIP3    H225500   2.168   2.472  11.060 -0.5985 -0.0329 -0.2648
 1337TIP3   OH225501   1.527   3.828   0.691  0.0693  0.1237  0.3460
 1337TIP3    H125502   1.469   3.837   0.615  1.5060  0.0003 -0.8175
 1337TIP3    H225503   1.561   3.916   0.707  1.1553 -0.1559 -0.3252
 1338TIP3   OH225504   6.626   3.977  13.618  0.1339  0.7489  0.5943
 1338TIP3    H125505   6.590   3.926  13.545 -1.6906  0.5130  1.5814
 1338TIP3    H225506   6.622   4.067  13.588  2.0731  0.4753 -0.6376
 1339TIP3   OH225507   0.769   0.588   3.282  0.7963 -0.3423 -0.3306
 1339TIP3    H125508   0.683   0.626   3.264 -1.3547 -4.5084 -0.2669
 1339TIP3    H225509   0.814   0.588   3.198  0.4357  1.1592 -0.5479
 1340TIP3   OH225510   3.243   1.227   0.884  0.4306 -0.1524  0.3297
 1340TIP3    H125511   3.226   1.164   0.814  1.0442 -0.5503  0.5271
 1340TIP3    H225512   3.173   1.291   0.876  0.7096  0.0261 -0.9091
 1341TIP3   OH225513   2.164   5.843  12.395 -0.1591  0.0019  0.2261
 1341TIP3    H125514   2.143   5.803  12.311  0.8116  1.3876 -0.7007
 1341TIP3    H225515   2.085   5.831  12.447 -1.5219  0.8723 -1.5462
 1342TIP3   OH225516   1.020   4.842   3.434 -0.4759 -0.3056  0.6245
 1342TIP3    H125517   1.006   4.921   3.382 -1.2900 -1.8084 -1.6433
 1342TIP3    H225518   0.958   4.849   3.507 -0.5303  1.1233  0.4543
 1343TIP3   OH225519   4.403   3.043   5.053 -0.0256 -0.2436  0.4011
 1343TIP3    H125520   4.421   2.951   5.071 -0.0578 -0.2535  0.3841
 1343TIP3    H225521   4.308   3.052   5.066 -0.5766 -0.8940 -2.4973
 1344TIP3   OH225522   6.780   2.963  15.208 -0.1117  0.4399 -0.4653
 1344TIP3    H125523   6.843   2.939  15.276 -2.0227 -2.6150  0.4462
 1344TIP3    H225524   6.802   2.907  15.134  0.0697  1.5419 -1.2680
 1345TIP3   OH225525   1.223   5.842   0.122 -0.1831 -0.0340 -0.2792
 1345TIP3    H125526   1.132   5.868   0.104 -1.5580 -2.7824  1.8770
 1345TIP3    H225527   1.232   5.756   0.083  1.5808  0.2303 -0.5332
 1346TIP3   OH225528   6.703   2.761   0.589 -0.3077 -0.1002  0.3665
 1346TIP3    H125529   6.742   2.842   0.622 -0.1383 -0.4541  1.0416
 1346TIP3    H225530   6.677   2.782   0.499  1.8407  0.0240 -0.2820
 1347TIP3   OH225531   4.762   4.480  15.540 -0.2302  0.5839 -0.3067
 1347TIP3    H125532   4.779   4.556  15.595  1.3466  0.3963 -0.4756
 1347TIP3    H225533   4.828   4.416  15.566 -0.6152 -0.1935 -1.1586
 1348TIP3   OH225534   1.652   4.624  15.078  0.2498  0.8105 -0.2889
 1348TIP3    H125535   1.614   4.676  15.148  0.2766 -0.9235  1.0765
 1348TIP3    H225536   1.577   4.580  15.037  0.3993  0.5938 -0.3283
 1349TIP3   OH225537   5.931   0.791  13.480  0.1479  0.4853  0.4121
 1349TIP3    H125538   6.004   0.729  13.480  0.8931  1.3333  0.1894
 1349TIP3    H225539   5.882   0.771  13.560 -1.3518 -2.2932 -1.0623
 1350TIP3   OH225540   0.490   2.740   0.657  0.0397  0.6279 -0.4483
 1350TIP3    H125541   0.456   2.662   0.701 -2.3358  2.4029  1.1209
 1350TIP3    H225542   0.557   2.773   0.715  0.4807  0.2216 -0.7182
 1351TIP3   OH225543   4.048   2.900  12.464  0.3560 -0.7836  0.1308
 1351TIP3    H125544   4.059   2.975  12.522 -0.1363  1.0593 -1.9912
 1351TIP3    H225545   4.137   2.868  12.447  0.5068 -1.2772  1.7360
 1352TIP3   OH225546   4.033   1.227   2.490 -0.4323 -0.2920 -0.1314
 1352TIP3    H125547   4.068   1.148   2.533  0.2005  0.3051  0.4743
 1352TIP3    H225548   3.942   1.232   2.520 -1.1389 -1.8997 -1.7748
 1353TIP3   OH225549   6.117   4.824   5.281  0.3259  0.6614 -0.3487
 1353TIP3    H125550   6.097   4.918   5.280 -0.4158  0.5677  1.7156
 1353TIP3    H225551   6.209   4.820   5.255  1.0432  2.1931  1.6884
 1354TIP3   OH225552   2.187   5.097  12.828 -0.4838 -0.1151  0.0899
 1354TIP3    H125553   2.263   5.044  12.803 -0.7716 -1.2281  1.4475
 1354TIP3    H225554   2.221   5.159  12.893 -0.7447 -0.7553  0.8597
 1355TIP3   OH225555   4.418   1.557  14.516  0.8139  0.0673 -0.0985
 1355TIP3    H125556   4.371   1.597  14.588  0.5072 -1.6414  0.6962
 1355TIP3    H225557   4.504   1.535  14.552  0.8720 -0.2531 -0.4222
 1356TIP3   OH225558   1.288   4.480  11.231 -0.2638  0.2397 -0.3973
 1356TIP3    H125559   1.379   4.499  11.212 -0.4416  2.2627  0.5084
 1356TIP3    H225560   1.240   4.558  11.204 -1.7101 -0.6345 -0.5346
 1357TIP3   OH225561   5.157   6.550   5.750  0.2358 -0.1329  0.1018
 1357TIP3    H125562   5.172   6.645   5.747  1.0603 -0.2491  0.1673
 1357TIP3    H225563   5.215   6.519   5.819 -1.8947 -0.3835  1.8826
 1358TIP3   OH225564   4.507   3.716  16.545  0.1891  0.7099 -0.5012
 1358TIP3    H125565   4.511   3.634  16.494 -0.4138  0.5329 -0.2665
 1358TIP3    H225566   4.488   3.783  16.480  0.5156  0.6458 -0.6693
 1359TIP3   OH225567   5.618   5.053   5.827  0.1559  0.1991  0.3389
 1359TIP3    H125568   5.662   5.017   5.904  0.7052 -0.3300 -0.2125
 1359TIP3    H225569   5.544   4.994   5.813  1.6603 -1.4597 -1.2076
 1360TIP3   OH225570   5.777   5.184  10.900 -0.2242 -0.1234 -0.0004
 1360TIP3    H125571   5.729   5.136  10.832 -1.3034 -0.1021  0.7110
 1360TIP3    H225572   5.840   5.121  10.933  1.2700  0.2796 -1.9135
 1361TIP3   OH225573   2.343   1.765  16.409 -0.1007  0.1169  0.6102
 1361TIP3    H125574   2.361   1.858  16.398  2.0794 -0.4734 -1.9084
 1361TIP3    H225575   2.428   1.726  16.431 -0.9185 -1.3422  1.4285
 1362TIP3   OH225576   5.187   5.937   3.556 -0.2150  0.5269 -0.0060
 1362TIP3    H125577   5.142   5.876   3.497 -1.0410  2.0516 -1.0110
 1362TIP3    H225578   5.188   6.020   3.508  0.1610  1.5197  1.6538
 1363TIP3   OH225579   0.069   1.495  15.439 -0.2612  0.5029 -0.3903
 1363TIP3    H125580   0.148   1.444  15.459 -1.2166 -0.6328  0.5983
 1363TIP3    H225581   0.014   1.436  15.388  0.5652  2.1544 -3.4322
 1364TIP3   OH225582   3.815   5.488   5.486  0.0172 -0.1688 -0.2333
 1364TIP3    H125583   3.761   5.459   5.559  0.7919 -0.4120  0.2546
 1364TIP3    H225584   3.890   5.429   5.486  0.8952  0.9041 -0.1327
 1365TIP3   OH225585   5.431   3.586   1.033  0.2700  0.0623 -0.0354
 1365TIP3    H125586   5.407   3.507   1.082 -0.0574  0.2401  0.0922
 1365TIP3    H225587   5.381   3.580   0.952 -0.3052  0.4965  0.2843
 1366TIP3   OH225588   2.126   0.116  11.378 -0.2417 -0.4140 -0.7739
 1366TIP3    H125589   2.074   0.041  11.348  2.3765 -1.5537 -2.9289
 1366TIP3    H225590   2.071   0.192  11.359 -2.7918 -1.6507  1.0600
 1367TIP3   OH225591   3.034   1.824  11.698  0.3424  0.2519 -0.0183
 1367TIP3    H125592   3.012   1.916  11.706  0.4869  0.3378 -0.5845
 1367TIP3    H225593   2.976   1.780  11.760  1.3841  0.8705  1.4508
 1368TIP3   OH225594   0.345   1.110   4.799  0.0278 -0.2221 -0.2998
 1368TIP3    H125595   0.303   1.190   4.767 -0.4367 -0.6712 -0.8407
 1368TIP3    H225596   0.333   1.112   4.893  0.2166  0.4564 -0.2867
 1369TIP3   OH225597   4.027   4.939   3.776 -0.2298 -0.2332 -0.2008
 1369TIP3    H125598   4.103   4.896   3.737  1.0093  0.6609  1.1306
 1369TIP3    H225599   4.062   5.017   3.819 -1.7353 -0.2880  1.2587
 1370TIP3   OH225600   4.077   0.962   0.300  0.4002 -0.0974  0.1839
 1370TIP3    H125601   4.171   0.945   0.293  0.2063 -0.7325 -1.4709
 1370TIP3    H225602   4.070   1.036   0.360  1.9234 -0.2707  0.6280
 1371TIP3   OH225603   6.814   3.432  10.836  0.0656  0.1128  0.1466
 1371TIP3    H125604   6.884   3.426  10.770 -0.5769 -2.1474 -0.4141
 1371TIP3    H225605   6.858   3.464  10.915  1.3953  0.2638 -0.6284
 1372TIP3   OH225606   4.684   6.191   1.159  0.7511 -0.4578 -0.3815
 1372TIP3    H125607   4.698   6.098   1.175  2.3288 -0.1406  0.2445
 1372TIP3    H225608   4.766   6.222   1.120  1.3873  1.2277  2.0552
 1373TIP3   OH225609   3.329   5.753  10.636  0.1175 -0.0471  0.6605
 1373TIP3    H125610   3.398   5.721  10.578 -0.8319 -0.8860 -0.0444
 1373TIP3    H225611   3.262   5.787  10.577 -0.0635  0.8133  1.3326
 1374TIP3   OH225612   2.601   3.560  11.554  0.2888 -0.5031 -0.0946
 1374TIP3    H125613   2.526   3.509  11.585  0.6164  0.0126  1.6574
 1374TIP3    H225614   2.647   3.501  11.494 -0.9440 -1.1927 -0.3967
 1375TIP3   OH225615   3.978   2.355  16.710  0.3722  0.2128 -0.1345
 1375TIP3    H125616   3.997   2.308  16.629 -0.7687  0.0169 -0.3052
 1375TIP3    H225617   4.058   2.403  16.729  0.5071  0.6466 -1.6479
 1376TIP3   OH225618   4.331   5.157  16.504 -0.1003  0.4195  0.4144
 1376TIP3    H125619   4.356   5.069  16.534 -0.0180 -0.0025 -0.8209
 1376TIP3    H225620   4.235   5.156  16.505 -0.1195  0.9239  2.0362
 1377TIP3   OH225621   6.639   2.507   3.661  0.0917 -0.6422  0.3580
 1377TIP3    H125622   6.631   2.509   3.757 -1.5371  2.3249  0.2796
 1377TIP3    H225623   6.562   2.458   3.632  0.5188 -1.4370  0.5542
 1378TIP3   OH225624   6.125   0.479  16.389 -0.2655  0.0639  0.4521
 1378TIP3    H125625   6.146   0.401  16.440 -0.5684  0.2479  0.8637
 1378TIP3    H225626   6.154   0.552  16.443  0.4154  0.2291 -0.1191
 1379TIP3   OH225627   0.980   5.727  15.083 -0.6928  0.2213 -0.2967
 1379TIP3    H125628   1.044   5.763  15.144  0.0561 -1.8477  0.2326
 1379TIP3    H225629   0.995   5.774  15.001 -0.6480  1.9523  0.6759
 1380TIP3   OH225630   2.026   3.437   5.319  0.3663  0.2634 -0.3885
 1380TIP3    H125631   2.051   3.358   5.368  0.4429  0.2287 -0.4827
 1380TIP3    H225632   1.979   3.490   5.382  0.3073  0.1381 -0.3260
 1381TIP3   OH225633   6.808   2.405   1.444 -0.0237 -0.0589 -0.8265
 1381TIP3    H125634   6.878   2.470   1.438  0.0581  0.0115  0.6450
 1381TIP3    H225635   6.727   2.457   1.448 -0.1739 -0.1360 -2.3330
 1382TIP3   OH225636   3.646   1.002   5.472 -0.2023 -0.1440 -0.1785
 1382TIP3    H125637   3.647   0.907   5.475 -1.3261 -0.1804 -0.5323
 1382TIP3    H225638   3.585   1.024   5.402 -1.2890  0.8281  0.9990
 1383TIP3   OH225639   0.505   0.785  17.044  0.2164  0.1838  0.1706
 1383TIP3    H125640   0.567   0.715  17.067  0.8291  0.2765 -1.1070
 1383TIP3    H225641   0.447   0.745  16.980 -0.9346  0.1715  1.1926
 1384TIP3   OH225642   1.344   6.168  10.662 -0.2003  0.2976  0.3162
 1384TIP3    H125643   1.438   6.160  10.645 -0.3413 -0.4222 -0.1678
 1384TIP3    H225644   1.308   6.084  10.634 -1.1263  0.9320 -0.4470
 1385TIP3   OH225645   3.023   6.025  15.617 -0.0358  0.2772 -0.4545
 1385TIP3    H125646   3.028   5.936  15.581 -1.5913  0.8505 -2.2292
 1385TIP3    H225647   2.950   6.022  15.678 -0.7334  0.5632 -1.2643
 1386TIP3   OH225648   3.359   0.421   0.521  0.2082 -0.6024  0.3619
 1386TIP3    H125649   3.331   0.343   0.473 -0.5862 -0.6076  0.8108
 1386TIP3    H225650   3.449   0.435   0.494 -0.3246 -0.3859 -1.4209
 1387TIP3   OH225651   3.050   1.543  12.534  0.3126 -0.4301  0.1919
 1387TIP3    H125652   2.997   1.521  12.611 -3.0856 -2.1018 -2.3909
 1387TIP3    H225653   3.020   1.631  12.510  0.9661 -0.1460  0.3752
 1388TIP3   OH225654   3.891   4.897  16.425 -0.2547 -0.4606  0.6579
 1388TIP3    H125655   3.894   4.849  16.508 -1.6993 -1.8828 -0.0582
 1388TIP3    H225656   3.938   4.841  16.363 -0.3778 -0.0740  0.2059
 1389TIP3   OH225657   6.007   0.805  16.854 -0.4273  0.3659  0.2276
 1389TIP3    H125658   6.093   0.844  16.839 -0.0835 -0.4078  0.1385
 1389TIP3    H225659   6.022   0.711  16.846 -1.4166  0.2570 -0.4846
 1390TIP3   OH225660   4.962   6.066   6.143 -0.0049  0.1472  0.4132
 1390TIP3    H125661   4.956   6.160   6.124 -1.1387 -0.4213 -2.6482
 1390TIP3    H225662   5.056   6.046   6.139  0.1123  0.8543 -0.8443
 1391TIP3   OH225663   3.721   3.247   5.374  0.1367  0.2093 -0.1837
 1391TIP3    H125664   3.813   3.244   5.401  0.3506 -1.8180 -0.9906
 1391TIP3    H225665   3.699   3.156   5.354 -2.0302  0.6756 -0.1163
 1392TIP3   OH225666   1.794   1.288  14.684  0.1977  0.1092 -0.1028
 1392TIP3    H125667   1.776   1.362  14.626  1.0206  1.8544  1.7366
 1392TIP3    H225668   1.760   1.315  14.769  2.7900 -0.4918  1.2312
 1393TIP3   OH225669   1.527   4.371  12.578  0.1654 -0.4803 -0.3396
 1393TIP3    H125670   1.469   4.328  12.516  0.4620 -1.1345 -0.1706
 1393TIP3    H225671   1.584   4.425  12.524 -0.7143  0.3293 -0.4933
 1394TIP3   OH225672   5.656   5.145  14.812  0.4958 -0.3762 -0.2684
 1394TIP3    H125673   5.617   5.107  14.733  1.4019  2.4602 -2.2568
 1394TIP3    H225674   5.710   5.076  14.849 -1.6269 -2.4672 -0.8556
 1395TIP3   OH225675   3.065   3.892  13.860 -0.1138 -0.0772  0.3587
 1395TIP3    H125676   3.082   3.917  13.951  1.4982 -1.6731  0.5662
 1395TIP3    H225677   3.129   3.942  13.809  0.3117 -0.6218  0.3419
 1396TIP3   OH225678   0.078   0.814   0.513 -0.1509 -0.2913 -0.3327
 1396TIP3    H125679   0.144   0.762   0.558  0.8348  0.3642 -0.9904
 1396TIP3    H225680   0.053   0.881   0.577  3.5876  2.6834 -1.6365
 1397TIP3   OH225681   0.616   4.025  14.233  0.3637  0.3730  0.0098
 1397TIP3    H125682   0.612   4.115  14.202  1.7703  0.7242  0.7770
 1397TIP3    H225683   0.708   4.000  14.226 -0.2347 -1.6138 -1.7870
 1398TIP3   OH225684   5.724   5.355  12.328  0.1823 -0.5138  0.1697
 1398TIP3    H125685   5.745   5.330  12.417 -0.3710  1.0807  0.7792
 1398TIP3    H225686   5.660   5.425  12.337 -1.1943 -1.4752 -1.5177
 1399TIP3   OH225687   6.812   1.482   0.975  0.5375  0.1839 -0.4163
 1399TIP3    H125688   6.814   1.551   1.041 -1.8264  0.2847 -0.3847
 1399TIP3    H225689   6.881   1.421   1.002  0.5481  0.9320  1.3505
 1400TIP3   OH225690   6.143   3.693  13.496 -0.0440 -0.2380  0.3435
 1400TIP3    H125691   6.151   3.678  13.590 -2.8378  0.3162  0.7830
 1400TIP3    H225692   6.147   3.789  13.487  2.2653 -0.3594 -0.4211
 1401TIP3   OH225693   6.757   6.052   2.577  0.5138 -0.5975 -0.2735
 1401TIP3    H125694   6.795   5.965   2.564 -0.3830 -1.4301  2.1386
 1401TIP3    H225695   6.677   6.036   2.627  1.9811  1.7971  3.2244
 1402TIP3   OH225696   3.432   4.398   3.691  0.2770  0.4890 -0.0538
 1402TIP3    H125697   3.495   4.352   3.635  0.4504 -0.0695  0.6018
 1402TIP3    H225698   3.470   4.394   3.778 -0.3943  0.6500  0.2472
 1403TIP3   OH225699   0.108   6.015  12.719 -0.1208  0.4750  0.6634
 1403TIP3    H125700   0.111   6.033  12.625 -4.0582  0.6513  0.4188
 1403TIP3    H225701   0.095   5.920  12.726  1.2170  0.3017  1.1351
 1404TIP3   OH225702   0.907   0.689   3.081 -0.1786 -0.6973  0.2939
 1404TIP3    H125703   0.898   0.708   2.988  3.5016 -0.3298 -0.1431
 1404TIP3    H225704   0.937   0.772   3.120 -1.0218 -1.0114  1.7054
 1405TIP3   OH225705   3.842   4.739   6.366 -0.4147 -0.4255 -0.3527
 1405TIP3    H125706   3.759   4.760   6.408 -0.2387 -1.7713  0.7584
 1405TIP3    H225707   3.890   4.822   6.363 -0.9227 -0.0584  1.0274
 1406TIP3   OH225708   4.075   5.560   4.308 -0.0543  0.2926 -0.8389
 1406TIP3    H125709   4.090   5.655   4.313  1.6814  0.0172  0.3045
 1406TIP3    H225710   3.980   5.550   4.312 -0.2427  1.8886  3.1524
 1407TIP3   OH225711   1.914   0.813   3.279 -0.0718  0.3437  0.0708
 1407TIP3    H125712   2.001   0.807   3.238 -0.6056 -0.5847 -0.9997
 1407TIP3    H225713   1.867   0.877   3.226  0.4032  1.9859  1.5627
 1408TIP3   OH225714   3.679   0.869   0.661  0.5001  0.3015 -0.1718
 1408TIP3    H125715   3.667   0.870   0.566 -0.3010  0.0889 -0.0767
 1408TIP3    H225716   3.594   0.844   0.696  0.9047 -0.0344  0.5897
 1409TIP3   OH225717   3.630   4.071  14.772 -0.1385 -0.0433  0.2492
 1409TIP3    H125718   3.538   4.090  14.757 -0.4528  0.0127  2.0361
 1409TIP3    H225719   3.630   3.988  14.820  0.7893 -0.4333 -0.3859
 1410TIP3   OH225720   1.871   3.753  13.673  0.2406  0.0798  0.6508
 1410TIP3    H125721   1.822   3.802  13.607  0.1432  1.8120  1.9335
 1410TIP3    H225722   1.808   3.690  13.709 -0.9046  1.7998  1.7850
 1411TIP3   OH225723   4.595   2.026   2.633  0.7021  0.2657  0.1021
 1411TIP3    H125724   4.513   2.068   2.606  0.9636  1.0731  0.5533
 1411TIP3    H225725   4.662   2.094   2.622  1.2870 -0.3272 -0.0769
 1412TIP3   OH225726   3.294   4.034  16.186 -0.4752 -0.5548  0.7578
 1412TIP3    H125727   3.212   3.992  16.211 -1.1202  0.7663  0.9085
 1412TIP3    H225728   3.320   4.084  16.263 -1.8699  2.6113 -0.6655
 1413TIP3   OH225729   4.851   1.999   5.528  0.1396 -0.8412  0.1721
 1413TIP3    H125730   4.890   2.080   5.561 -1.5911  0.4507 -0.7965
 1413TIP3    H225731   4.880   1.932   5.590  2.1652  0.3736  0.6254
 1414TIP3   OH225732   5.554   5.289  11.791  0.1383  0.0865 -0.2865
 1414TIP3    H125733   5.524   5.266  11.703  1.2194 -0.8802 -0.4298
 1414TIP3    H225734   5.605   5.213  11.819  1.8120  1.3504  0.2230
 1415TIP3   OH225735   0.377   0.625   3.027 -0.2516  0.0109  0.3036
 1415TIP3    H125736   0.408   0.588   3.110 -1.4098  1.9130  1.6722
 1415TIP3    H225737   0.398   0.718   3.034 -3.0114  0.7482 -0.1947
 1416TIP3   OH225738   1.132   4.643  16.519  0.4261  0.2658  0.6154
 1416TIP3    H125739   1.161   4.618  16.607  0.0223  1.0432  0.9876
 1416TIP3    H225740   1.076   4.571  16.491  1.4753 -0.5217  0.5167
 1417TIP3   OH225741   2.546   2.540  12.795  0.4966  0.2797  0.3738
 1417TIP3    H125742   2.627   2.564  12.840  0.3812  1.0414  0.1804
 1417TIP3    H225743   2.510   2.468  12.848 -0.0698  1.6870  2.0175
 1418TIP3   OH225744   0.865   5.237  13.820  0.2045 -0.1446  0.5557
 1418TIP3    H125745   0.888   5.294  13.893  2.8660 -0.3788  0.0001
 1418TIP3    H225746   0.946   5.228  13.769 -0.7207 -2.5116 -0.6988
 1419TIP3   OH225747   1.305   6.628  13.612  0.4419 -0.0394  0.0049
 1419TIP3    H125748   1.225   6.646  13.662  1.4954  0.4173  1.5924
 1419TIP3    H225749   1.317   6.706  13.557  0.3087  0.3054  0.4620
 1420TIP3   OH225750   0.033   2.778  14.985  0.7079 -0.7122 -0.5009
 1420TIP3    H125751   0.102   2.736  15.035 -0.6721 -1.5314  0.7970
 1420TIP3    H225752   0.071   2.861  14.956  2.9527 -2.0690 -1.7465
 1421TIP3   OH225753   6.380   6.193   2.156  0.2577  0.2565 -0.1565
 1421TIP3    H125754   6.466   6.168   2.191 -0.4590 -0.8556  0.8842
 1421TIP3    H225755   6.395   6.278   2.114  1.5599  0.7795  1.2694
 1422TIP3   OH225756   4.243   1.217   4.944  0.4577 -0.0041  0.2366
 1422TIP3    H125757   4.251   1.309   4.968 -0.0636  0.3128 -0.7115
 1422TIP3    H225758   4.330   1.192   4.916  0.7081  0.0681  0.9467
 1423TIP3   OH225759   0.173   3.612   2.252  0.2031 -0.1930 -0.4228
 1423TIP3    H125760   0.084   3.582   2.238  0.2236 -0.9341  0.8950
 1423TIP3    H225761   0.169   3.662   2.334  0.9936 -0.2228 -0.3556
 1424TIP3   OH225762   3.918   0.302  11.759  0.2841  0.0523 -0.2352
 1424TIP3    H125763   3.931   0.216  11.717 -0.0849 -0.1465  0.0510
 1424TIP3    H225764   3.853   0.285  11.826 -0.0007  0.6265 -0.3674
 1425TIP3   OH225765   5.419   6.612  12.431  0.1016 -0.6263 -0.0055
 1425TIP3    H125766   5.365   6.571  12.363 -0.1959  1.5668 -1.2071
 1425TIP3    H225767   5.507   6.615  12.394  0.2223 -0.6649  0.2772
 1426TIP3   OH225768   1.660   5.943  12.435 -0.0065  0.0139 -0.1106
 1426TIP3    H125769   1.711   5.878  12.386 -0.2256  0.5374 -1.0474
 1426TIP3    H225770   1.580   5.897  12.460 -1.3851  0.5958 -3.0280
 1427TIP3   OH225771   5.600   0.726  12.378 -0.9320 -0.1305  0.5384
 1427TIP3    H125772   5.645   0.678  12.448 -0.0832 -0.0084  0.0817
 1427TIP3    H225773   5.619   0.677  12.299 -0.7279  0.5037  0.1888
 1428TIP3   OH225774   6.077   3.137  11.290  0.2931  0.7577  0.6806
 1428TIP3    H125775   6.014   3.173  11.228  0.7310  1.4849  0.6411
 1428TIP3    H225776   6.161   3.171  11.261  0.6042  0.4471  1.2002
 1429TIP3   OH225777   1.397   2.716  16.717  0.3627  0.1221  0.5827
 1429TIP3    H125778   1.455   2.661  16.770  1.1629  1.1274  0.7824
 1429TIP3    H225779   1.456   2.774  16.669 -0.3779 -0.2444 -0.8555
 1430TIP3   OH225780   1.199   6.105   5.074 -0.2809 -0.4278  0.0681
 1430TIP3    H125781   1.208   6.129   5.166  1.8008  0.0881 -0.2069
 1430TIP3    H225782   1.105   6.106   5.057 -0.7741 -1.3756  2.3851
 1431TIP3   OH225783   5.654   1.479   4.752  0.0861 -0.2494  0.0923
 1431TIP3    H125784   5.583   1.497   4.813  0.5211  2.2310 -0.0295
 1431TIP3    H225785   5.621   1.408   4.697 -2.3398  0.8667 -0.0098
 1432TIP3   OH225786   0.460   3.885  11.911  0.0168 -0.4193  0.6688
 1432TIP3    H125787   0.511   3.965  11.925  0.2070 -0.1694 -1.2134
 1432TIP3    H225788   0.473   3.865  11.818 -2.1780 -1.1525  0.4791
 1433TIP3   OH225789   3.385   5.250   5.731 -0.0024 -0.4888 -0.1717
 1433TIP3    H125790   3.449   5.255   5.802  1.7542 -0.1203 -1.7053
 1433TIP3    H225791   3.394   5.161   5.698  1.3284  0.1913 -1.7660
 1434TIP3   OH225792   0.379   1.547   1.482  0.1533  0.2752 -0.7518
 1434TIP3    H125793   0.301   1.563   1.429  0.2929 -0.0073 -1.0471
 1434TIP3    H225794   0.344   1.511   1.564 -0.0191 -0.0954 -0.9795
 1435TIP3   OH225795   4.518   1.382   0.444  0.3054  0.3017 -0.4428
 1435TIP3    H125796   4.451   1.354   0.382 -0.5808 -0.1932  0.7017
 1435TIP3    H225797   4.540   1.471   0.417 -0.9739  0.5523 -0.7254
 1436TIP3   OH225798   1.776   0.178   0.713  0.6869 -0.0265  0.0712
 1436TIP3    H125799   1.691   0.162   0.672 -0.4252 -1.0046  2.5158
 1436TIP3    H225800   1.772   0.269   0.742  0.0106 -0.3387  1.0362
 1437TIP3   OH225801   2.475   3.516  16.313  0.2612 -0.1597 -0.2557
 1437TIP3    H125802   2.491   3.422  16.312 -1.3850 -0.4955  0.6031
 1437TIP3    H225803   2.498   3.545  16.225 -0.6109 -1.6431 -1.0159
 1438TIP3   OH225804   0.090   4.715  11.725  0.0386  0.4117 -0.1857
 1438TIP3    H125805   0.113   4.768  11.648 -0.8998 -1.1560 -1.6110
 1438TIP3    H225806   0.000   4.739  11.745 -0.6838 -1.1204 -1.3486
 1439TIP3   OH225807   3.926   6.347  12.775  0.2957 -0.0790  0.2331
 1439TIP3    H125808   3.935   6.423  12.719  0.5289 -0.8426 -0.7921
 1439TIP3    H225809   3.971   6.277  12.728  0.1989 -0.8200  1.2134
 1440TIP3   OH225810   5.045   6.418   3.992 -0.1751  0.7791 -0.0944
 1440TIP3    H125811   5.003   6.374   3.918  0.1055  0.8692 -0.3093
 1440TIP3    H225812   5.116   6.359   4.016 -0.2717  0.7458  0.1099
 1441TIP3   OH225813   4.005   3.791   3.844  0.2174  0.2032 -0.4121
 1441TIP3    H125814   4.062   3.794   3.920  1.1059 -0.0666 -1.0450
 1441TIP3    H225815   4.064   3.804   3.769  0.0354 -3.3793 -1.3460
 1442TIP3   OH225816   4.277   4.123   0.863  0.0796  0.4032 -0.1006
 1442TIP3    H125817   4.310   4.212   0.857  0.6160  0.1961 -0.2139
 1442TIP3    H225818   4.328   4.073   0.799  1.1353 -0.3815  1.2869
 1443TIP3   OH225819   0.598   6.489  15.353 -0.2563  0.2498 -0.3316
 1443TIP3    H125820   0.516   6.501  15.400 -1.1442  0.7297 -1.9487
 1443TIP3    H225821   0.633   6.578  15.343  0.3601  0.0705  0.1224
 1444TIP3   OH225822   0.275   0.848   3.761 -0.6616 -0.5281 -0.2698
 1444TIP3    H125823   0.280   0.754   3.749  0.7844 -0.4276 -0.6944
 1444TIP3    H225824   0.356   0.870   3.809 -1.9398  0.2451  1.6816
 1445TIP3   OH225825   6.158   6.481   6.228  0.2764  0.0450 -0.3057
 1445TIP3    H125826   6.177   6.427   6.305 -0.0639 -0.4790 -0.5830
 1445TIP3    H225827   6.141   6.568   6.264  1.3216  0.0919  0.1057
 1446TIP3   OH225828   0.011   5.218  11.203  0.1828 -0.3657  0.2719
 1446TIP3    H125829   0.097   5.179  11.214  1.1933  1.5172 -0.4586
 1446TIP3    H225830  -0.015   5.196  11.113  1.9537  2.6490 -1.1326
 1447TIP3   OH225831   5.757   2.237   2.132 -0.0437  0.0382 -0.2130
 1447TIP3    H125832   5.735   2.304   2.067  2.0081 -0.8490 -1.9141
 1447TIP3    H225833   5.677   2.228   2.184 -0.8002  2.8986 -0.6720
 1448TIP3   OH225834   4.731   0.802  16.425 -0.3909 -0.3904  1.3646
 1448TIP3    H125835   4.756   0.880  16.475 -0.6522 -0.5496  1.7523
 1448TIP3    H225836   4.799   0.794  16.358 -1.0625  0.9096  0.4880
 1449TIP3   OH225837   0.665   2.835   0.881  0.3831  0.3813  0.4048
 1449TIP3    H125838   0.623   2.792   0.956  0.0529 -1.1053 -0.5934
 1449TIP3    H225839   0.640   2.927   0.890 -1.3774 -0.1126  0.9995
 1450TIP3   OH225840   0.443   0.414  16.796  0.6056  0.0131 -0.1026
 1450TIP3    H125841   0.408   0.502  16.788 -0.1944 -0.2227  0.6871
 1450TIP3    H225842   0.522   0.415  16.743  1.0450  1.4341  0.5306
 1451TIP3   OH225843   1.053   4.351   3.347  0.4080  0.1367 -0.4941
 1451TIP3    H125844   1.087   4.398   3.271 -0.2239  1.7302  0.1637
 1451TIP3    H225845   1.073   4.407   3.422 -2.0710  0.3294  0.1089
 1452TIP3   OH225846   5.563   0.174  14.190  0.0335  0.1949  0.1417
 1452TIP3    H125847   5.512   0.113  14.243 -0.7371  1.8091  1.3404
 1452TIP3    H225848   5.650   0.134  14.185 -0.6762 -1.4193  0.1157
 1453TIP3   OH225849   4.735   2.091  13.465  0.2021  0.1003 -0.3422
 1453TIP3    H125850   4.806   2.153  13.476 -1.8567  2.6526 -0.5292
 1453TIP3    H225851   4.752   2.050  13.380  0.4467  2.1265 -1.3360
 1454TIP3   OH225852   5.188   3.372  12.071 -0.3115  0.6330  0.6021
 1454TIP3    H125853   5.226   3.450  12.031  0.1683 -0.1992 -0.6087
 1454TIP3    H225854   5.253   3.345  12.136 -0.1957  0.8917  0.5960
 1455TIP3   OH225855   2.203   3.658  12.937  0.0170  0.7269 -0.0066
 1455TIP3    H125856   2.273   3.631  12.877  1.1677  0.6015  1.3256
 1455TIP3    H225857   2.122   3.639  12.890  0.8701  0.6601 -1.5128
 1456TIP3   OH225858   5.605   6.422  17.153  0.5400  0.4892  0.2421
 1456TIP3    H125859   5.536   6.476  17.113 -0.9349 -1.6041 -0.1980
 1456TIP3    H225860   5.680   6.431  17.094 -0.4652  0.2119 -1.1164
 1457TIP3   OH225861   3.479   4.937   0.433 -1.0027  0.2776  0.1110
 1457TIP3    H125862   3.518   4.851   0.448  0.4531  0.6917 -1.0329
 1457TIP3    H225863   3.450   4.935   0.341 -0.8934  1.0111  0.0512
 1458TIP3   OH225864   1.005   2.415   3.996 -0.0689 -0.4020 -0.1937
 1458TIP3    H125865   1.058   2.335   3.999  2.7210  1.3196  2.1850
 1458TIP3    H225866   1.066   2.485   4.019 -2.2571  2.5641 -2.5391
 1459TIP3   OH225867   5.133   5.488   3.699 -0.0766 -0.1562 -0.2413
 1459TIP3    H125868   5.068   5.557   3.710 -1.0125 -1.0440 -0.1233
 1459TIP3    H225869   5.107   5.444   3.618  0.0858 -0.8279  0.0711
 1460TIP3   OH225870   1.351   1.265   3.422  0.0051 -0.1772  0.2366
 1460TIP3    H125871   1.424   1.229   3.473  2.0447  0.9297 -1.6971
 1460TIP3    H225872   1.381   1.352   3.396 -2.1153  0.3979 -0.5053
 1461TIP3   OH225873   5.044   0.582  14.568  0.3303 -0.1360 -0.4226
 1461TIP3    H125874   4.987   0.610  14.496 -0.3669  0.4079  0.3162
 1461TIP3    H225875   5.006   0.500  14.598  0.2020 -0.0013 -0.2179
 1462TIP3   OH225876   2.960   1.424  15.765  0.6926 -0.1018 -0.0322
 1462TIP3    H125877   2.978   1.331  15.750  1.2009  0.3242 -2.3686
 1462TIP3    H225878   2.866   1.434  15.749  0.7190 -0.1269 -0.1952
 1463TIP3   OH225879   0.326   2.723  14.595  0.1594 -0.4019 -0.0983
 1463TIP3    H125880   0.391   2.745  14.528 -0.7598 -0.3104 -0.9921
 1463TIP3    H225881   0.263   2.668  14.549 -0.1591 -0.8628  0.8698
 1464TIP3   OH225882   5.225   5.388   3.411 -0.2422  0.4072 -0.1664
 1464TIP3    H125883   5.136   5.425   3.409 -0.6350 -0.1396  2.8420
 1464TIP3    H225884   5.216   5.301   3.373 -0.6901  0.8460 -1.1026
 1465TIP3   OH225885   6.389   5.849  17.150  0.1586 -0.7204 -0.6197
 1465TIP3    H125886   6.346   5.878  17.069  0.1607  1.6415  0.1499
 1465TIP3    H225887   6.317   5.832  17.211  0.0752  3.6458  0.8052
 1466TIP3   OH225888   3.153   1.510   2.550  0.5121  0.0567 -0.4524
 1466TIP3    H125889   3.075   1.470   2.511 -0.0612  1.5419 -0.8832
 1466TIP3    H225890   3.227   1.471   2.503  0.1277 -2.0414  0.5532
 1467TIP3   OH225891   0.767   0.957  16.789  0.0221 -0.7086 -0.0886
 1467TIP3    H125892   0.832   0.994  16.729 -0.4328  0.9032  0.3707
 1467TIP3    H225893   0.808   0.963  16.875 -0.9315  0.8981  0.2868
 1468TIP3   OH225894   4.110   5.168   3.241 -0.1405  0.2946 -0.0749
 1468TIP3    H125895   4.080   5.078   3.237 -0.6396  0.4265  0.5873
 1468TIP3    H225896   4.205   5.162   3.233  0.2005 -0.5909  3.1046
 1469TIP3   OH225897   3.115   3.894   4.543  0.5464  0.6483 -0.1000
 1469TIP3    H125898   3.092   3.965   4.602 -1.3199  0.4782 -0.5718
 1469TIP3    H225899   3.032   3.850   4.524  1.2074  0.1772 -2.1488
 1470TIP3   OH225900   4.437   0.792  15.536 -0.1832  0.6881  0.3845
 1470TIP3    H125901   4.411   0.758  15.622 -1.1039  1.8408  0.5955
 1470TIP3    H225902   4.449   0.886  15.550 -0.2524  0.8792 -0.7340
 1471TIP3   OH225903   6.773   3.448   3.013 -0.0541  0.2583  0.5129
 1471TIP3    H125904   6.700   3.485   3.062 -2.2168 -0.1246 -2.1911
 1471TIP3    H225905   6.834   3.521   3.003 -1.4728  1.4673  0.3054
 1472TIP3   OH225906   2.912   5.940   3.713 -0.4287 -0.1696  0.2042
 1472TIP3    H125907   2.886   6.032   3.710 -0.1175 -0.1109 -0.9819
 1472TIP3    H225908   3.002   5.941   3.748 -1.2120 -0.2248  2.3708
 1473TIP3   OH225909   3.221   6.570   5.280 -0.1867 -0.1277 -0.1566
 1473TIP3    H125910   3.292   6.515   5.247 -0.3692 -0.0094 -0.7629
 1473TIP3    H225911   3.261   6.620   5.352  1.2141  2.0651 -2.2704
 1474TIP3   OH225912   2.458   4.864  14.557  0.2222  0.0946  0.7929
 1474TIP3    H125913   2.457   4.811  14.477 -0.5843  0.6803  0.4076
 1474TIP3    H225914   2.477   4.801  14.627  0.4742 -0.4992  0.2035
 1475TIP3   OH225915   3.379   4.220  14.724  0.2968  0.8988 -0.6240
 1475TIP3    H125916   3.377   4.186  14.635  1.6415  1.2110 -0.8004
 1475TIP3    H225917   3.324   4.298  14.722 -2.2690 -0.8102 -0.3808
 1476TIP3   OH225918   6.040   0.549  11.607 -0.0070  0.5245 -0.5647
 1476TIP3    H125919   6.059   0.640  11.582  1.8158 -0.2370 -2.2489
 1476TIP3    H225920   5.987   0.516  11.535 -2.6495  0.8160  1.1296
 1477TIP3   OH225921   2.676   3.723  16.457  0.2377 -0.2432 -0.4529
 1477TIP3    H125922   2.640   3.692  16.540  1.2830 -0.8059 -0.1914
 1477TIP3    H225923   2.625   3.677  16.390  0.9558 -1.6297 -0.0850
 1478TIP3   OH225924   4.615   3.139   2.856 -0.0438 -0.5910 -0.4407
 1478TIP3    H125925   4.701   3.099   2.861  0.5398  0.4536 -1.6188
 1478TIP3    H225926   4.579   3.107   2.773 -0.1817  0.1422 -0.6645
 1479TIP3   OH225927   4.545   3.631  11.971 -0.5024 -0.2796 -0.3942
 1479TIP3    H125928   4.587   3.560  11.923  0.8735 -0.1997  0.6337
 1479TIP3    H225929   4.533   3.700  11.906 -0.8528 -1.0400 -1.1547
 1480TIP3   OH225930   2.894   3.561  14.490 -0.4182 -0.6278  0.3601
 1480TIP3    H125931   2.921   3.556  14.582 -0.4144  0.4442  0.4298
 1480TIP3    H225932   2.816   3.506  14.485  0.3264 -1.7462  0.7038
 1481TIP3   OH225933   6.279   3.410   5.684 -0.7879  0.0294  0.2144
 1481TIP3    H125934   6.200   3.364   5.658  0.6286 -1.2493 -2.2160
 1481TIP3    H225935   6.350   3.348   5.668  0.7874  1.1719  2.1530
 1482TIP3   OH225936   0.442   3.214  13.497  0.2565 -0.2361 -0.4203
 1482TIP3    H125937   0.457   3.267  13.419  1.7399 -0.3330 -0.2380
 1482TIP3    H225938   0.377   3.262  13.547 -0.6146 -0.0958 -1.6363
 1483TIP3   OH225939   5.332   5.022  12.582 -0.6956 -0.4936 -0.5999
 1483TIP3    H125940   5.390   4.947  12.564  0.7723  0.4860 -0.1405
 1483TIP3    H225941   5.369   5.093  12.529 -1.1310  0.3120  0.1667
 1484TIP3   OH225942   1.192   4.755   5.104  0.0336 -0.0496 -0.0306
 1484TIP3    H125943   1.185   4.718   5.192  1.3335 -0.9540 -0.2753
 1484TIP3    H225944   1.262   4.704   5.063 -0.3632  0.5542 -1.4908
 1485TIP3   OH225945   3.958   0.752   1.282 -0.1367 -0.0540  0.0012
 1485TIP3    H125946   4.034   0.765   1.225  0.1411 -0.0354  0.3737
 1485TIP3    H225947   3.937   0.660   1.274 -1.1449  0.2714 -1.4391
 1486TIP3   OH225948   4.463   4.302   5.201  1.2331  0.2820  0.2153
 1486TIP3    H125949   4.392   4.302   5.266 -0.0304  2.0327 -1.0708
 1486TIP3    H225950   4.466   4.392   5.169  2.6073 -0.2725 -1.3187
 1487TIP3   OH225951   0.001   6.210  11.063  0.4800 -0.2660  0.2838
 1487TIP3    H125952   0.021   6.118  11.076 -2.6124 -1.2742 -1.1056
 1487TIP3    H225953  -0.094   6.215  11.070  0.5853  2.9391  0.8397
 1488TIP3   OH225954   1.316   2.547   5.765 -0.4959 -0.7165  0.1877
 1488TIP3    H125955   1.357   2.634   5.764 -0.8353 -0.5525  0.4325
 1488TIP3    H225956   1.386   2.488   5.795 -0.1511 -0.5899 -0.3583
 1489TIP3   OH225957   5.577   6.431  13.127 -0.1815 -0.0425 -0.3570
 1489TIP3    H125958   5.591   6.496  13.196 -1.9755  0.4493 -0.3888
 1489TIP3    H225959   5.512   6.371  13.164 -1.6700  0.5939 -1.7953
 1490TIP3   OH225960   3.732   6.109   2.611 -0.0253 -1.0514 -0.4967
 1490TIP3    H125961   3.715   6.034   2.554 -0.9170 -0.7402 -0.6595
 1490TIP3    H225962   3.770   6.175   2.553  0.2440 -1.1794 -0.4670
 1491TIP3   OH225963   5.514   6.187   4.174 -0.1583 -0.1169 -0.4822
 1491TIP3    H125964   5.502   6.282   4.175 -0.0426 -0.1060  0.4184
 1491TIP3    H225965   5.438   6.154   4.126 -0.7488  0.3634  0.0973
 1492TIP3   OH225966   4.124   6.199   4.289  0.9026 -0.0686 -0.3715
 1492TIP3    H125967   4.090   6.153   4.366  0.9112 -0.8426 -0.8143
 1492TIP3    H225968   4.214   6.166   4.280  1.2075  0.7099 -0.1748
 1493TIP3   OH225969   2.557   1.224  14.344  0.1369  0.0576  0.3566
 1493TIP3    H125970   2.470   1.233  14.383  0.8316 -1.2232  2.3494
 1493TIP3    H225971   2.574   1.130  14.344  0.6785  0.0943 -2.0579
 1494TIP3   OH225972   4.652   1.893   1.341  0.0613  0.2574 -0.2259
 1494TIP3    H125973   4.643   1.855   1.428 -2.2389  0.7407 -0.1898
 1494TIP3    H225974   4.595   1.840   1.285  1.6471 -0.1663 -1.5305
 1495TIP3   OH225975   0.208   1.511  11.780 -0.3470  0.5508 -0.3782
 1495TIP3    H125976   0.156   1.442  11.820 -1.8481  0.5533 -2.1899
 1495TIP3    H225977   0.144   1.581  11.761  0.2264  0.4855 -2.8223
 1496TIP3   OH225978   0.490   2.908  11.124  0.4866 -0.1057  0.0786
 1496TIP3    H125979   0.511   3.001  11.113  0.6789 -0.3321 -1.8644
 1496TIP3    H225980   0.405   2.897  11.081 -0.1963 -0.5971  1.4866
 1497TIP3   OH225981   2.498   6.617  16.951  0.3605  0.1827  0.1552
 1497TIP3    H125982   2.573   6.584  16.900 -0.2316  0.3966 -0.8798
 1497TIP3    H225983   2.531   6.696  16.994  0.6200  0.5223 -0.6435
 1498TIP3   OH225984   6.399   5.938   5.207  0.8871 -0.9434 -0.3953
 1498TIP3    H125985   6.310   5.902   5.212 -0.1396  1.3132 -0.8740
 1498TIP3    H225986   6.442   5.885   5.140 -0.5480 -1.2791 -1.1074
 1499TIP3   OH225987   5.387   4.350  14.651 -0.4898  0.4114  0.2093
 1499TIP3    H125988   5.362   4.257  14.649 -1.3158  0.5553  1.9923
 1499TIP3    H225989   5.367   4.382  14.563  0.2455 -1.1973 -0.5874
 1500TIP3   OH225990   3.353   5.105  10.216 -0.3795 -0.2591  0.3923
 1500TIP3    H125991   3.444   5.134  10.225 -0.4369  0.6959 -1.5181
 1500TIP3    H225992   3.303   5.169  10.267  0.0204 -1.1489  1.9753
 1501TIP3   OH225993   6.705   5.678  14.646  0.4517  0.9305  0.3717
 1501TIP3    H125994   6.647   5.643  14.713  0.3501 -1.6706 -0.9580
 1501TIP3    H225995   6.792   5.678  14.686  0.2118  0.5711  0.8920
 1502TIP3   OH225996   1.212   1.655   1.423  0.2041  0.2414 -1.2364
 1502TIP3    H125997   1.231   1.732   1.369 -0.8946 -0.1485 -2.2045
 1502TIP3    H225998   1.121   1.666   1.450  0.2697 -0.3477 -0.7441
 1503TIP3   OH225999   1.148   2.750  13.575 -0.5308 -0.3627  0.2560
 1503TIP3    H126000   1.058   2.734  13.547 -1.0087  2.3588 -0.0406
 1503TIP3    H226001   1.190   2.787  13.497  0.0155  1.0667  1.2091
 1504TIP3   OH226002   1.803   6.690   0.246 -0.4094  0.6018 -0.5128
 1504TIP3    H126003   1.832   6.770   0.289 -1.5650  0.6192  0.2785
 1504TIP3    H226004   1.710   6.705   0.228 -0.2627  0.0764 -1.8485
 1505TIP3   OH226005   1.992   5.817  15.975  0.8343 -0.2997 -0.3557
 1505TIP3    H126006   2.004   5.827  16.069  3.1454  0.0009 -0.6246
 1505TIP3    H226007   1.925   5.749  15.966 -1.3525  1.4483  1.4619
 1506TIP3   OH226008   4.570   6.445   2.432  0.0523  0.0533  0.0923
 1506TIP3    H126009   4.509   6.412   2.498 -0.3389 -0.3499 -0.4635
 1506TIP3    H226010   4.577   6.374   2.368  2.7055 -0.7839  1.1781
 1507TIP3   OH226011   2.036   3.985   6.561  0.5710 -0.3591  0.3637
 1507TIP3    H126012   2.090   4.024   6.493  2.6963 -1.0304  1.5528
 1507TIP3    H226013   2.005   3.902   6.523 -1.9496  1.1966 -1.2766
 1508TIP3   OH226014   0.820   4.594   2.662  0.0077  0.0330 -0.0249
 1508TIP3    H126015   0.891   4.659   2.662 -0.3171  0.4211 -0.9749
 1508TIP3    H226016   0.847   4.530   2.595 -0.4646  0.1093 -0.2912
 1509TIP3   OH226017   0.785   0.422   3.731  0.3154  0.0861 -0.0266
 1509TIP3    H126018   0.722   0.481   3.772  1.4958  0.0886  1.9539
 1509TIP3    H226019   0.854   0.480   3.698  0.1413 -0.0202 -0.5778
 1510TIP3   OH226020   5.374   0.851  16.250  0.3580  0.2522  0.0468
 1510TIP3    H126021   5.423   0.774  16.220 -0.7875 -0.3174 -0.4176
 1510TIP3    H226022   5.330   0.883  16.171 -3.6643 -1.9448  1.1489
 1511TIP3   OH226023   1.321   0.800   3.434  0.0178  0.1843  0.1140
 1511TIP3    H126024   1.381   0.835   3.499  0.8752 -1.9050  0.5483
 1511TIP3    H226025   1.376   0.780   3.359 -0.2737 -0.8761  0.1652
 1512TIP3   OH226026   5.789   6.366  12.994 -0.0443  0.4764  0.7896
 1512TIP3    H126027   5.812   6.458  13.006 -0.4238  0.4543  1.8085
 1512TIP3    H226028   5.699   6.359  13.026 -0.0982 -0.1997  0.5017
 1513TIP3   OH226029   1.158   2.086   4.305  0.0934 -0.0321  0.2105
 1513TIP3    H126030   1.067   2.101   4.329 -0.1459 -2.7685  1.3758
 1513TIP3    H226031   1.197   2.173   4.303 -2.0021  1.0375  1.9523
 1514TIP3   OH226032   3.540   1.517   6.225 -0.1568  0.1600 -0.2775
 1514TIP3    H126033   3.569   1.584   6.287  0.4475 -1.5023  1.3151
 1514TIP3    H226034   3.479   1.463   6.275  0.5591 -1.4009 -1.0397
 1515TIP3   OH226035   2.279   0.349  12.081  0.2163  0.6523 -0.3280
 1515TIP3    H126036   2.268   0.394  11.997 -0.5859 -1.7340 -1.6099
 1515TIP3    H226037   2.213   0.388  12.138 -1.9590 -0.2721 -2.0482
 1516TIP3   OH226038   1.412   2.308   1.594  0.3367 -0.2589  0.7636
 1516TIP3    H126039   1.396   2.234   1.653 -1.7023 -0.6569 -0.2227
 1516TIP3    H226040   1.435   2.381   1.652 -1.6410 -0.6187  2.0789
 1517TIP3   OH226041   6.186   1.339   5.414 -0.4312  0.1021 -0.1953
 1517TIP3    H126042   6.211   1.431   5.414 -0.0654  0.0140  1.0133
 1517TIP3    H226043   6.101   1.337   5.368 -0.6601  1.0944  0.1627
 1518TIP3   OH226044   0.401   4.597  16.124 -0.0943 -0.5708 -0.2929
 1518TIP3    H126045   0.375   4.678  16.078 -2.2109 -1.3767 -0.6582
 1518TIP3    H226046   0.380   4.615  16.216 -1.7962 -1.0983 -0.5426
 1519TIP3   OH226047   4.220   4.156   2.293 -0.0094 -0.2809 -0.5078
 1519TIP3    H126048   4.146   4.210   2.320  0.4158  0.2448 -0.3709
 1519TIP3    H226049   4.194   4.066   2.313  0.0513  0.0371  1.0902
 1520TIP3   OH226050   0.729   4.719  10.437  0.4335  0.5123 -0.2614
 1520TIP3    H126051   0.666   4.782  10.403 -0.8267 -1.6455 -2.2992
 1520TIP3    H226052   0.758   4.670  10.359  1.4437 -1.2862  1.1543
 1521TIP3   OH226053   4.879   3.503  10.602 -0.6367  0.3688 -0.0108
 1521TIP3    H126054   4.799   3.472  10.644  0.3165 -0.0720  1.5877
 1521TIP3    H226055   4.936   3.426  10.599  0.5946  1.1859  1.1156
 1522TIP3   OH226056   2.622   4.192  15.523 -0.6112  0.1886  0.5126
 1522TIP3    H126057   2.649   4.116  15.472 -1.2244 -0.0571  0.5456
 1522TIP3    H226058   2.527   4.183  15.532 -0.8558  1.5033 -0.3727
 1523TIP3   OH226059   4.074   0.293  11.371  0.2160  0.1223 -0.1202
 1523TIP3    H126060   4.149   0.350  11.391  1.2669 -1.0628 -0.5354
 1523TIP3    H226061   4.056   0.248  11.453 -1.4531  1.9158  0.5747
 1524TIP3   OH226062   3.846   2.478  12.259  0.6980 -0.1439 -0.0692
 1524TIP3    H126063   3.873   2.492  12.168 -1.1104  2.2834 -0.3419
 1524TIP3    H226064   3.912   2.523  12.311 -0.4679  2.2022 -0.4948
 1525TIP3   OH226065   1.800   4.424   0.472  0.2789 -0.4124  0.4108
 1525TIP3    H126066   1.849   4.503   0.497  1.4043 -0.3740 -1.6340
 1525TIP3    H226067   1.862   4.353   0.489  1.1537 -0.3667 -2.1777
 1526TIP3   OH226068   4.891   0.740  14.980 -0.2814  0.3657 -0.6113
 1526TIP3    H126069   4.932   0.808  15.033 -0.6663 -0.7613  1.2125
 1526TIP3    H226070   4.958   0.672  14.973 -1.2047 -0.7953  1.0550
 1527TIP3   OH226071   6.575   3.859   1.529 -0.2835  0.1312  0.6984
 1527TIP3    H126072   6.557   3.913   1.452 -0.5993 -0.7118  0.1669
 1527TIP3    H226073   6.530   3.776   1.512  1.8998 -1.0848  0.5365
 1528TIP3   OH226074   6.678   5.318  10.824 -0.3364  0.3055  0.8420
 1528TIP3    H126075   6.597   5.270  10.840 -0.4888  0.7276  1.3803
 1528TIP3    H226076   6.649   5.404  10.794 -0.0723 -0.4695 -1.9172
 1529TIP3   OH226077   0.032   5.264   3.366 -0.0546  0.2484  0.2609
 1529TIP3    H126078   0.030   5.351   3.326  0.9192  0.8789  1.4769
 1529TIP3    H226079  -0.014   5.275   3.449 -0.6799 -0.6337  0.0470
 1530TIP3   OH226080   3.055   0.897  16.981 -0.2269 -0.3013 -0.4579
 1530TIP3    H126081   3.146   0.875  16.959 -0.1118 -2.4837  1.7185
 1530TIP3    H226082   3.002   0.849  16.917  0.1542 -1.2437 -0.0899
 1531TIP3   OH226083   6.148   1.378  14.063 -0.1771 -0.8073  0.5211
 1531TIP3    H126084   6.073   1.385  14.004 -0.1489 -0.7122  0.4969
 1531TIP3    H226085   6.138   1.292  14.105  0.3170 -1.3062 -0.3357
 1532TIP3   OH226086   2.355   3.012  15.612 -0.3850  0.1567 -0.5221
 1532TIP3    H126087   2.419   2.960  15.660 -0.1618  0.6825 -0.2376
 1532TIP3    H226088   2.291   3.039  15.678 -0.7127 -0.0838 -0.7405
 1533TIP3   OH226089   3.666   3.215   3.163 -0.0975  0.2594 -0.6339
 1533TIP3    H126090   3.640   3.189   3.075  0.1906  2.1720 -1.3400
 1533TIP3    H226091   3.626   3.302   3.175  1.8815  1.1242  0.1364
 1534TIP3   OH226092   5.265   4.474   1.023 -0.8480 -0.4092 -0.0659
 1534TIP3    H126093   5.268   4.442   1.113 -0.7888 -0.8963 -0.2434
 1534TIP3    H226094   5.231   4.564   1.032 -1.1191 -0.5541  0.4127
 1535TIP3   OH226095   1.109   1.193   0.750  0.0045 -0.1857 -0.0641
 1535TIP3    H126096   1.149   1.254   0.812  2.7767 -0.3003 -1.5950
 1535TIP3    H226097   1.178   1.174   0.687 -2.0097 -1.8168 -1.9308
 1536TIP3   OH226098   4.748   3.727   0.351  0.0679  0.0199 -0.2537
 1536TIP3    H126099   4.808   3.722   0.426 -0.6220 -0.4582  0.2806
 1536TIP3    H226100   4.766   3.813   0.312 -0.5739  0.9158  1.3392
 1537TIP3   OH226101   6.432   3.998   1.700  0.1809  0.1362  0.7390
 1537TIP3    H126102   6.362   3.933   1.696  0.3278  0.0164 -0.4904
 1537TIP3    H226103   6.505   3.957   1.653 -0.2882  1.8049 -1.6422
 1538TIP3   OH226104   6.577   5.021   2.003  0.1107 -0.1758 -0.3353
 1538TIP3    H126105   6.610   4.992   1.918 -1.1553 -1.1982 -0.5128
 1538TIP3    H226106   6.509   4.958   2.025 -1.1935  1.4012  0.3496
 1539TIP3   OH226107   1.933   3.850   1.879  0.2927  0.2010 -0.4767
 1539TIP3    H126108   2.026   3.867   1.894  0.1666  0.9241 -0.5244
 1539TIP3    H226109   1.910   3.788   1.949  0.8639 -0.1754 -0.6130
 1540TIP3   OH226110   0.889   2.329   5.089  0.2075  0.6078  0.0353
 1540TIP3    H126111   0.828   2.349   5.159  0.3002  0.4423  0.1662
 1540TIP3    H226112   0.884   2.403   5.030  1.8978  1.9107  1.4184
 1541TIP3   OH226113   6.450   4.138  14.939 -0.5890  0.3669 -0.7948
 1541TIP3    H126114   6.443   4.042  14.944 -2.5357  0.4943 -0.2662
 1541TIP3    H226115   6.523   4.159  14.997 -0.6950 -0.7428 -0.2244
 1542TIP3   OH226116   4.797   5.642  13.830  0.3123  0.2498  0.1471
 1542TIP3    H126117   4.890   5.628  13.846  0.2795 -0.1753 -0.0290
 1542TIP3    H226118   4.783   5.610  13.741  0.1063  0.8228 -0.0314
 1543TIP3   OH226119   5.038   4.838   5.619  0.3630  0.1433 -0.3229
 1543TIP3    H126120   5.125   4.803   5.602  0.3902  0.1110 -0.1188
 1543TIP3    H226121   5.047   4.932   5.605  0.0971 -0.0055 -1.6783
 1544TIP3   OH226122   1.675   3.823   1.126 -0.0197  0.4643  0.2621
 1544TIP3    H126123   1.595   3.785   1.090  0.0129  1.0922 -0.4984
 1544TIP3    H226124   1.737   3.822   1.053  0.4509  0.6040  0.6541
 1545TIP3   OH226125   5.772   6.262   3.373 -0.7681  0.0363 -0.0051
 1545TIP3    H126126   5.695   6.296   3.328 -0.7189  1.0694  0.6717
 1545TIP3    H226127   5.846   6.311   3.338 -0.4558 -0.6678 -0.3577
 1546TIP3   OH226128   5.820   3.707   5.013  0.2857 -0.0371 -0.0309
 1546TIP3    H126129   5.822   3.630   4.955 -0.7359 -1.6749  1.9707
 1546TIP3    H226130   5.730   3.737   5.010  0.2387 -0.0965  0.6196
 1547TIP3   OH226131   6.002   2.959  12.898 -0.1389 -0.2760  0.0035
 1547TIP3    H126132   6.041   3.022  12.959 -0.4557  0.0440 -0.1162
 1547TIP3    H226133   6.056   2.964  12.819 -1.1090  1.0644 -0.6192
 1548TIP3   OH226134   5.175   0.970  15.595  0.1219 -0.4627 -0.0326
 1548TIP3    H126135   5.180   1.002  15.505  1.6338 -1.2331 -0.2705
 1548TIP3    H226136   5.101   0.909  15.596  0.6376 -1.1267 -1.0121
 1549TIP3   OH226137   3.817   6.619  11.521 -0.6450 -0.3676 -0.2504
 1549TIP3    H126138   3.729   6.610  11.486 -0.2633 -0.5687 -1.1913
 1549TIP3    H226139   3.862   6.676  11.458 -0.0936 -0.2863  0.2035
 1550TIP3   OH226140   1.171   2.116   0.836  0.0656  0.3615 -0.4285
 1550TIP3    H126141   1.195   2.024   0.826 -0.7217  0.2629 -1.6336
 1550TIP3    H226142   1.246   2.155   0.880  0.4202 -0.8466  0.0989
 1551TIP3   OH226143   2.012   4.943  14.867 -0.7581  0.1957 -0.2307
 1551TIP3    H126144   1.960   4.863  14.864  0.0861 -0.3565 -0.5227
 1551TIP3    H226145   1.948   5.014  14.859 -1.5334 -0.4387  0.2672
 1552TIP3   OH226146   0.651   4.871   4.088 -0.4056 -0.1060 -0.2393
 1552TIP3    H126147   0.719   4.862   4.155 -1.9219  1.2261  1.6218
 1552TIP3    H226148   0.695   4.852   4.006  1.4628 -2.3325  1.1425
 1553TIP3   OH226149   4.845   6.690  13.835 -0.3980  0.7250 -0.2942
 1553TIP3    H126150   4.938   6.709  13.825 -0.2594 -0.1551 -0.7761
 1553TIP3    H226151   4.825   6.714  13.926  0.6141 -0.2969  0.2197
 1554TIP3   OH226152   2.768   0.218  13.960 -0.6725 -0.2334  0.6128
 1554TIP3    H126153   2.714   0.146  13.927 -1.7737  0.0044  1.8173
 1554TIP3    H226154   2.716   0.257  14.031  0.2748  1.1924  0.5771
 1555TIP3   OH226155   0.436   5.727   1.201  0.1469 -0.3570  0.0601
 1555TIP3    H126156   0.360   5.776   1.170  0.2129 -0.1820  0.1716
 1555TIP3    H226157   0.446   5.655   1.138 -0.4019 -0.6620  0.3164
 1556TIP3   OH226158   0.583   4.366   0.054 -0.4261 -0.4739 -0.6507
 1556TIP3    H126159   0.613   4.318   0.131 -1.5884 -1.4269 -0.7768
 1556TIP3    H226160   0.588   4.303  -0.018 -2.5505 -0.6659 -0.7050
 1557TIP3   OH226161   5.424   1.291  16.535 -0.4638  0.0923 -0.0644
 1557TIP3    H126162   5.358   1.222  16.545  0.6095 -0.9900 -0.2769
 1557TIP3    H226163   5.462   1.276  16.448 -1.0697  1.7412 -0.6559
 1558TIP3   OH226164   2.595   3.494   6.172 -0.0563  0.1678 -0.3936
 1558TIP3    H126165   2.593   3.557   6.244 -0.4763  0.2348 -0.4613
 1558TIP3    H226166   2.661   3.430   6.199  0.2885  0.5680 -0.2715
 1559TIP3   OH226167   1.632   5.453  17.098 -0.4010 -0.0147  0.1041
 1559TIP3    H126168   1.686   5.452  17.177 -0.6233  1.6526  0.3221
 1559TIP3    H226169   1.609   5.362  17.083  0.8650 -0.5294  1.1137
 1560TIP3   OH226170   3.862   5.296  13.007 -0.6302 -0.1835 -0.2080
 1560TIP3    H126171   3.876   5.243  13.086  0.0756  0.2854 -0.0062
 1560TIP3    H226172   3.943   5.347  12.998 -0.9712  0.2545 -0.8596
 1561TIP3   OH226173   1.587   3.395  10.755 -0.2322  0.2521 -0.0394
 1561TIP3    H126174   1.601   3.332  10.826  0.6362  2.3532  1.7295
 1561TIP3    H226175   1.667   3.389  10.702  0.7114  1.2081  1.2315
 1562TIP3   OH226176   6.684   4.277   4.992 -0.3597 -0.0689  0.1304
 1562TIP3    H126177   6.623   4.287   4.919 -0.2146 -0.5581 -0.0653
 1562TIP3    H226178   6.755   4.223   4.956  0.4992  1.0048  0.1680
 1563TIP3   OH226179   0.607   0.519   5.630 -0.0732 -0.2749 -0.4997
 1563TIP3    H126180   0.522   0.535   5.588 -0.0153  1.2539 -0.0704
 1563TIP3    H226181   0.612   0.582   5.701  0.5460 -1.7455  0.8310
 1564TIP3   OH226182   3.015   6.551   2.270 -0.3416  0.3745  0.8224
 1564TIP3    H126183   2.928   6.513   2.283 -0.2777 -0.2779 -0.5389
 1564TIP3    H226184   2.998   6.640   2.239 -0.5121  0.5562  1.4295
 1565TIP3   OH226185   6.730   1.175   5.575  0.0155  0.4552 -0.2005
 1565TIP3    H126186   6.707   1.095   5.623  0.5264  0.1624 -0.4304
 1565TIP3    H226187   6.646   1.212   5.548 -0.3410  1.1296  1.6957
 1566TIP3   OH226188   2.936   6.431   4.684  0.4528 -0.0518 -0.7740
 1566TIP3    H126189   2.932   6.476   4.599  0.7433  0.3432 -0.5827
 1566TIP3    H226190   2.851   6.447   4.724  0.2447 -0.3994 -1.0669
 1567TIP3   OH226191   2.822   5.391   5.140 -0.5088 -0.1644  0.3459
 1567TIP3    H126192   2.826   5.297   5.158  0.6997 -0.2727 -0.4327
 1567TIP3    H226193   2.753   5.423   5.199  1.1504 -1.0099  2.9400
 1568TIP3   OH226194   4.788   1.868  12.256 -0.0540  0.1120 -0.8085
 1568TIP3    H126195   4.814   1.912  12.337 -3.3065 -0.2851  0.6266
 1568TIP3    H226196   4.747   1.936  12.204 -1.4372 -0.3346 -0.3576
 1569TIP3   OH226197   4.212   2.098   4.536 -0.2305 -0.1204 -0.5317
 1569TIP3    H126198   4.219   2.007   4.565 -1.6906  0.4818  2.0984
 1569TIP3    H226199   4.214   2.094   4.441 -1.4633 -3.0385 -0.5392
 1570TIP3   OH226200   0.704   0.576   1.686  0.1030 -0.0409  0.0333
 1570TIP3    H126201   0.787   0.554   1.644 -0.1122 -0.6013 -0.1073
 1570TIP3    H226202   0.704   0.672   1.691  0.7558 -0.0404  0.0382
 1571TIP3   OH226203   2.456   2.789  12.353 -0.3975 -0.0260 -0.1554
 1571TIP3    H126204   2.466   2.874  12.309 -2.2514  1.1611  1.4922
 1571TIP3    H226205   2.395   2.807  12.425  0.0341 -2.5428  0.9485
 1572TIP3   OH226206   0.216   3.302  16.255  0.0785 -0.1882  0.2238
 1572TIP3    H126207   0.227   3.250  16.175 -1.6139  0.5715 -0.5561
 1572TIP3    H226208   0.265   3.382  16.239 -0.0067 -0.1663  0.0718
 1573TIP3   OH226209   0.230   6.174  14.385 -0.1089 -0.3584 -0.3190
 1573TIP3    H126210   0.323   6.152  14.381  0.3216  1.3525 -0.4747
 1573TIP3    H226211   0.209   6.171  14.479  0.5978  1.0362 -0.0880
 1574TIP3   OH226212   4.847   0.547  15.257  0.2174 -0.8194 -0.7756
 1574TIP3    H126213   4.906   0.498  15.315 -0.2954  1.2700  1.6879
 1574TIP3    H226214   4.890   0.631  15.243 -1.1822 -0.0363 -0.6352
 1575TIP3   OH226215   1.778   0.882  11.902 -0.5951  0.5013 -0.1881
 1575TIP3    H126216   1.811   0.845  11.820 -1.1663  0.0852 -0.2408
 1575TIP3    H226217   1.786   0.977  11.890 -3.0816  0.6041 -1.8257
 1576TIP3   OH226218   6.495   6.645  13.698 -0.4902  0.0786 -0.1534
 1576TIP3    H126219   6.447   6.562  13.702 -1.4560  0.5877 -0.7366
 1576TIP3    H226220   6.587   6.620  13.706 -0.7884 -1.0251 -0.0403
 1577TIP3   OH226221   3.884   4.360   2.012  0.3719  0.4456  0.1829
 1577TIP3    H126222   3.977   4.342   1.994  0.4915  2.5484 -1.6267
 1577TIP3    H226223   3.885   4.430   2.078  0.0784  0.8601 -0.2502
 1578TIP3   OH226224   0.244   6.205  16.556 -0.0968 -0.1252  0.5384
 1578TIP3    H126225   0.164   6.156  16.571  0.4598 -0.9337  0.9440
 1578TIP3    H226226   0.215   6.288  16.519 -1.0666 -0.6757  0.0426
 1579TIP3   OH226227   6.518   3.923   6.038  0.1249  0.1199  0.2043
 1579TIP3    H126228   6.576   3.847   6.048 -1.2407 -1.0004 -0.0815
 1579TIP3    H226229   6.442   3.901   6.091 -0.7561  0.8258 -0.7467
 1580TIP3   OH226230   6.298   2.717   5.411  0.0280 -0.3757 -0.1805
 1580TIP3    H126231   6.300   2.784   5.342  0.6395 -0.4016 -0.1912
 1580TIP3    H226232   6.328   2.637   5.367  1.3323 -0.1837  0.3335
 1581TIP3   OH226233   2.881   1.939  15.379  0.2083  0.7161  0.4322
 1581TIP3    H126234   2.960   1.933  15.325 -0.5204  1.1707 -0.6945
 1581TIP3    H226235   2.828   2.007  15.338 -1.1243 -0.1118  0.7185
 1582TIP3   OH226236   2.383   5.339  16.605 -0.1776 -0.3934 -0.0774
 1582TIP3    H126237   2.422   5.376  16.685  0.8118 -0.0054 -0.7262
 1582TIP3    H226238   2.432   5.258  16.590  0.2524 -0.0100 -0.7834
 1583TIP3   OH226239   1.782   6.416  13.603  1.0117  0.1860 -0.3793
 1583TIP3    H126240   1.758   6.359  13.529  1.0965 -0.7112  0.2666
 1583TIP3    H226241   1.801   6.501  13.563  0.0945 -0.0112 -1.2878
 1584TIP3   OH226242   1.878   3.324   0.854 -0.1531 -0.5843  0.0783
 1584TIP3    H126243   1.791   3.302   0.821  0.3354 -1.8821 -0.4092
 1584TIP3    H226244   1.914   3.241   0.885 -0.0258  0.3446  2.6602
 1585TIP3   OH226245   5.335   4.511   0.775 -0.3688 -0.0984 -0.1603
 1585TIP3    H126246   5.307   4.470   0.857  1.2443 -0.7720  0.0777
 1585TIP3    H226247   5.319   4.443   0.709  0.4785 -0.4098 -0.0531
 1586TIP3   OH226248   0.723   2.504   2.111 -0.3587  0.2703  0.1965
 1586TIP3    H126249   0.818   2.510   2.100 -0.3685  0.6219  0.2766
 1586TIP3    H226250   0.699   2.420   2.072 -0.0804  0.4010 -0.2596
 1587TIP3   OH226251   0.619   3.722  15.124  0.2417  0.0885  0.3119
 1587TIP3    H126252   0.605   3.639  15.169  0.9702  0.0188  0.4206
 1587TIP3    H226253   0.631   3.786  15.193  1.7368 -0.0839  0.2440
 1588TIP3   OH226254   1.449   1.144  15.713 -0.2536  0.3689  0.9016
 1588TIP3    H126255   1.504   1.204  15.663  0.2038 -0.7792 -0.0295
 1588TIP3    H226256   1.385   1.200  15.756  0.9182  1.6271  1.0691
 1589TIP3   OH226257   3.784   2.178  12.805 -0.8450  0.2527 -0.1393
 1589TIP3    H126258   3.718   2.163  12.873  0.2330 -0.2695  0.8260
 1589TIP3    H226259   3.824   2.092  12.790  1.5204  0.9713  1.3649
 1590TIP3   OH226260   3.339   6.033   2.917  0.0274  0.1288  0.4148
 1590TIP3    H126261   3.397   6.028   2.993  0.3603  0.4454  0.1798
 1590TIP3    H226262   3.380   5.976   2.852 -1.3735 -1.9096  1.1957
 1591TIP3   OH226263   1.913   3.501   1.552  0.4741  0.1435  0.1011
 1591TIP3    H126264   1.831   3.545   1.531  1.1567  1.0522 -0.7813
 1591TIP3    H226265   1.972   3.572   1.579  1.0382 -0.4721  0.5368
 1592TIP3   OH226266   4.137   0.387   6.323  0.2407  0.2604 -0.5501
 1592TIP3    H126267   4.226   0.369   6.355 -0.2014 -0.7103  0.2312
 1592TIP3    H226268   4.114   0.308   6.273 -0.1714  0.5160 -0.7643
 1593TIP3   OH226269   0.872   4.500  11.378  0.4699 -0.0749  0.1618
 1593TIP3    H126270   0.865   4.464  11.290  0.5219  1.7461 -0.6260
 1593TIP3    H226271   0.797   4.463  11.425 -0.1671 -0.2276 -0.9409
 1594TIP3   OH226272   3.134   2.047   2.738  0.0808 -0.5999  0.1318
 1594TIP3    H126273   3.178   2.058   2.822 -1.5906 -2.1766  1.3218
 1594TIP3    H226274   3.065   1.982   2.756 -2.1423  1.0440 -1.7745
 1595TIP3   OH226275   1.300   6.272   5.628 -0.0750 -0.2256 -1.1082
 1595TIP3    H126276   1.229   6.304   5.572  0.1317  1.4701 -0.4706
 1595TIP3    H226277   1.350   6.351   5.651 -0.2912 -0.7786  1.6206
 1596TIP3   OH226278   6.278   0.487   5.009  0.1172 -0.1741 -0.1446
 1596TIP3    H126279   6.244   0.576   5.000 -0.0686 -0.3518 -1.3603
 1596TIP3    H226280   6.250   0.442   4.929  0.7755 -1.1356  0.1429
 1597TIP3   OH226281   3.803   1.421  11.297  0.0891  0.2124 -0.4765
 1597TIP3    H126282   3.865   1.481  11.337 -0.7811  0.5946  0.3517
 1597TIP3    H226283   3.738   1.478  11.255 -0.9802 -0.1022  0.6790
 1598TIP3   OH226284   0.293   4.900  11.008  0.3548  0.1250  0.3163
 1598TIP3    H126285   0.332   4.830  10.956 -1.0404 -1.6161  1.4853
 1598TIP3    H226286   0.270   4.968  10.944 -0.5324 -1.5526 -1.2213
 1599TIP3   OH226287   6.526   0.540  16.200  0.2108  0.1840 -0.2158
 1599TIP3    H126288   6.501   0.482  16.272  0.3143  0.7964  0.3284
 1599TIP3    H226289   6.619   0.559  16.217  0.5014 -0.4441 -1.0636
 1600TIP3   OH226290   6.697   5.283   3.811 -0.5252 -0.2231 -0.0157
 1600TIP3    H126291   6.605   5.257   3.805 -0.9040  0.8440  0.8512
 1600TIP3    H226292   6.711   5.299   3.904  0.3221  0.4094 -0.2431
 1601TIP3   OH226293   1.134   2.460  16.555 -0.0140  0.3375 -0.1234
 1601TIP3    H126294   1.148   2.553  16.542  0.7738  0.2436  0.0191
 1601TIP3    H226295   1.048   2.443  16.515 -0.4170  1.2199  0.3263
 1602TIP3   OH226296   2.010   2.754   4.026 -0.0387 -0.2337  0.3995
 1602TIP3    H126297   1.978   2.789   4.109 -0.5934 -0.1049  0.1354
 1602TIP3    H226298   1.944   2.780   3.962  0.8346  0.4602 -0.2505
 1603TIP3   OH226299   1.359   3.831   3.903 -0.5815 -0.2926 -0.1146
 1603TIP3    H126300   1.391   3.899   3.843 -0.7027 -1.8707 -2.0908
 1603TIP3    H226301   1.383   3.863   3.990  1.5094  1.1428 -1.1160
 1604TIP3   OH226302   5.529   5.707   2.268 -0.0948  1.0796 -0.2848
 1604TIP3    H126303   5.604   5.708   2.208 -0.5106  1.6973 -0.8047
 1604TIP3    H226304   5.528   5.795   2.305 -0.4451  1.0078 -0.1293
 1605TIP3   OH226305   0.995   5.500   4.428  0.7731  0.2896 -0.3586
 1605TIP3    H126306   1.027   5.526   4.514  0.6607  2.0165 -0.8127
 1605TIP3    H226307   0.902   5.522   4.430  0.5094 -0.7403 -0.5398
 1606TIP3   OH226308   6.699   1.072   6.318  0.3306 -0.3171 -0.3645
 1606TIP3    H126309   6.774   1.048   6.263 -0.9819 -0.9447 -1.9702
 1606TIP3    H226310   6.694   1.167   6.311 -0.3022 -0.4498 -2.0449
 1607TIP3   OH226311   2.207   2.357  16.632 -0.1295  0.3640  0.4846
 1607TIP3    H126312   2.284   2.368  16.688 -0.5777  3.0238  0.7114
 1607TIP3    H226313   2.221   2.419  16.560 -1.7282  0.3717  0.1463
 1608TIP3   OH226314   1.820   4.705  12.266 -0.2445 -0.0138 -0.3648
 1608TIP3    H126315   1.914   4.723  12.264 -0.5476  1.9166  0.4386
 1608TIP3    H226316   1.781   4.785  12.301 -2.0315 -1.4244  1.0805
 1609TIP3   OH226317   4.028   3.302   6.077 -0.2994 -0.0540 -0.2692
 1609TIP3    H126318   4.051   3.361   6.005 -0.1602 -0.6800 -0.7350
 1609TIP3    H226319   4.072   3.341   6.153  1.2385 -0.4961 -0.9007
 1610TIP3   OH226320   5.236   4.706   4.159 -0.0384 -0.4879 -0.0788
 1610TIP3    H126321   5.295   4.631   4.170  1.0409  0.1086 -1.4665
 1610TIP3    H226322   5.269   4.751   4.082 -1.7093  0.4789 -0.2717
 1611TIP3   OH226323   6.601   2.412  15.532  0.1811 -0.1858 -0.8044
 1611TIP3    H126324   6.696   2.407  15.525  0.4803  2.0688  0.5816
 1611TIP3    H226325   6.569   2.331  15.491  2.8269 -3.1613  2.3728
 1612TIP3   OH226326   4.438   0.710   3.390 -0.1301 -0.1104  0.1136
 1612TIP3    H126327   4.515   0.664   3.423  0.2690  1.8240  2.1196
 1612TIP3    H226328   4.405   0.759   3.466 -3.2427 -0.7000 -0.7143
 1613TIP3   OH226329   6.358   6.026  15.291 -0.0449 -0.1634 -0.5030
 1613TIP3    H126330   6.274   5.994  15.257 -0.7260  1.9203 -0.9444
 1613TIP3    H226331   6.358   6.120  15.270  2.8947 -0.2980 -1.4971
 1614TIP3   OH226332   2.280   3.907   1.433  0.6798  0.0365  0.0553
 1614TIP3    H126333   2.354   3.866   1.477  0.4144 -0.2422  0.2436
 1614TIP3    H226334   2.225   3.834   1.405  1.5444  0.1096 -2.0249
 1615TIP3   OH226335   1.251   5.692  11.532 -0.3539 -0.2788  0.3773
 1615TIP3    H126336   1.177   5.688  11.593 -0.8169 -0.2390 -0.1801
 1615TIP3    H226337   1.236   5.772  11.482 -0.5082 -0.8307 -0.4682
 1616TIP3   OH226338   6.626   4.578  13.696  0.2327 -0.4274  0.0986
 1616TIP3    H126339   6.595   4.668  13.690  0.2233 -0.4114  0.3678
 1616TIP3    H226340   6.715   4.586  13.732 -0.6319 -0.6558  2.4482
 1617TIP3   OH226341   2.352   1.130   3.857 -0.6615 -0.0599  0.4734
 1617TIP3    H126342   2.291   1.059   3.839 -1.1335  0.1321  1.2924
 1617TIP3    H226343   2.360   1.176   3.774 -2.4297  0.5255  0.5905
 1618TIP3   OH226344   2.887   0.026  15.531 -0.0631  0.4766  0.5078
 1618TIP3    H126345   2.840   0.021  15.447  0.3353  2.6466  0.0881
 1618TIP3    H226346   2.832  -0.023  15.592 -0.5181 -0.9079 -0.9456
 1619TIP3   OH226347   6.584   1.936   1.629  0.2658  0.4566  0.6194
 1619TIP3    H126348   6.580   2.023   1.589  1.2727  0.0476 -0.4050
 1619TIP3    H226349   6.579   1.875   1.555 -0.6294 -0.3818  1.3378
 1620TIP3   OH226350   3.201   2.649  12.445 -0.2102  0.0747  0.7403
 1620TIP3    H126351   3.189   2.579  12.509 -0.0859 -0.8006 -0.1484
 1620TIP3    H226352   3.123   2.644  12.390  0.7231 -0.7774 -0.5891
 1621TIP3   OH226353   6.217   5.424  12.566  0.3289  0.3416  0.0691
 1621TIP3    H126354   6.313   5.428  12.565  0.3565  0.7491 -2.1906
 1621TIP3    H226355   6.190   5.511  12.536 -0.7607  0.2808  0.8529
 1622TIP3   OH226356   0.982   2.280  12.879 -0.2544  0.1366 -0.3872
 1622TIP3    H126357   1.010   2.278  12.787  0.6844  1.0430 -0.1363
 1622TIP3    H226358   0.957   2.371  12.894 -0.2715  0.0226  0.2988
 1623TIP3   OH226359   0.909   0.357  17.117  0.0133 -0.6149 -0.7945
 1623TIP3    H126360   0.825   0.383  17.079 -0.4950 -0.2000  0.5586
 1623TIP3    H226361   0.924   0.269  17.083 -2.7171 -2.1672  1.5949
 1624TIP3   OH226362   4.227   6.053   4.730  0.4016 -0.3317 -0.0115
 1624TIP3    H126363   4.166   6.002   4.782  1.3262 -2.2780 -0.7540
 1624TIP3    H226364   4.216   6.143   4.762 -1.0788 -1.0022  1.5213
 1625TIP3   OH226365   5.037   4.942   6.379 -0.2838  0.2419 -0.3828
 1625TIP3    H126366   5.052   5.018   6.435 -0.2134  1.3975 -1.9250
 1625TIP3    H226367   4.943   4.944   6.361 -0.5469 -0.8924  0.7111
 1626TIP3   OH226368   5.006   6.415   2.337 -0.2186  0.0179 -0.4017
 1626TIP3    H126369   4.936   6.353   2.356  0.5055 -1.0549 -1.1641
 1626TIP3    H226370   4.974   6.498   2.373 -1.0749 -0.8350  0.9184
 1627TIP3   OH226371   4.869   0.304  16.079  0.2662  0.3352  0.7569
 1627TIP3    H126372   4.793   0.247  16.078  0.5166 -0.0036 -0.6850
 1627TIP3    H226373   4.908   0.291  16.166 -0.4032 -0.6998  0.9093
 1628TIP3   OH226374   6.774   2.439   0.759 -0.2278  0.1166  0.7846
 1628TIP3    H126375   6.729   2.366   0.800  0.4114  0.1190  1.5117
 1628TIP3    H226376   6.854   2.400   0.722 -0.4185  0.2530  0.2293
 1629TIP3   OH226377   5.501   6.055   2.660 -0.1306  0.1113 -0.2970
 1629TIP3    H126378   5.484   6.147   2.640 -0.2552  0.5561  1.6627
 1629TIP3    H226379   5.429   6.029   2.716  1.5502 -0.2089  1.8419
 1630TIP3   OH226380   1.740   5.908  10.376 -0.5077  0.3525 -0.2949
 1630TIP3    H126381   1.821   5.932  10.420  0.3337 -0.4352 -1.3815
 1630TIP3    H226382   1.671   5.942  10.434  0.5783  1.4553  0.4028
 1631TIP3   OH226383   1.995   0.897   0.479  0.4187 -0.2902 -0.1606
 1631TIP3    H126384   2.015   0.895   0.573  0.7478 -0.1486 -0.2238
 1631TIP3    H226385   2.065   0.844   0.439 -1.4649 -3.0761 -0.0453
 1632TIP3   OH226386   2.784   3.216  15.611  0.5137  1.0203  0.3778
 1632TIP3    H126387   2.708   3.244  15.662 -0.7558 -0.3531 -0.6462
 1632TIP3    H226388   2.852   3.199  15.676 -0.2188  1.7732  1.3691
 1633TIP3   OH226389   4.536   0.346   5.490  0.1813  0.6280  0.5196
 1633TIP3    H126390   4.479   0.421   5.479 -0.3576  0.0906 -0.5219
 1633TIP3    H226391   4.603   0.357   5.422  0.1017  0.1912  0.3629
 1634TIP3   OH226392   0.477   4.322  11.689 -0.5228 -0.3691  0.0432
 1634TIP3    H126393   0.511   4.239  11.655 -1.8449 -0.8695 -0.0923
 1634TIP3    H226394   0.476   4.380  11.613  0.1406 -0.3038  0.0792
 1635TIP3   OH226395   0.115   6.794   2.428 -0.5216  0.5135 -0.2026
 1635TIP3    H126396   0.097   6.841   2.510  0.4463 -0.2237  0.4631
 1635TIP3    H226397   0.123   6.863   2.362 -2.4755  1.0575  0.0614
 1636TIP3   OH226398   4.679   4.412   5.610  0.0549 -0.0435 -0.5177
 1636TIP3    H126399   4.644   4.388   5.524  0.7995  2.5339 -1.6307
 1636TIP3    H226400   4.661   4.506   5.618  0.2242 -0.1643  2.0720
 1637TIP3   OH226401   6.620   1.069  14.785  0.0135  0.2327 -0.3282
 1637TIP3    H126402   6.610   0.994  14.727  1.6937 -0.4080  0.1645
 1637TIP3    H226403   6.595   1.036  14.872 -0.6557  0.6612 -0.3510
 1638TIP3   OH226404   5.215   3.152  15.667  0.1647  0.6730  0.4233
 1638TIP3    H126405   5.188   3.243  15.677 -1.1411  0.2718  0.7415
 1638TIP3    H226406   5.134   3.105  15.646  1.0083 -0.2407 -0.9786
 1639TIP3   OH226407   4.850   3.689  17.058 -0.0717 -0.0043 -0.5871
 1639TIP3    H126408   4.828   3.596  17.068  2.3119 -0.5788 -0.0471
 1639TIP3    H226409   4.928   3.701  17.111  1.2519  1.6845 -2.7429
 1640TIP3   OH226410   6.166   4.931   1.826  1.1261  0.0747 -0.4406
 1640TIP3    H126411   6.151   4.950   1.918 -0.7586  0.3818 -0.7584
 1640TIP3    H226412   6.141   5.011   1.780  2.6006  0.1300 -1.2013
 1641TIP3   OH226413   4.328   3.616  14.678 -0.0860  0.2282 -0.0958
 1641TIP3    H126414   4.414   3.652  14.657  0.1371 -0.6251 -0.6679
 1641TIP3    H226415   4.320   3.628  14.773 -1.0996  4.1325 -0.4782
 1642TIP3   OH226416   6.245   1.695  13.874  0.0588  0.1544  0.2470
 1642TIP3    H126417   6.281   1.714  13.787 -0.4936  0.7963  0.1539
 1642TIP3    H226418   6.228   1.601  13.872  0.3380  0.1100 -0.2332
 1643TIP3   OH226419   4.238   1.847   0.902  0.1131 -0.4052  0.3888
 1643TIP3    H126420   4.245   1.923   0.959  1.1929  0.1159 -0.4023
 1643TIP3    H226421   4.201   1.779   0.957 -1.3955  0.8355  0.9654
 1644TIP3   OH226422   5.652   5.272  16.081  0.0824 -0.2895  0.5752
 1644TIP3    H126423   5.647   5.244  15.990 -0.4555  1.1704  0.1163
 1644TIP3    H226424   5.570   5.242  16.120  0.1087 -0.5196  0.4550
 1645TIP3   OH226425   2.356   1.999  11.902 -0.2202  0.0132 -0.5917
 1645TIP3    H126426   2.276   2.042  11.875 -0.2480 -0.3149 -1.0397
 1645TIP3    H226427   2.424   2.065  11.890 -0.2970  0.0156 -1.0363
 1646TIP3   OH226428   1.338   3.082  10.671  0.1159 -0.3461 -0.3831
 1646TIP3    H126429   1.295   3.030  10.604  0.9403  0.9330 -1.9726
 1646TIP3    H226430   1.346   3.169  10.633  1.7271  0.1171  0.8786
 1647TIP3   OH226431   3.248   2.447  11.715  0.1057 -0.4189  0.0272
 1647TIP3    H126432   3.212   2.526  11.675 -1.2090 -0.8579  0.2916
 1647TIP3    H226433   3.201   2.440  11.798 -0.2778 -1.8385 -0.2956
 1648TIP3   OH226434   1.739   4.479  12.038 -0.9401  0.3910 -0.0231
 1648TIP3    H126435   1.760   4.549  12.101  0.4030 -0.2517  0.2745
 1648TIP3    H226436   1.675   4.519  11.979 -1.0683  1.5030  0.8240
 1649TIP3   OH226437   2.049   4.219   5.566  0.1451 -0.5598  0.5047
 1649TIP3    H126438   2.127   4.206   5.513 -0.3177  0.0408 -0.3430
 1649TIP3    H226439   2.027   4.132   5.598  1.3220 -0.6988  1.0019
 1650TIP3   OH226440   2.666   0.068  12.182  0.2440  0.2267  0.4769
 1650TIP3    H126441   2.621   0.146  12.214 -0.9924  0.3301 -1.3864
 1650TIP3    H226442   2.610  -0.004  12.212 -0.6884  0.3010 -1.0080
 1651TIP3   OH226443   5.523   5.436  11.001 -0.1775 -0.4452 -0.2604
 1651TIP3    H126444   5.466   5.390  10.939 -1.1402  1.7848 -1.1189
 1651TIP3    H226445   5.541   5.520  10.960  0.6887  0.3759  1.6815
 1652TIP3   OH226446   1.601   1.381  10.237  0.0402 -0.4051  0.3818
 1652TIP3    H126447   1.596   1.288  10.216 -0.9687 -0.5967  1.4029
 1652TIP3    H226448   1.511   1.412  10.234 -0.0194 -0.1403  2.8828
 1653TIP3   OH226449   5.661   6.674   1.580  0.0356 -0.5576 -0.3441
 1653TIP3    H126450   5.755   6.691   1.592 -0.3789  2.9036 -0.9119
 1653TIP3    H226451   5.633   6.635   1.663  2.0122 -2.0892 -0.3372
 1654TIP3   OH226452   2.485   1.929   3.926 -0.4124  0.3689  0.0224
 1654TIP3    H126453   2.447   1.847   3.959  1.0568  0.2791  1.5864
 1654TIP3    H226454   2.446   1.997   3.982 -1.4133  0.7418 -1.0909
 1655TIP3   OH226455   1.323   0.934   5.085  0.1203 -0.8358  0.0663
 1655TIP3    H126456   1.304   1.023   5.116  1.3365 -1.0106  1.4293
 1655TIP3    H226457   1.383   0.947   5.011  1.7271 -0.5305  1.3718
 1656TIP3   OH226458   5.012   5.685  16.743  0.2574 -0.0718 -0.4902
 1656TIP3    H126459   4.992   5.773  16.713 -0.9400 -0.7582 -1.7949
 1656TIP3    H226460   4.978   5.681  16.833 -0.7466  0.4294 -0.8377
 1657TIP3   OH226461   3.876   4.589   1.779 -0.1633 -0.2652 -0.1039
 1657TIP3    H126462   3.927   4.509   1.783  0.0630 -0.2272 -1.5850
 1657TIP3    H226463   3.819   4.586   1.856 -0.5343 -2.1013 -0.4072
 1658TIP3   OH226464   1.624   6.422   5.598  0.1690 -0.7013 -0.1983
 1658TIP3    H126465   1.656   6.504   5.560  0.7257 -1.6206 -1.8519
 1658TIP3    H226466   1.623   6.437   5.692 -1.9666  1.9834 -0.5283
 1659TIP3   OH226467   0.183   2.962  17.169 -0.6689  0.2696 -0.2271
 1659TIP3    H126468   0.249   2.949  17.237 -2.1272 -0.4792  1.1183
 1659TIP3    H226469   0.153   3.052  17.181 -1.0478  0.0840  0.2657
 1660TIP3   OH226470   6.026   2.895  16.453  0.2926 -0.2151 -0.1240
 1660TIP3    H126471   6.004   2.899  16.546  0.2303  2.3586 -0.1599
 1660TIP3    H226472   6.055   2.984  16.432 -0.0727 -0.6182 -2.6660
 1661TIP3   OH226473   0.136   5.120   4.901 -0.4138 -0.3018  0.5179
 1661TIP3    H126474   0.066   5.178   4.931  0.1492 -0.9517  3.3925
 1661TIP3    H226475   0.094   5.034   4.895  0.0996 -0.7501  2.5308
 1662TIP3   OH226476   1.248   5.171   3.352 -0.2176  0.0587 -0.9119
 1662TIP3    H126477   1.272   5.167   3.445 -2.7028  2.2544 -0.0472
 1662TIP3    H226478   1.174   5.110   3.345 -1.4644  1.5012 -0.8600
 1663TIP3   OH226479   4.240   5.027  14.116  0.0658  0.1564  0.3802
 1663TIP3    H126480   4.147   5.010  14.100 -0.7010  2.0402  2.3664
 1663TIP3    H226481   4.284   4.998  14.035 -2.2981 -0.2348 -0.8437
 1664TIP3   OH226482   1.503   4.921  16.334  0.0107  0.7442  0.3674
 1664TIP3    H126483   1.491   4.932  16.428  2.1723  1.4851  0.6205
 1664TIP3    H226484   1.482   4.830  16.317 -0.0306  0.5019  1.6480
 1665TIP3   OH226485   0.192   2.543   5.126  0.3972 -0.2483 -0.0016
 1665TIP3    H126486   0.186   2.611   5.193  0.7908  0.5079 -0.7155
 1665TIP3    H226487   0.282   2.549   5.094  0.7098 -1.7064  0.5327
 1666TIP3   OH226488   0.258   5.482  14.743 -0.5789 -0.1730 -0.0433
 1666TIP3    H126489   0.332   5.461  14.801  0.8664 -1.0771 -2.0943
 1666TIP3    H226490   0.299   5.517  14.664 -2.3505 -0.6199 -1.2034
 1667TIP3   OH226491   4.383   0.899  16.750 -0.2831 -0.5314 -0.3831
 1667TIP3    H126492   4.302   0.884  16.797 -0.4663 -1.5012 -0.9870
 1667TIP3    H226493   4.451   0.896  16.817 -0.7744  1.0263  0.2432
 1668TIP3   OH226494   2.231   2.324   1.989  0.0961 -0.4811 -0.1333
 1668TIP3    H126495   2.267   2.290   2.070  0.4379 -0.3590 -0.2331
 1668TIP3    H226496   2.137   2.304   1.994  0.3269 -1.6887 -0.3077
 1669TIP3   OH226497   4.288   6.074   6.683 -0.6131  0.3404 -0.1918
 1669TIP3    H126498   4.212   6.016   6.682 -0.7826  0.4108  2.1094
 1669TIP3    H226499   4.360   6.020   6.653 -0.8750 -0.9510  1.3526
 1670TIP3   OH226500   0.684   1.429   4.392 -0.6654  0.0644 -0.1794
 1670TIP3    H126501   0.754   1.441   4.457  0.4218 -0.6891 -1.1817
 1670TIP3    H226502   0.610   1.477   4.429  0.2370  0.5329  1.1207
 1671TIP3   OH226503   0.735   5.126   2.053 -0.5512  0.2978  0.2085
 1671TIP3    H126504   0.730   5.218   2.079  0.8701  0.0582  1.4680
 1671TIP3    H226505   0.749   5.078   2.135 -3.1758 -1.2943 -0.1509
 1672TIP3   OH226506   2.446   3.997   0.848  0.4898 -0.1130  0.6881
 1672TIP3    H126507   2.526   4.046   0.830  0.4985 -0.4684 -0.3128
 1672TIP3    H226508   2.473   3.905   0.845 -0.1069 -0.2676 -0.5428
 1673TIP3   OH226509   0.261   3.325  13.795  0.0687 -0.5037 -0.2815
 1673TIP3    H126510   0.176   3.369  13.784  0.6524  0.5680 -0.7311
 1673TIP3    H226511   0.325   3.393  13.773  1.0682 -1.0038  1.0096
 1674TIP3   OH226512   3.010   1.710   0.171  0.1164  0.5239 -0.6169
 1674TIP3    H126513   3.060   1.632   0.145  0.4849  1.3028 -2.3711
 1674TIP3    H226514   3.000   1.760   0.090 -1.3933  1.5984  0.1916
 1675TIP3   OH226515   1.019   4.995   4.184 -0.1913 -0.0462 -0.5558
 1675TIP3    H126516   1.049   4.981   4.274 -1.0250 -0.9917 -0.4052
 1675TIP3    H226517   1.084   4.952   4.130 -0.3024 -0.5146 -0.3265
 1676TIP3   OH226518   4.169   4.204   5.059  0.1623 -0.4369 -0.0353
 1676TIP3    H126519   4.164   4.266   5.132 -0.0359  1.6280 -1.6828
 1676TIP3    H226520   4.255   4.220   5.020 -0.3866 -0.2631 -1.2267
 1677TIP3   OH226521   3.369   4.373   2.552  0.4906 -0.1886  0.0472
 1677TIP3    H126522   3.335   4.406   2.468 -1.1315 -1.4927  0.1263
 1677TIP3    H226523   3.436   4.436   2.577 -0.9727  1.8428 -0.8194
 1678TIP3   OH226524   0.804   1.271  14.147  0.5542  0.5198 -0.0110
 1678TIP3    H126525   0.835   1.244  14.234 -0.4681 -0.9152 -0.0572
 1678TIP3    H226526   0.731   1.212  14.129 -1.8542  3.3474 -0.1540
 1679TIP3   OH226527   2.156   4.392   4.351  0.3131  0.2904 -0.3679
 1679TIP3    H126528   2.224   4.353   4.406 -0.0208  1.3109  0.8087
 1679TIP3    H226529   2.189   4.480   4.332  0.0737  0.2087 -1.1952
 1680TIP3   OH226530   4.982   4.162  11.664  0.3184  0.1427 -0.7072
 1680TIP3    H126531   5.067   4.175  11.705 -0.5257  0.8466  0.8927
 1680TIP3    H226532   4.995   4.086  11.607  1.6842 -0.5874  0.5024
 1681TIP3   OH226533   6.251   3.037   4.752 -0.8962 -0.5738  0.9485
 1681TIP3    H126534   6.289   3.109   4.700 -0.1198 -0.7924  1.1954
 1681TIP3    H226535   6.325   2.979   4.769 -1.0488 -0.3186  2.6325
 1682TIP3   OH226536   5.470   4.625   2.836  0.8094 -0.0575  0.5484
 1682TIP3    H126537   5.432   4.546   2.797 -1.6522  0.6776  1.2837
 1682TIP3    H226538   5.491   4.599   2.926 -0.7039  0.2793  1.0236
 1683TIP3   OH226539   6.330   5.238   1.754  0.4993  0.4312  0.3638
 1683TIP3    H126540   6.289   5.189   1.683  1.1511  1.0725 -0.4865
 1683TIP3    H226541   6.325   5.330   1.725  2.6744  0.5247  0.1172
 1684TIP3   OH226542   5.262   0.868   2.161  0.4726  0.7123  0.2866
 1684TIP3    H126543   5.233   0.911   2.241  0.0005  2.5928 -0.8410
 1684TIP3    H226544   5.193   0.885   2.098  0.7849 -0.8210 -0.5328
 1685TIP3   OH226545   6.760   2.122   5.986 -0.7689  0.4572  0.2322
 1685TIP3    H126546   6.744   2.078   5.903  0.5826  0.3739 -0.0138
 1685TIP3    H226547   6.692   2.189   5.992 -1.2977  0.0124 -0.6050
 1686TIP3   OH226548   4.837   4.301   4.934  0.1107  0.2568  0.1179
 1686TIP3    H126549   4.804   4.327   4.848 -1.3828 -0.7640  0.3413
 1686TIP3    H226550   4.862   4.383   4.975 -0.2279  0.8770 -0.8732
 1687TIP3   OH226551   3.453   2.513   1.843 -0.5712  0.1584  0.1685
 1687TIP3    H126552   3.423   2.454   1.913  0.9117 -0.2745  0.4715
 1687TIP3    H226553   3.545   2.491   1.831 -0.3352  1.4883 -0.6741
 1688TIP3   OH226554   5.374   1.781  13.779  0.1605 -0.3960  0.3323
 1688TIP3    H126555   5.284   1.751  13.796  0.1963 -0.1110  1.0876
 1688TIP3    H226556   5.427   1.702  13.786 -0.2094 -0.9249 -1.9487
 1689TIP3   OH226557   5.898   2.064   0.667 -0.2709 -0.3822 -0.5708
 1689TIP3    H126558   5.888   2.130   0.599 -1.3922 -0.6915 -0.7311
 1689TIP3    H226559   5.971   2.010   0.638  0.8107  0.8832 -0.3322
 1690TIP3   OH226560   4.432   0.153   4.215 -0.6861 -0.3381 -0.0252
 1690TIP3    H126561   4.429   0.249   4.210 -0.4352 -0.3076  0.3501
 1690TIP3    H226562   4.349   0.128   4.255 -0.4774 -0.2289  0.4875
 1691TIP3   OH226563   6.282   5.720  11.660 -0.1145  0.0005 -0.1034
 1691TIP3    H126564   6.191   5.735  11.634 -0.3415  1.3040  1.3263
 1691TIP3    H226565   6.313   5.805  11.689  1.3190 -0.6046  0.2240
 1692TIP3   OH226566   3.749   4.805   0.495  0.7602 -0.1637  0.1213
 1692TIP3    H126567   3.765   4.890   0.536 -0.0598  0.3301 -0.5502
 1692TIP3    H226568   3.756   4.821   0.401  0.1290 -0.7327 -0.0325
 1693TIP3   OH226569   1.066   6.439   3.686 -0.0226 -0.3971  0.1633
 1693TIP3    H126570   1.110   6.514   3.645 -0.2810 -1.1533 -1.6187
 1693TIP3    H226571   1.122   6.364   3.666 -1.7383 -1.2916 -1.6672
 1694TIP3   OH226572   6.275   1.725   3.082 -0.1176 -0.0143  0.1931
 1694TIP3    H126573   6.229   1.646   3.054 -1.6721  1.3940 -1.3820
 1694TIP3    H226574   6.208   1.779   3.124  0.7748  0.7816  0.6351
 1695TIP3   OH226575   1.345   5.284  16.868  0.2934  0.0145  0.3856
 1695TIP3    H126576   1.302   5.247  16.790 -0.0538 -1.0712  1.0703
 1695TIP3    H226577   1.371   5.372  16.841 -1.8860  0.5351 -0.2402
 1696TIP3   OH226578   2.168   6.562  10.747 -0.9984 -0.6173 -0.1509
 1696TIP3    H126579   2.098   6.500  10.766 -2.1729  0.0973 -1.9189
 1696TIP3    H226580   2.182   6.608  10.829 -1.6784 -1.6566  0.5760
 1697TIP3   OH226581   4.933   1.350  16.728  0.3369  0.5224  0.5585
 1697TIP3    H126582   4.930   1.432  16.778  0.9089  0.1359  1.2459
 1697TIP3    H226583   5.025   1.325  16.729  0.0522 -0.5767  1.0972
 1698TIP3   OH226584   5.595   2.333  14.429 -0.0801 -0.2071  0.3718
 1698TIP3    H126585   5.603   2.366  14.339  0.1914  1.5369  0.9974
 1698TIP3    H226586   5.588   2.238  14.419 -1.0425  0.0185 -1.5459
 1699TIP3   OH226587   6.705   0.436   4.632 -0.1030 -0.1277 -0.0565
 1699TIP3    H126588   6.740   0.348   4.648  1.5381  0.1845 -1.5811
 1699TIP3    H226589   6.678   0.468   4.718 -0.0921 -1.8446  0.6256
 1700TIP3   OH226590   0.039   3.682  14.684  0.1180 -0.1750  0.6542
 1700TIP3    H126591   0.012   3.745  14.751 -0.6103  0.2690 -0.0423
 1700TIP3    H226592   0.134   3.688  14.683  0.0596  0.9505  0.5740
 1701TIP3   OH226593   1.083   3.893  12.085 -0.3520  0.1768  0.0384
 1701TIP3    H126594   0.992   3.920  12.097 -0.8131 -0.8500 -0.9863
 1701TIP3    H226595   1.123   3.966  12.038 -0.6702  0.5774  0.3740
 1702TIP3   OH226596   3.231   5.276   5.263  0.1162 -0.4258 -0.1658
 1702TIP3    H126597   3.293   5.291   5.192  1.7072  0.3660  1.3388
 1702TIP3    H226598   3.262   5.330   5.335 -1.4499 -1.2000  1.1682
 1703TIP3   OH226599   3.979   0.334   4.219 -0.4690 -0.2605  0.3859
 1703TIP3    H126600   3.993   0.364   4.309  0.5921  0.8190 -0.1239
 1703TIP3    H226601   3.891   0.363   4.197 -0.6644 -0.3688  1.0048
 1704TIP3   OH226602   1.285   1.862  15.693 -0.1296 -0.2355 -0.5923
 1704TIP3    H126603   1.378   1.856  15.715  0.4406 -1.8012 -3.1206
 1704TIP3    H226604   1.247   1.782  15.728 -0.6321  0.5300  0.6802
 1705TIP3   OH226605   2.118   0.895  16.274 -0.5347 -0.6113 -0.1977
 1705TIP3    H126606   2.038   0.844  16.289 -0.8202 -0.4204 -1.0298
 1705TIP3    H226607   2.153   0.861  16.191 -0.0932 -0.2623 -0.1597
 1706TIP3   OH226608   5.945   0.481   3.210 -0.1633 -0.0696 -0.0152
 1706TIP3    H126609   6.011   0.543   3.181  1.6696 -1.6296  0.5683
 1706TIP3    H226610   5.878   0.534   3.251  1.1435  1.5421  0.1339
 1707TIP3   OH226611   3.506   0.198   2.810 -0.2282  0.0360  0.3684
 1707TIP3    H126612   3.468   0.223   2.725 -1.8843 -0.0635  1.0433
 1707TIP3    H226613   3.452   0.125   2.840  1.3104 -0.9580  0.8236
 1708TIP3   OH226614   6.011   0.159   1.525  0.4418  0.6486  0.4599
 1708TIP3    H126615   6.026   0.250   1.502 -1.4366  0.9796  0.4159
 1708TIP3    H226616   5.939   0.161   1.588 -1.2939 -0.9222 -1.3199
 1709TIP3   OH226617   5.065   0.477  16.806  0.0257  0.7941 -0.0020
 1709TIP3    H126618   5.117   0.555  16.787  0.3681  1.1733  2.2569
 1709TIP3    H226619   5.000   0.474  16.736  1.6737  1.5551 -1.6455
 1710TIP3   OH226620   6.224   2.421   0.544  0.1159  0.2641 -0.0928
 1710TIP3    H126621   6.208   2.388   0.456 -1.3639 -0.7045  0.5111
 1710TIP3    H226622   6.137   2.428   0.584  0.5919  2.3587  0.7244
 1711TIP3   OH226623   3.863   1.042   0.775  0.7321 -0.3150 -0.0911
 1711TIP3    H126624   3.795   0.986   0.737 -0.9026  0.4536  1.5805
 1711TIP3    H226625   3.934   1.039   0.711 -1.1302 -0.5520 -2.2855
 1712TIP3   OH226626   3.926   3.261  16.037 -0.0762  0.2625  0.4406
 1712TIP3    H126627   3.898   3.252  15.946  0.0480 -0.4725  0.4654
 1712TIP3    H226628   3.954   3.352  16.045  1.3014 -0.0265 -0.6650
 1713TIP3   OH226629   2.853   2.575  13.363  0.7730  0.8057  0.3105
 1713TIP3    H126630   2.829   2.651  13.310  0.7643  0.7108  0.1783
 1713TIP3    H226631   2.907   2.521  13.305 -0.1039  0.1870  0.0471
 1714TIP3   OH226632   6.132   5.789   0.180 -0.2121  0.3994 -0.0723
 1714TIP3    H126633   6.093   5.710   0.217  0.8415  0.3378  0.9800
 1714TIP3    H226634   6.062   5.829   0.127 -0.8834 -1.0010 -0.2773
 1715TIP3   OH226635   0.816   1.714  17.201  0.3680  0.1022  0.5445
 1715TIP3    H126636   0.863   1.797  17.207 -1.0221  0.8495  1.8098
 1715TIP3    H226637   0.884   1.647  17.197  1.6246  1.0166  3.9607
 1716TIP3   OH226638   1.638   2.847  14.075 -0.5790  0.4260 -0.1396
 1716TIP3    H126639   1.647   2.906  14.150  0.0003  0.8251 -0.5089
 1716TIP3    H226640   1.546   2.851  14.051 -0.6662  0.6838  0.2359
 1717TIP3   OH226641   4.316   2.482   1.114  0.5479 -0.0595 -0.3299
 1717TIP3    H126642   4.360   2.540   1.053  1.3196  1.1141  1.2785
 1717TIP3    H226643   4.286   2.539   1.185 -2.2303 -1.0349 -0.5731
 1718TIP3   OH226644   3.007   2.622   3.360 -0.2843 -0.3873  0.3892
 1718TIP3    H126645   3.033   2.681   3.430  0.9891  0.4449 -0.7299
 1718TIP3    H226646   3.080   2.560   3.353 -0.4058 -0.4689 -0.2031
 1719TIP3   OH226647   5.260   6.807  16.883  0.1492  0.1032 -0.0271
 1719TIP3    H126648   5.299   6.874  16.939  0.1312 -0.9102  1.2563
 1719TIP3    H226649   5.334   6.769  16.836  0.1607  0.9895 -0.7511
 1720TIP3   OH226650   2.123   1.493   1.971  0.8537 -0.4073 -0.5237
 1720TIP3    H126651   2.212   1.492   1.935  0.8697 -0.1996 -0.4906
 1720TIP3    H226652   2.131   1.451   2.056  0.7497 -1.2445 -0.9149
 1721TIP3   OH226653   2.220   5.771  15.190  0.3192 -0.2080  0.3947
 1721TIP3    H126654   2.203   5.863  15.169 -1.7172 -0.8472 -1.0733
 1721TIP3    H226655   2.231   5.770  15.285  0.5242  1.5543  0.4277
 1722TIP3   OH226656   0.392   1.680  12.655  0.3295 -0.2591 -0.2837
 1722TIP3    H126657   0.391   1.670  12.560 -0.2304  0.3907 -0.3546
 1722TIP3    H226658   0.474   1.727  12.673 -0.1480  0.6936 -0.5698
 1723TIP3   OH226659   4.550   6.136   2.087  0.0713 -0.0985  0.2401
 1723TIP3    H126660   4.496   6.152   2.165  0.9225 -0.0247  0.8237
 1723TIP3    H226661   4.595   6.054   2.107 -0.1305 -0.3747 -0.4236
 1724TIP3   OH226662   0.365   4.291  11.081 -0.2254  0.1293  0.1609
 1724TIP3    H126663   0.337   4.262  10.994 -2.9780  0.0611  0.9896
 1724TIP3    H226664   0.363   4.387  11.077 -0.6425  0.1231  0.2387
 1725TIP3   OH226665   4.074   4.754   2.145 -0.1296  0.5458 -0.2090
 1725TIP3    H126666   4.039   4.803   2.219  0.2519  0.4795  0.0168
 1725TIP3    H226667   4.168   4.748   2.162 -0.4334 -2.3234  1.0388
 1726TIP3   OH226668   0.516   1.408  13.405  0.2108 -0.3636  0.1332
 1726TIP3    H126669   0.450   1.389  13.471 -1.4143  1.9722 -0.7329
 1726TIP3    H226670   0.589   1.446  13.455 -0.7171  0.7458  0.6895
 1727TIP3   OH226671   3.376   0.901   2.075  0.0089 -0.1464 -0.0378
 1727TIP3    H126672   3.420   0.980   2.108  1.1902 -0.7422 -0.1432
 1727TIP3    H226673   3.352   0.923   1.985  2.8789 -0.8026 -1.0845
 1728TIP3   OH226674   4.749   4.080   4.296  0.0986  0.4934 -0.1084
 1728TIP3    H126675   4.772   3.990   4.319  1.2157  0.2371 -2.0458
 1728TIP3    H226676   4.654   4.083   4.300  0.0462 -0.7861 -0.0578
 1729TIP3   OH226677   6.732   6.795   4.287  0.2590 -0.0535  0.0475
 1729TIP3    H126678   6.675   6.794   4.211 -1.1568 -0.2028  1.0672
 1729TIP3    H226679   6.799   6.860   4.267 -0.6219  0.5761 -0.9313
 1730TIP3   OH226680   4.248   3.494  13.084 -0.1799 -0.8070 -0.1375
 1730TIP3    H126681   4.253   3.417  13.140  1.5887 -0.7642 -0.1698
 1730TIP3    H226682   4.340   3.517  13.066 -0.6578 -0.3720 -2.4313
 1731TIP3   OH226683   6.716   4.134  15.874 -0.4470 -0.2870  0.0304
 1731TIP3    H126684   6.796   4.103  15.832  1.3364  0.1155  2.8592
 1731TIP3    H226685   6.683   4.203  15.817  1.6676  0.0684 -0.8298
 1732TIP3   OH226686   0.420   1.481   2.710 -0.2692  0.2505  0.1291
 1732TIP3    H126687   0.392   1.397   2.673  2.6470 -0.9165  0.2996
 1732TIP3    H226688   0.469   1.458   2.788  0.5587  2.1280  0.2146
 1733TIP3   OH226689   2.369   1.628   5.154  0.6033  0.0592 -0.6289
 1733TIP3    H126690   2.282   1.589   5.155 -0.0221  1.3876 -0.9871
 1733TIP3    H226691   2.411   1.595   5.233 -1.2667  1.6325  1.1239
 1734TIP3   OH226692   6.417   2.595  15.954 -0.0151 -0.2170  0.1532
 1734TIP3    H126693   6.397   2.680  15.915  2.6530  1.1464  1.5006
 1734TIP3    H226694   6.472   2.551  15.889  1.7837  0.7328  0.9799
 1735TIP3   OH226695   2.534   6.345   4.189 -0.8797  0.0764  0.0586
 1735TIP3    H126696   2.478   6.300   4.126 -0.5934  1.8159 -1.5344
 1735TIP3    H226697   2.481   6.352   4.268 -1.2702 -2.1128  0.0733
 1736TIP3   OH226698   4.391   1.420   2.277  0.0794 -0.3703 -0.4058
 1736TIP3    H126699   4.454   1.387   2.213  1.6859 -0.2300  1.0482
 1736TIP3    H226700   4.425   1.506   2.302 -1.6409  0.4884 -0.8245
 1737TIP3   OH226701   3.481   3.059   2.352  0.4407 -0.0605 -0.2791
 1737TIP3    H126702   3.461   3.025   2.265 -1.4809 -2.1352  0.8572
 1737TIP3    H226703   3.443   2.995   2.412  0.9255  1.7280  2.0956
 1738TIP3   OH226704   4.208   0.960   3.248 -0.2232 -0.0888 -0.2108
 1738TIP3    H126705   4.154   0.953   3.326 -0.8837  0.0778 -0.6507
 1738TIP3    H226706   4.212   0.871   3.213 -1.7194  0.1962 -1.1760
 1739TIP3   OH226707   6.427   2.041   5.495  0.1526 -0.2259 -0.2118
 1739TIP3    H126708   6.347   2.057   5.446  0.6399  1.5552 -0.4886
 1739TIP3    H226709   6.408   2.073   5.583  0.7973  1.0325 -0.4987
 1740TIP3   OH226710   3.674   0.579   0.285  0.5683 -0.2567  0.3426
 1740TIP3    H126711   3.666   0.661   0.332 -0.1934 -0.3439  0.3795
 1740TIP3    H226712   3.675   0.512   0.353  0.0770 -0.3445  0.2656
 1741TIP3   OH226713   1.823   3.433   0.585  0.1263 -1.0468  0.2214
 1741TIP3    H126714   1.767   3.391   0.650  0.4323 -1.3784  0.2772
 1741TIP3    H226715   1.773   3.509   0.555 -1.2806 -2.4513 -1.2321
 1742TIP3   OH226716   1.669   4.372  12.854  0.1325 -0.1014  0.1602
 1742TIP3    H126717   1.698   4.284  12.881  1.3695  0.3112  0.2097
 1742TIP3    H226718   1.641   4.361  12.763 -0.1951 -0.6474  0.3209
 1743TIP3   OH226719   6.418   2.541   4.199 -0.5925 -0.1930 -0.3422
 1743TIP3    H126720   6.369   2.572   4.123 -0.8466  0.3218  0.0290
 1743TIP3    H226721   6.510   2.549   4.174 -0.6457  1.0189 -0.1927
 1744TIP3   OH226722   3.913   0.675   0.701  0.2784 -0.3859 -0.1901
 1744TIP3    H126723   3.830   0.711   0.669  0.4819  1.2500  0.9553
 1744TIP3    H226724   3.933   0.603   0.642 -0.5444  0.9703 -2.2471
 1745TIP3   OH226725   2.816   2.485   3.548 -0.5096 -0.2411  0.1060
 1745TIP3    H126726   2.904   2.518   3.567 -0.6908  0.4445 -0.2375
 1745TIP3    H226727   2.771   2.558   3.505 -0.7670 -1.0761 -1.0941
 1746TIP3   OH226728   0.802   0.376  15.822 -0.0324 -0.0903  0.2526
 1746TIP3    H126729   0.753   0.455  15.840  0.6571  0.5739 -0.6596
 1746TIP3    H226730   0.856   0.398  15.745  0.4678 -1.3039  0.2267
 1747TIP3   OH226731   1.704   3.678   5.635  0.2709  0.2635 -0.5406
 1747TIP3    H126732   1.663   3.595   5.611  1.0804 -0.7958  1.5029
 1747TIP3    H226733   1.773   3.690   5.571  2.1500 -2.2845  0.8227
 1748TIP3   OH226734   3.872   0.630   1.643  0.6482  0.1956  0.4982
 1748TIP3    H126735   3.962   0.618   1.673  0.3198 -2.8035  0.5676
 1748TIP3    H226736   3.854   0.553   1.590 -1.1445  1.9037 -1.5604
 1749TIP3   OH226737   1.523   1.887   4.203 -0.5304 -0.3468  0.2865
 1749TIP3    H126738   1.586   1.877   4.275 -0.5384 -1.2416  0.1879
 1749TIP3    H226739   1.520   1.800   4.163 -1.3703 -0.1492 -0.0953
 1750TIP3   OH226740   4.523   4.929   3.313  0.6988 -0.2438  0.5015
 1750TIP3    H126741   4.592   4.994   3.301  0.0249  0.5628  0.8353
 1750TIP3    H226742   4.503   4.932   3.407  1.0783 -1.3808  0.6255
 1751TIP3   OH226743   4.612   5.873   4.082  0.1909 -0.0156 -0.0754
 1751TIP3    H126744   4.659   5.936   4.136  0.0862 -0.0475  0.0540
 1751TIP3    H226745   4.659   5.872   3.999  0.1766  0.2552 -0.0876
 1752TIP3   OH226746   0.403   0.012   5.168 -0.2113 -0.0520  0.1715
 1752TIP3    H126747   0.377   0.018   5.259  0.9136  1.5136  0.4303
 1752TIP3    H226748   0.327  -0.026   5.124 -0.6643 -1.0997  1.7764
 1753TIP3   OH226749   3.859   2.047  14.880 -0.2747  0.0153  0.1898
 1753TIP3    H126750   3.885   1.963  14.916  2.6505  0.1994 -1.1932
 1753TIP3    H226751   3.852   2.032  14.786  2.2446  1.6536 -0.3488
 1754TIP3   OH226752   0.256   3.354   4.343  0.2035 -0.4974  0.6615
 1754TIP3    H126753   0.232   3.422   4.280 -2.5119 -0.2911  1.7962
 1754TIP3    H226754   0.296   3.402   4.415  1.2399 -0.4885  0.0950
 1755TIP3   OH226755   5.390   0.008  14.317  0.0631  0.8415 -0.0589
 1755TIP3    H126756   5.295  -0.005  14.318  0.0647  0.6095 -1.6492
 1755TIP3    H226757   5.422  -0.058  14.256  1.1072  1.8424 -0.6159
 1756TIP3   OH226758   2.117   1.288  11.108  0.2036 -0.1652  0.2626
 1756TIP3    H126759   2.059   1.315  11.180 -1.6753 -1.3497 -0.7175
 1756TIP3    H226760   2.175   1.363  11.095 -1.2798  1.2165  1.1380
 1757TIP3   OH226761   1.733   2.381   0.680  0.0877 -0.0250  0.6028
 1757TIP3    H126762   1.809   2.381   0.622  0.5741  1.2166  1.1961
 1757TIP3    H226763   1.770   2.359   0.766 -0.3343 -0.0714  0.7718
 1758TIP3   OH226764   2.768   4.804   4.724 -0.2416  0.2611  0.4624
 1758TIP3    H126765   2.753   4.846   4.639 -1.4995  0.7758  0.9122
 1758TIP3    H226766   2.835   4.858   4.766  2.6747 -1.6669 -1.3084
 1759TIP3   OH226767   6.384   4.877  16.262  0.4113 -0.2899  0.1100
 1759TIP3    H126768   6.359   4.874  16.355 -1.8002  1.4246 -0.3261
 1759TIP3    H226769   6.324   4.815  16.219 -0.1080  0.5558 -0.4173
 1760TIP3   OH226770   4.261   6.018  14.563 -0.5781 -0.5179  0.3845
 1760TIP3    H126771   4.259   6.086  14.496 -0.0201  0.0863  0.9569
 1760TIP3    H226772   4.205   5.948  14.529 -0.0209 -0.3807 -0.8668
 1761TIP3   OH226773   4.826   0.954   5.231  0.0274 -0.3684 -0.2425
 1761TIP3    H126774   4.806   0.992   5.316 -2.5344  0.0116 -0.9434
 1761TIP3    H226775   4.880   1.019   5.187  0.4374 -0.0805  0.6779
 1762TIP3   OH226776   1.345   2.802  12.279 -1.1071  0.1790  0.1970
 1762TIP3    H126777   1.316   2.869  12.217 -0.0009  1.5224  1.0790
 1762TIP3    H226778   1.440   2.812  12.284 -0.7506 -2.2292 -0.4847
 1763TIP3   OH226779   4.324   2.357  11.642  0.3683 -0.1752  0.4179
 1763TIP3    H126780   4.290   2.442  11.669 -0.2532 -0.8964  2.0347
 1763TIP3    H226781   4.283   2.295  11.702 -0.0314 -1.7537 -1.3864
 1764TIP3   OH226782   5.210   2.739  14.172 -0.0743 -0.1873 -0.0464
 1764TIP3    H126783   5.304   2.727  14.189  0.0376  0.3905 -0.2532
 1764TIP3    H226784   5.206   2.757  14.078 -0.3179  0.5740  0.1072
 1765TIP3   OH226785   0.968   4.754  11.434 -0.0426 -0.0170  0.1572
 1765TIP3    H126786   0.936   4.666  11.414 -1.8457  0.2357  1.6366
 1765TIP3    H226787   0.899   4.792  11.488  0.5593  2.4293 -0.6976
 1766TIP3   OH226788   4.093   3.268  11.769  0.0685  0.2401 -0.1513
 1766TIP3    H126789   4.061   3.186  11.806 -0.9528  1.0198  0.7577
 1766TIP3    H226790   4.164   3.294  11.828  0.5267 -0.0814 -0.5556
 1767TIP3   OH226791   5.261   6.010  14.283  0.7177  0.1330 -0.4109
 1767TIP3    H126792   5.269   5.914  14.283 -1.0853 -0.0494 -0.0743
 1767TIP3    H226793   5.250   6.034  14.375  0.2608  0.5696 -0.5759
 1768TIP3   OH226794   4.611   5.414   4.733 -0.5237 -0.2352  0.1729
 1768TIP3    H126795   4.540   5.381   4.677 -2.1963  3.1622  0.0242
 1768TIP3    H226796   4.677   5.447   4.672 -1.2877  1.3568  0.1582
 1769TIP3   OH226797   4.570   3.259   3.888  0.8600 -0.0438 -0.9425
 1769TIP3    H126798   4.506   3.293   3.951  1.4127  1.7110 -1.2769
 1769TIP3    H226799   4.654   3.268   3.933  1.0193 -1.2786 -0.9455
 1770TIP3   OH226800   2.389   1.857  14.282 -0.6719  0.1498 -0.2673
 1770TIP3    H126801   2.405   1.948  14.257  0.5277  0.1382  0.3596
 1770TIP3    H226802   2.320   1.861  14.348 -0.5572  0.6197 -0.1744
 1771TIP3   OH226803   2.804   2.269  11.977  0.0794 -0.2817 -0.3952
 1771TIP3    H126804   2.736   2.258  11.910  2.8181 -3.2313 -3.0566
 1771TIP3    H226805   2.780   2.206  12.045 -1.6311  1.2384  0.4671
 1772TIP3   OH226806   2.867   3.932   1.975  0.3393  0.4519  0.0875
 1772TIP3    H126807   2.886   3.843   2.006 -1.8910 -0.5931 -1.3306
 1772TIP3    H226808   2.945   3.982   2.000  1.7014 -1.8818  0.9008
 1773TIP3   OH226809   0.145   3.987  16.883  0.3525 -0.5442  0.2191
 1773TIP3    H126810   0.090   3.914  16.912 -0.9935  0.5144  0.4598
 1773TIP3    H226811   0.226   3.946  16.854  0.3203 -1.9947  1.9693
 1774TIP3   OH226812   3.541   0.648  11.667  0.9567 -0.2082 -0.1569
 1774TIP3    H126813   3.581   0.571  11.626  0.6129 -1.0825  1.0676
 1774TIP3    H226814   3.464   0.613  11.712  1.3754  0.6786  1.3003
 1775TIP3   OH226815   0.373   0.345   5.899  0.1132  0.0257 -0.1523
 1775TIP3    H126816   0.459   0.338   5.940  0.8927  0.0229 -1.7374
 1775TIP3    H226817   0.387   0.322   5.808 -1.1123  2.1705 -0.9739
 1776TIP3   OH226818   2.917   3.324  16.863  0.2541 -0.2530 -0.1807
 1776TIP3    H126819   2.924   3.246  16.917  2.3682  0.1851  0.2688
 1776TIP3    H226820   2.983   3.313  16.795 -1.6378 -0.3054 -2.1317
 1777TIP3   OH226821   1.936   2.070  14.777 -0.4355 -0.2516 -0.5912
 1777TIP3    H126822   2.007   2.044  14.718  0.6205  0.9901  0.0871
 1777TIP3    H226823   1.857   2.066  14.722 -0.0720 -2.7904 -1.0482
 1778TIP3   OH226824   4.638   4.517   3.517 -0.3889  0.0641  0.4272
 1778TIP3    H126825   4.726   4.553   3.529 -1.1419  1.5043  1.8590
 1778TIP3    H226826   4.650   4.422   3.524  1.0375  0.2487  0.6903
 1779TIP3   OH226827   4.582   6.158   4.392 -0.4825  0.1025 -0.0813
 1779TIP3    H126828   4.496   6.185   4.424  0.2503  1.4237  0.8484
 1779TIP3    H226829   4.582   6.181   4.299 -0.1196  2.8769  0.5306
 1780TIP3   OH226830   1.288   1.357  15.791  1.0904  0.1783 -0.0458
 1780TIP3    H126831   1.240   1.292  15.843  1.4821 -0.1958 -0.1450
 1780TIP3    H226832   1.246   1.356  15.705  0.4323  0.8069  0.2540
 1781TIP3   OH226833   1.957   3.627  13.398  0.1748 -0.2987 -0.7517
 1781TIP3    H126834   1.927   3.638  13.307  1.1939  2.7127 -0.8128
 1781TIP3    H226835   1.983   3.715  13.426  0.8388 -1.3134  2.1594
 1782TIP3   OH226836   2.549   3.436  17.168  0.0844 -0.9297  0.3646
 1782TIP3    H126837   2.592   3.454  17.252  0.2271  2.1493 -0.2258
 1782TIP3    H226838   2.587   3.354  17.138  3.1224 -0.0609  1.4562
 1783TIP3   OH226839   5.990   5.065   2.536  0.0137  0.5278  0.6849
 1783TIP3    H126840   6.023   5.103   2.455 -1.4621 -2.3246 -1.4385
 1783TIP3    H226841   5.898   5.091   2.539 -0.5264 -1.1821  0.1712
 1784TIP3   OH226842   4.006   2.867  13.280 -0.6354  0.1342  0.1886
 1784TIP3    H126843   3.941   2.933  13.303  0.2673  1.6077 -1.3011
 1784TIP3    H226844   3.993   2.852  13.186  0.1014 -0.7593  0.2141
 1785TIP3   OH226845   0.715   4.706  17.155  0.2432 -0.2507 -0.5245
 1785TIP3    H126846   0.622   4.686  17.147  0.2185  0.3402 -2.0598
 1785TIP3    H226847   0.755   4.665  17.077  1.1528  0.1296 -0.2725
 1786TIP3   OH226848   5.644   1.238   5.874  0.3317  0.3689 -0.2119
 1786TIP3    H126849   5.714   1.302   5.890 -0.3213  1.7053 -2.3445
 1786TIP3    H226850   5.645   1.182   5.952  2.0398  1.9387  0.9815
 1787TIP3   OH226851   1.454   0.563  11.928  0.6232  0.4721  0.3209
 1787TIP3    H126852   1.493   0.533  11.845 -0.8990  1.7575 -0.9248
 1787TIP3    H226853   1.490   0.651  11.941 -1.4701  1.5585 -0.6932
 1788TIP3   OH226854   0.789   2.939   0.159 -0.2854  0.1448  0.2744
 1788TIP3    H126855   0.779   2.894   0.243  0.4686 -1.8863 -0.6664
 1788TIP3    H226856   0.757   2.876   0.094 -0.5285  1.5456 -1.0166
 1789TIP3   OH226857   0.174   0.434   0.661  0.1764  0.4653  0.5666
 1789TIP3    H126858   0.094   0.455   0.614 -2.0208 -1.6534  3.0219
 1789TIP3    H226859   0.221   0.373   0.603 -0.0075  1.6256 -0.8389
 1790TIP3   OH226860   1.784   2.909  13.215 -0.8012  0.3685  0.7899
 1790TIP3    H126861   1.701   2.889  13.259 -1.7065  0.6960 -0.7156
 1790TIP3    H226862   1.765   2.987  13.163  0.5072  0.5472  0.5569
 1791TIP3   OH226863   0.957   0.636   0.975  0.5342 -0.0423  0.2112
 1791TIP3    H126864   1.040   0.668   0.941  0.7864 -0.5676  0.3170
 1791TIP3    H226865   0.907   0.611   0.896  1.2464 -1.5684  0.2068
 1792TIP3   OH226866   5.546   4.352   0.508 -0.6676 -0.1223 -0.3527
 1792TIP3    H126867   5.630   4.324   0.544 -0.9036  0.3617  0.6073
 1792TIP3    H226868   5.481   4.299   0.555 -1.1152  1.7903  1.3665
 1793TIP3   OH226869   2.959   6.674   3.865 -0.7267  0.0353  0.2909
 1793TIP3    H126870   2.886   6.698   3.809 -0.3230  0.9632  0.1437
 1793TIP3    H226871   2.964   6.744   3.930 -1.0893 -0.9455  1.4125
 1794TIP3   OH226872   5.994   5.596  11.764 -0.7856 -0.0194 -0.5502
 1794TIP3    H126873   5.916   5.564  11.810 -0.2891 -1.4461 -0.6424
 1794TIP3    H226874   6.047   5.518  11.750 -0.2596  0.5902 -2.2907
 1795TIP3   OH226875   6.166   4.183   0.942  0.6957  0.9558  0.2623
 1795TIP3    H126876   6.215   4.105   0.968  1.1743  0.6971 -1.3055
 1795TIP3    H226877   6.218   4.222   0.871  0.0917  2.2904  0.5211
 1796TIP3   OH226878   0.653   3.657  12.829 -0.7221  0.5304 -0.5123
 1796TIP3    H126879   0.663   3.574  12.783 -0.0429  0.2480  0.1407
 1796TIP3    H226880   0.593   3.638  12.901 -0.9088  0.7106 -0.6190
 1797TIP3   OH226881   5.532   6.775   0.996 -0.2184  0.3603 -0.5390
 1797TIP3    H126882   5.535   6.747   1.088 -1.4778 -0.8052 -0.8165
 1797TIP3    H226883   5.609   6.831   0.985  1.1020 -1.1042  0.7033
 1798TIP3   OH226884   0.013   1.714  15.891  0.2070  0.6566  0.3321
 1798TIP3    H126885   0.025   1.675  15.804  0.3435  0.5224  0.4115
 1798TIP3    H226886  -0.064   1.670  15.926 -0.3937  1.3422 -0.0796
 1799TIP3   OH226887   2.015   6.801   2.784  0.9481 -0.4449  0.1047
 1799TIP3    H126888   2.030   6.761   2.870  0.3019 -0.0403  0.4095
 1799TIP3    H226889   2.102   6.828   2.755  1.1559 -0.4637  0.6928
 1800TIP3   OH226890   5.582   1.938  16.178 -0.1260 -0.0097 -0.6658
 1800TIP3    H126891   5.604   1.994  16.104  1.8978  0.3045  0.1081
 1800TIP3    H226892   5.605   1.850  16.148 -0.6408 -0.0650 -0.8997
 1801TIP3   OH226893   0.086   2.000  11.350  0.3126  0.5591 -0.2323
 1801TIP3    H126894   0.082   2.058  11.274 -0.1414 -0.8213 -1.3203
 1801TIP3    H226895   0.035   2.045  11.418  0.6590  1.7837 -0.7655
 1802TIP3   OH226896   2.155   2.916  11.661  0.0829 -0.2166 -0.1617
 1802TIP3    H126897   2.243   2.915  11.700  0.1851 -1.5438 -0.3917
 1802TIP3    H226898   2.144   2.829  11.624 -1.3332 -0.0568 -0.1649
 1803TIP3   OH226899   5.063   4.228   5.956 -0.0326  0.0531  0.0131
 1803TIP3    H126900   5.083   4.174   6.033 -2.2166 -0.4598  0.2861
 1803TIP3    H226901   5.058   4.317   5.991  1.5150  0.1893 -0.0500
 1804TIP3   OH226902   2.043   1.081  13.777 -0.3328  0.0183 -0.2588
 1804TIP3    H126903   1.969   1.022  13.785 -0.4243  0.1589 -0.0503
 1804TIP3    H226904   2.015   1.161  13.824  0.1393 -0.1141  0.2606
 1805TIP3   OH226905   2.215   6.362   6.179 -0.7571  0.2590 -0.6034
 1805TIP3    H126906   2.123   6.335   6.192 -0.4518 -0.3600  0.3592
 1805TIP3    H226907   2.209   6.438   6.121 -1.8917  0.3420 -0.4110
 1806TIP3   OH226908   0.809   6.431   2.984 -0.6195 -0.6021  0.8351
 1806TIP3    H126909   0.768   6.441   2.898  0.1541  0.2448  0.5435
 1806TIP3    H226910   0.856   6.514   2.998  1.6242 -1.8059  0.7973
 1807TIP3   OH226911   5.371   2.063  13.853  0.0528 -0.2750  0.1051
 1807TIP3    H126912   5.383   1.974  13.821  0.3204 -0.4932  0.7935
 1807TIP3    H226913   5.460   2.097  13.863 -0.0529  0.6640 -1.7330
 1808TIP3   OH226914   0.087   0.562   2.861 -0.3887 -0.3121 -0.4732
 1808TIP3    H126915   0.109   0.532   2.949  0.1790  1.1222 -0.1041
 1808TIP3    H226916   0.033   0.639   2.874  0.1746  0.2601 -1.3718
 1809TIP3   OH226917   6.526   4.586  16.914  0.0063 -0.1297  0.0206
 1809TIP3    H126918   6.484   4.597  16.828  1.0738  1.5179 -0.3250
 1809TIP3    H226919   6.452   4.584  16.976 -0.7657 -1.1565 -0.9029
 1810TIP3   OH226920   0.871   3.674  15.978  0.1717  0.5264  0.5633
 1810TIP3    H126921   0.781   3.705  15.987 -1.7986 -3.9578 -0.7679
 1810TIP3    H226922   0.899   3.656  16.068 -0.4092  1.5146  0.9577
 1811TIP3   OH226923   5.386   6.676  14.554 -0.4751 -0.0942  0.0043
 1811TIP3    H126924   5.317   6.711  14.610 -1.2191 -0.0337 -0.9326
 1811TIP3    H226925   5.345   6.602  14.509  0.0887 -0.0864 -0.5293
 1812TIP3   OH226926   0.378   1.983  17.038  0.2344 -0.2490 -0.1835
 1812TIP3    H126927   0.452   1.926  17.060  1.2776  0.1012 -2.4887
 1812TIP3    H226928   0.397   2.065  17.083  0.9675 -0.3394 -0.3138
 1813TIP3   OH226929   2.097   3.851  13.512 -0.2123 -0.4578 -0.1820
 1813TIP3    H126930   2.036   3.820  13.579 -0.3473 -0.2476 -0.2045
 1813TIP3    H226931   2.135   3.931  13.550  1.0285 -1.2899  0.3844
 1814TIP3   OH226932   4.958   4.355  11.142  0.4438 -0.6827 -0.2322
 1814TIP3    H126933   5.002   4.282  11.185 -0.2064 -0.3649  1.0235
 1814TIP3    H226934   4.900   4.390  11.209  0.0543  0.3993 -1.1140
 1815TIP3   OH226935   5.867   4.518  12.860 -0.0391  0.6755  0.3825
 1815TIP3    H126936   5.933   4.574  12.819  0.0898  0.2913  0.0517
 1815TIP3    H226937   5.851   4.449  12.795  1.1630 -0.7212  1.5004
 1816TIP3   OH226938   4.745   0.662  14.740  0.2193  0.4170 -0.3044
 1816TIP3    H126939   4.814   0.617  14.692  1.9610  2.3296  0.2547
 1816TIP3    H226940   4.789   0.702  14.815 -1.3456  2.2125 -0.2430
 1817TIP3   OH226941   5.040   1.099  14.121 -0.0771 -0.7645 -0.0506
 1817TIP3    H126942   4.965   1.152  14.149  0.6968 -0.0895  0.8080
 1817TIP3    H226943   5.066   1.052  14.200  1.8711  0.8298  0.3295
 1818TIP3   OH226944   2.859   4.873   5.170  0.3677 -0.2802 -0.0763
 1818TIP3    H126945   2.813   4.904   5.248  0.8394  2.0837 -0.6562
 1818TIP3    H226946   2.949   4.901   5.182  0.0781  1.9344 -2.2877
 1819TIP3   OH226947   4.172   4.435  16.059  0.1051 -0.0934  0.6686
 1819TIP3    H126948   4.078   4.448  16.072  0.0661 -0.9132  1.3136
 1819TIP3    H226949   4.213   4.488  16.128  0.0443 -1.0198  1.4434
 1820TIP3   OH226950   2.126   6.544   5.229 -1.0326 -0.1258 -0.2973
 1820TIP3    H126951   2.054   6.519   5.288 -0.6425  1.0858  0.7433
 1820TIP3    H226952   2.084   6.556   5.144 -2.0890  0.5694  0.2922
 1821TIP3   OH226953   3.694   2.925   1.907 -0.2571 -0.2246 -0.3992
 1821TIP3    H126954   3.729   2.992   1.848 -0.3870  0.4797  0.2951
 1821TIP3    H226955   3.726   2.951   1.993 -1.3904 -0.3077  0.0614
 1822TIP3   OH226956   6.316   2.742  14.606  0.6396  0.4561 -0.2194
 1822TIP3    H126957   6.295   2.747  14.699 -1.1757  0.4242 -0.6038
 1822TIP3    H226958   6.399   2.791  14.598  0.2750  1.3814  1.2420
 1823TIP3   OH226959   5.185   5.365  15.099 -0.3786  0.3176 -0.2426
 1823TIP3    H126960   5.231   5.334  15.021 -0.5923  0.6331 -0.4971
 1823TIP3    H226961   5.174   5.459  15.085 -1.9931  0.1033 -0.6764
 1824TIP3   OH226962   0.370   3.446   2.492  0.1945 -0.3425  0.5775
 1824TIP3    H126963   0.443   3.399   2.531 -0.3324 -1.5408  0.1783
 1824TIP3    H226964   0.340   3.506   2.560  1.0497 -0.3948  1.0106
 1825TIP3   OH226965   6.316   0.287  15.022  0.0090 -0.0216 -0.1349
 1825TIP3    H126966   6.301   0.326  14.936  0.4679 -0.4300 -0.4084
 1825TIP3    H226967   6.394   0.232  15.009 -0.8665 -1.3589  0.1297
 1826TIP3   OH226968   4.257   3.188  11.323  0.5867  0.0408 -0.0645
 1826TIP3    H126969   4.217   3.160  11.241 -0.6400  2.9589 -0.5837
 1826TIP3    H226970   4.244   3.114  11.382  1.2959 -2.0567 -2.3731
 1827TIP3   OH226971   0.865   4.139   2.997  0.1890  0.3413  0.1779
 1827TIP3    H126972   0.808   4.104   2.929  1.2567  2.4339 -1.9190
 1827TIP3    H226973   0.954   4.117   2.967  0.6800 -2.0699  2.9185
 1828TIP3   OH226974   6.691   4.906  11.305  0.0723  0.1246  0.2070
 1828TIP3    H126975   6.729   4.902  11.218 -0.8060  0.8035 -0.2237
 1828TIP3    H226976   6.750   4.962  11.355  1.1092 -1.0466  0.3445
 1829TIP3   OH226977   2.413   6.008   2.293  0.2690 -0.1464 -0.0372
 1829TIP3    H126978   2.491   6.001   2.347  0.9326 -0.8201 -1.0623
 1829TIP3    H226979   2.369   5.924   2.303 -0.7970  0.5159  1.1944
 1830TIP3   OH226980   1.523   5.567  11.720 -0.3064  0.0333  0.5219
 1830TIP3    H126981   1.445   5.522  11.690 -0.4575 -0.5629  1.7546
 1830TIP3    H226982   1.591   5.500  11.722  0.4841  0.7348 -1.3702
 1831TIP3   OH226983   0.971   6.552  11.799 -0.5338  0.0311 -0.8228
 1831TIP3    H126984   1.019   6.515  11.873  0.6248  2.2606 -0.4033
 1831TIP3    H226985   1.028   6.539  11.724  0.5596  2.1935 -0.4176
 1832TIP3   OH226986   4.898   2.709  13.414 -0.3115  0.1441 -0.3901
 1832TIP3    H126987   4.961   2.772  13.448 -0.7206  0.6092 -0.4808
 1832TIP3    H226988   4.813   2.748  13.434 -0.5949 -0.9474  0.6450
 1833TIP3   OH226989   5.633   2.236  15.174  0.4628  0.3996 -0.2030
 1833TIP3    H126990   5.674   2.322  15.186 -0.2177  0.4446  2.3925
 1833TIP3    H226991   5.558   2.253  15.118  2.0340  0.8980 -2.2752
 1834TIP3   OH226992   0.558   3.472   1.703 -0.5414  0.3295  0.0583
 1834TIP3    H126993   0.477   3.449   1.749 -0.7120  1.4260  0.3499
 1834TIP3    H226994   0.611   3.393   1.705 -0.1667  0.5569  2.9737
 1835TIP3   OH226995   2.987   4.344   4.558  0.1631  0.0119  0.7975
 1835TIP3    H126996   2.928   4.316   4.628 -0.2771  0.9839  0.8237
 1835TIP3    H226997   3.034   4.264   4.534 -1.4237 -0.8793  0.4970
 1836TIP3   OH226998   1.941   0.524   2.961  0.4367  0.1577  0.8716
 1836TIP3    H126999   1.971   0.441   2.922 -0.5390 -0.3646  1.2032
 1836TIP3    H227000   2.014   0.584   2.946  0.2432 -0.0869 -1.5160
 1837TIP3   OH227001   4.333   4.544  11.985  0.3222 -0.6003  0.3412
 1837TIP3    H127002   4.254   4.498  12.015 -0.0980  0.2497  0.5810
 1837TIP3    H227003   4.405   4.500  12.029 -0.2461  0.3393  2.3237
 1838TIP3   OH227004   4.096   5.507   4.980 -0.1373 -0.3762  0.1036
 1838TIP3    H127005   4.017   5.509   4.926  0.3247 -1.7293 -0.6652
 1838TIP3    H227006   4.083   5.577   5.044 -2.7162 -1.6441  1.0885
 1839TIP3   OH227007   5.644   5.538   4.774 -0.6958 -0.2626 -0.3142
 1839TIP3    H127008   5.623   5.596   4.701  1.7475  0.2069 -0.7160
 1839TIP3    H227009   5.620   5.589   4.852  2.3485  1.8756 -0.6086
 1840TIP3   OH227010   4.311   3.574  16.696 -0.4614  0.1746 -0.4460
 1840TIP3    H127011   4.342   3.631  16.626 -2.4521  1.6421 -0.2136
 1840TIP3    H227012   4.307   3.631  16.773 -2.0184 -0.3814 -0.0750
 1841TIP3   OH227013   3.416   3.982   5.357 -0.1925 -0.0249  0.0378
 1841TIP3    H127014   3.366   4.026   5.426 -0.0381 -0.2168  0.2706
 1841TIP3    H227015   3.415   3.890   5.382  1.3913  0.1256  0.7543
 1842TIP3   OH227016   6.556   3.748   0.381  0.2452  0.1442 -0.0667
 1842TIP3    H127017   6.513   3.834   0.378 -2.4548 -1.1403 -1.7962
 1842TIP3    H227018   6.567   3.731   0.475 -0.5018  1.7545  0.3565
 1843TIP3   OH227019   1.515   5.864   4.383  0.3438 -0.1523  0.2112
 1843TIP3    H127020   1.461   5.909   4.448  1.7000  0.1861  1.1425
 1843TIP3    H227021   1.477   5.777   4.377  0.4492 -0.3244  1.7837
 1844TIP3   OH227022   3.679   1.479   0.922 -0.4357 -0.4191  0.5392
 1844TIP3    H127023   3.689   1.531   0.842 -1.3037  0.9168  1.2647
 1844TIP3    H227024   3.741   1.407   0.911  1.2612  1.0765 -0.2705
 1845TIP3   OH227025   0.481   3.337  14.534  0.7479 -0.4972 -0.7610
 1845TIP3    H127026   0.404   3.391  14.551  1.1082 -0.5687  1.3378
 1845TIP3    H227027   0.519   3.374  14.455 -0.8298  0.2121 -1.2287
 1846TIP3   OH227028   0.835   3.600  12.498 -0.2270  0.0504  0.0519
 1846TIP3    H127029   0.857   3.651  12.420 -0.3014 -0.9311 -0.6405
 1846TIP3    H227030   0.872   3.513  12.480 -1.4469 -0.5778  0.4930
 1847TIP3   OH227031   0.814   5.196   4.220 -0.3922  0.3550 -0.0300
 1847TIP3    H127032   0.786   5.194   4.312 -2.2544  2.3542 -0.4697
 1847TIP3    H227033   0.859   5.112   4.207 -0.6006 -0.2425  2.5270
 1848TIP3   OH227034   0.945   0.321  11.136  0.1778  0.2846 -0.6343
 1848TIP3    H127035   1.014   0.264  11.170 -0.2727 -0.7001 -1.3328
 1848TIP3    H227036   0.875   0.262  11.111 -0.9598  1.2765  0.1078
 1849TIP3   OH227037   2.846   4.455   5.675 -0.3391  0.6545 -0.3244
 1849TIP3    H127038   2.769   4.401   5.657  0.0898 -0.7151  1.5903
 1849TIP3    H227039   2.813   4.525   5.731 -0.3229  0.4479 -0.0522
 1850TIP3   OH227040   4.838   1.724   0.229 -0.3047  0.1943  0.0219
 1850TIP3    H127041   4.809   1.634   0.237  1.1044 -0.3275 -0.4450
 1850TIP3    H227042   4.774   1.765   0.171  0.4623 -1.2111 -1.9245
 1851TIP3   OH227043   0.870   1.493   0.366 -0.3624  0.2456 -0.0177
 1851TIP3    H127044   0.960   1.464   0.380 -0.3275  1.2038  2.1837
 1851TIP3    H227045   0.870   1.585   0.393 -2.0646  0.1635  0.3543
 1852TIP3   OH227046   1.540   0.856   2.245  1.0585 -0.0974  0.1626
 1852TIP3    H127047   1.570   0.941   2.279  0.2021 -0.5729  2.2011
 1852TIP3    H227048   1.620   0.803   2.240  1.6928  0.9086 -1.5981
 1853TIP3   OH227049   0.215   2.700   6.430 -0.4962 -0.0796 -0.0013
 1853TIP3    H127050   0.287   2.644   6.457  0.0885  1.1754  1.1455
 1853TIP3    H227051   0.203   2.680   6.337  0.9502 -0.7146 -0.0739
 1854TIP3   OH227052   4.594   5.061   1.085 -0.1873 -0.3956  0.3164
 1854TIP3    H127053   4.682   5.045   1.051 -1.5027 -1.5828 -3.0004
 1854TIP3    H227054   4.564   5.138   1.037 -1.5385 -1.0280  0.1012
 1855TIP3   OH227055   3.984   1.187   0.497 -0.0900 -0.8326 -0.0481
 1855TIP3    H127056   3.985   1.265   0.552 -0.7876 -0.1564 -0.9759
 1855TIP3    H227057   3.901   1.144   0.516 -0.5352 -0.3544 -0.9061
 1856TIP3   OH227058   2.034   5.784  13.723 -0.3433 -0.2173 -0.1171
 1856TIP3    H127059   2.038   5.784  13.818  1.5565 -0.2804 -0.1577
 1856TIP3    H227060   2.026   5.692  13.699  0.4664 -0.3233 -0.0222
 1857TIP3   OH227061   0.810   6.056  14.440 -0.1298  0.3133 -0.2032
 1857TIP3    H127062   0.871   5.983  14.454 -0.1946  0.3970  0.5237
 1857TIP3    H227063   0.731   6.014  14.405 -0.7779 -0.2061  1.7664
 1858TIP3   OH227064   4.974   5.369  15.821  0.2115  0.2167 -0.4253
 1858TIP3    H127065   5.031   5.390  15.895  1.6152 -0.3351 -1.3191
 1858TIP3    H227066   5.017   5.409  15.745 -1.5494  1.3410 -0.8743
 1859TIP3   OH227067   0.251   3.176   2.646  0.1818  0.2756 -0.2658
 1859TIP3    H127068   0.181   3.201   2.586 -0.5675  0.1756  0.5513
 1859TIP3    H227069   0.270   3.257   2.694  0.1417  0.1288 -0.0037
 1860TIP3   OH227070   2.881   4.524  14.648 -0.0094 -0.2901 -0.0134
 1860TIP3    H127071   2.802   4.550  14.600 -0.7835 -0.1485  1.2873
 1860TIP3    H227072   2.858   4.538  14.740  2.1047  1.3536  0.3421
 1861TIP3   OH227073   5.793   2.780  13.621 -0.4786 -0.1777  0.3984
 1861TIP3    H127074   5.832   2.711  13.567  0.1248  0.0065  0.5866
 1861TIP3    H227075   5.856   2.794  13.691 -0.6739  0.4432  0.4585
 1862TIP3   OH227076   4.285   1.846  11.655  0.3334  0.0775  0.6319
 1862TIP3    H127077   4.251   1.843  11.565 -1.4727  0.4751  1.2495
 1862TIP3    H227078   4.360   1.787  11.654 -0.8216 -1.4837 -0.6907
 1863TIP3   OH227079   6.411   5.834  15.870  0.0403  0.1101  0.2512
 1863TIP3    H127080   6.387   5.857  15.780  0.7323  1.6040  0.4055
 1863TIP3    H227081   6.371   5.748  15.885 -1.1053  0.3740 -1.0651
 1864TIP3   OH227082   4.178   5.423   2.830 -0.0192  0.6913  0.2231
 1864TIP3    H127083   4.189   5.353   2.766 -0.1253  0.3407  0.5830
 1864TIP3    H227084   4.122   5.385   2.898 -0.3728  1.2454  0.2438
 1865TIP3   OH227085   6.175   0.034   5.699  0.3238  0.1639  0.2495
 1865TIP3    H127086   6.147   0.019   5.789  1.4198  2.4423  1.0356
 1865TIP3    H227087   6.105   0.086   5.660  0.1947 -0.1979 -0.0120
 1866TIP3   OH227088   3.199   5.452  13.208 -0.7430 -0.5023 -0.0354
 1866TIP3    H127089   3.270   5.492  13.259  0.0065 -0.2205 -1.2437
 1866TIP3    H227090   3.127   5.443  13.270  0.0573  0.0185  1.0101
 1867TIP3   OH227091   4.781   0.772  16.995  0.2839  0.0686  0.1303
 1867TIP3    H127092   4.871   0.804  16.988 -0.0082  1.1071  0.9228
 1867TIP3    H227093   4.789   0.691  17.045  1.1307 -1.7052 -2.6282
 1868TIP3   OH227094   6.814   2.986  16.978 -0.0745  0.0064  0.5257
 1868TIP3    H127095   6.885   2.992  17.042  1.8950 -2.7536 -1.1683
 1868TIP3    H227096   6.848   3.030  16.900 -0.6770 -0.3814  0.0306
 1869TIP3   OH227097   2.387   4.912  16.268  0.1064  0.1538  0.3947
 1869TIP3    H127098   2.450   4.896  16.198 -0.8891  2.4844 -1.1875
 1869TIP3    H227099   2.334   4.833  16.271  0.3517 -0.1251 -1.3267
 1870TIP3   OH227100   1.034   6.731  16.984 -0.0162  0.7338  0.1627
 1870TIP3    H127101   1.076   6.661  17.032  0.0506  0.4235 -0.3376
 1870TIP3    H227102   0.956   6.691  16.945 -1.0746  1.4157  1.4759
 1871TIP3   OH227103   2.404   0.297   4.603 -0.1514  0.0145 -0.8484
 1871TIP3    H127104   2.356   0.334   4.676  1.7762 -0.6151  0.8304
 1871TIP3    H227105   2.447   0.372   4.561 -0.2906  0.2449 -0.5774
 1872TIP3   OH227106   1.204   2.461  10.373  0.1932  0.0782 -0.4314
 1872TIP3    H127107   1.112   2.433  10.376 -0.3238  1.6372 -0.8758
 1872TIP3    H227108   1.206   2.544  10.421  1.7976 -0.9291  1.3889
 1873TIP3   OH227109   4.412   0.383  16.334  0.5085  0.3522  0.5424
 1873TIP3    H127110   4.484   0.432  16.372 -0.4698  0.5338  2.2714
 1873TIP3    H227111   4.356   0.449  16.293  0.6868  0.3535  0.3041
 1874TIP3   OH227112   2.956   6.186  15.397  0.5173  0.3565  0.3180
 1874TIP3    H127113   2.974   6.113  15.456  2.1676  1.1937  0.9173
 1874TIP3    H227114   2.900   6.245  15.448  0.3178  0.1568  0.3307
 1875TIP3   OH227115   6.129   1.478  15.134 -0.0033  0.4074  0.2522
 1875TIP3    H127116   6.139   1.572  15.118 -1.2724  0.7611  1.3503
 1875TIP3    H227117   6.206   1.454  15.186  0.4761  0.7555 -0.2805
 1876TIP3   OH227118   4.474   6.794   5.911 -0.2872 -0.1206  0.2811
 1876TIP3    H127119   4.497   6.882   5.882  0.5508 -0.4505 -0.0921
 1876TIP3    H227120   4.458   6.745   5.830 -1.2749 -0.1848  0.5019
 1877TIP3   OH227121   5.467   5.977  11.964 -0.2133  0.0692 -0.5609
 1877TIP3    H127122   5.384   5.980  11.917  0.2160 -0.7748 -1.3919
 1877TIP3    H227123   5.476   6.065  12.002 -3.5262 -0.8978  3.2265
 1878TIP3   OH227124   1.163   3.536  11.393 -0.3586 -0.2116 -0.3227
 1878TIP3    H127125   1.154   3.517  11.300 -1.7699  1.0276 -0.4691
 1878TIP3    H227126   1.121   3.621  11.405  0.1505 -0.1588  1.3835
 1879TIP3   OH227127   0.417   1.994  12.868 -0.4452 -0.3501 -0.5032
 1879TIP3    H127128   0.476   2.051  12.918 -2.2051 -0.0720  1.4001
 1879TIP3    H227129   0.474   1.929  12.828  1.2502  0.5752  0.3023
 1880TIP3   OH227130   4.355   4.180  15.982  0.4363  0.0596 -0.2067
 1880TIP3    H127131   4.434   4.169  16.035 -0.7882  0.4868  1.7987
 1880TIP3    H227132   4.371   4.259  15.931  1.8883 -0.6950 -0.9849
 1881TIP3   OH227133   3.234   4.413  12.572 -0.0064  0.0928  0.2542
 1881TIP3    H127134   3.246   4.377  12.484  1.5628  0.5069  0.2558
 1881TIP3    H227135   3.254   4.339  12.630 -0.0983  0.0728  0.2599
 1882TIP3   OH227136   3.019   6.154  14.928  0.2851 -0.3937  0.2753
 1882TIP3    H127137   3.065   6.161  14.845 -0.6577 -1.0110 -0.3215
 1882TIP3    H227138   2.984   6.242  14.944  1.0991 -0.0913  0.4013
 1883TIP3   OH227139   1.406   2.345  12.513  0.0676  0.0011  0.0933
 1883TIP3    H127140   1.412   2.278  12.581  0.0911 -0.1067 -0.0119
 1883TIP3    H227141   1.314   2.371  12.511 -0.0964 -0.5828 -0.3855
 1884TIP3   OH227142   3.841   1.170   0.245 -0.0071  0.3688  0.1238
 1884TIP3    H127143   3.913   1.190   0.305 -1.4475  1.0561  1.6885
 1884TIP3    H227144   3.805   1.255   0.221 -1.7411 -0.0211  1.2102
 1885TIP3   OH227145   1.684   3.652   1.464 -0.4924  0.1307  0.4908
 1885TIP3    H127146   1.640   3.617   1.386 -0.5049  0.8240  0.1835
 1885TIP3    H227147   1.638   3.610   1.537  0.6078 -1.8438  0.1414
 1886TIP3   OH227148   6.507   4.004   0.143 -0.6245 -0.1492  0.0053
 1886TIP3    H127149   6.485   3.915   0.115 -1.6037  0.1655 -0.2699
 1886TIP3    H227150   6.494   4.057   0.064  0.5784  0.1547 -0.0060
 1887TIP3   OH227151   5.938   5.630  14.374  0.0339 -0.1815  0.3404
 1887TIP3    H127152   6.003   5.638  14.444  0.2537 -0.4930  0.1739
 1887TIP3    H227153   5.901   5.717  14.365 -0.4264 -0.2671  1.2614
 1888TIP3   OH227154   1.894   3.134   5.966 -0.6220  0.2195 -0.0935
 1888TIP3    H127155   1.907   3.165   6.056  2.1095 -0.2223 -0.2669
 1888TIP3    H227156   1.799   3.137   5.954 -1.0707  0.3867  2.7578
 1889TIP3   OH227157   4.726   5.198   2.820  0.4875  0.3016 -0.2939
 1889TIP3    H127158   4.631   5.195   2.810  0.1153  2.8577  1.4528
 1889TIP3    H227159   4.749   5.113   2.858 -0.8232 -0.9537 -2.1140
 1890TIP3   OH227160   1.011   2.110   3.810 -0.0766  0.7154 -0.6691
 1890TIP3    H127161   1.065   2.121   3.731  0.7268  0.2289 -0.1983
 1890TIP3    H227162   1.069   2.132   3.882 -0.3639 -0.2687 -0.1239
 1891TIP3   OH227163   0.768   2.050   4.935 -0.0629  0.2068  0.0294
 1891TIP3    H127164   0.786   2.022   5.025  2.8290  0.8772 -0.2229
 1891TIP3    H227165   0.709   2.125   4.944 -0.4956 -0.2601  1.2962
 1892TIP3   OH227166   4.577   0.028   2.142  0.3426 -0.2090 -0.2053
 1892TIP3    H127167   4.531  -0.010   2.068 -2.5810  1.3787  0.6114
 1892TIP3    H227168   4.530   0.109   2.160  2.5571  0.7544  1.8016
 1893TIP3   OH227169   6.022   2.090  12.576 -0.1923  0.8352  0.3234
 1893TIP3    H127170   6.036   2.003  12.613  1.9950  0.6838 -0.6647
 1893TIP3    H227171   6.074   2.148  12.631  1.1029  0.9609 -0.9583
 1894TIP3   OH227172   1.032   1.449  11.403 -0.3925 -0.1191 -0.0110
 1894TIP3    H127173   0.942   1.429  11.379 -0.1037 -0.5677 -0.7655
 1894TIP3    H227174   1.043   1.541  11.381 -1.4148  0.6950  2.5011
 1895TIP3   OH227175   5.291   2.707   2.668  0.3524  0.4360  0.0848
 1895TIP3    H127176   5.329   2.745   2.588  0.6546  0.5719  0.2898
 1895TIP3    H227177   5.281   2.615   2.647  1.5014  0.2479  0.2737
 1896TIP3   OH227178   4.341   6.284  16.599  0.2358 -0.3827  0.0471
 1896TIP3    H127179   4.435   6.266  16.607  0.4424  1.0073  1.2853
 1896TIP3    H227180   4.299   6.220  16.656  0.4445 -0.8473 -0.3146
 1897TIP3   OH227181   3.230   1.727  10.975  0.1254  0.5008 -0.0449
 1897TIP3    H127182   3.288   1.744  10.900 -0.4788  0.3127 -0.5669
 1897TIP3    H227183   3.183   1.809  10.987  0.1526  0.4997  0.0681
 1898TIP3   OH227184   3.233   1.531  12.829 -0.0932  0.7107 -0.1661
 1898TIP3    H127185   3.162   1.593  12.811 -0.5477  1.1351  2.5284
 1898TIP3    H227186   3.311   1.586  12.839  0.0392  0.5565 -0.3455
 1899TIP3   OH227187   4.187   0.147   3.367 -0.6934  0.2424  0.1994
 1899TIP3    H127188   4.260   0.122   3.310 -1.6268  2.4627 -2.1746
 1899TIP3    H227189   4.226   0.204   3.433 -0.2884  1.8091 -1.3436
 1900TIP3   OH227190   6.494   6.352   1.358 -0.1832  0.3538  0.0382
 1900TIP3    H127191   6.567   6.389   1.307 -0.1524 -0.6646 -0.6823
 1900TIP3    H227192   6.456   6.428   1.403  2.1434  0.7523  1.5395
 1901TIP3   OH227193   2.046   2.471  16.058 -0.5317  0.2012 -0.0392
 1901TIP3    H127194   2.020   2.510  16.142 -0.6508  0.0829 -0.0216
 1901TIP3    H227195   2.131   2.511  16.039 -0.0623 -0.4655  0.6024
 1902TIP3   OH227196   5.060   3.183  14.640  0.1095 -0.4482  0.4639
 1902TIP3    H127197   5.127   3.231  14.590 -0.8402 -0.9051 -1.3283
 1902TIP3    H227198   4.981   3.237  14.630 -0.1722 -0.7244  1.2066
 1903TIP3   OH227199   0.736   4.814  11.556 -0.1501 -0.2724  0.5782
 1903TIP3    H127200   0.706   4.784  11.641 -0.3646 -0.4277  0.4474
 1903TIP3    H227201   0.664   4.794  11.496 -1.1985  2.3348  0.8204
 1904TIP3   OH227202   2.501   5.435   4.239 -0.4797  0.3073 -0.0966
 1904TIP3    H127203   2.539   5.353   4.273 -1.6366 -0.4917 -0.6787
 1904TIP3    H227204   2.507   5.427   4.144 -0.1888  1.1123 -0.1521
 1905TIP3   OH227205   6.217   4.419   4.355  0.5638 -0.3992  0.0763
 1905TIP3    H127206   6.268   4.360   4.410 -2.7159 -0.1418  3.8640
 1905TIP3    H227207   6.249   4.507   4.377  1.2417 -0.4066 -0.8083
 1906TIP3   OH227208   1.427   6.549  15.977  0.0183 -0.1588  0.2916
 1906TIP3    H127209   1.522   6.537  15.974  0.0322 -0.1104  0.5302
 1906TIP3    H227210   1.410   6.619  15.913  0.1370 -0.1977  0.2158
 1907TIP3   OH227211   6.304   5.125  16.603  0.2642 -0.0115  0.2649
 1907TIP3    H127212   6.365   5.178  16.656 -2.1160  0.4378  2.7816
 1907TIP3    H227213   6.270   5.187  16.538  0.2203  0.5891  0.8421
 1908TIP3   OH227214   3.801   6.243   0.823  0.1099 -0.3909  0.1899
 1908TIP3    H127215   3.895   6.224   0.832 -0.4924 -3.2100  1.9989
 1908TIP3    H227216   3.769   6.248   0.913 -1.6406 -0.6245 -0.3769
 1909TIP3   OH227217   3.373   5.708   4.784  0.3559 -0.5226 -0.0569
 1909TIP3    H127218   3.341   5.739   4.869 -2.1097  2.6462 -1.8988
 1909TIP3    H227219   3.439   5.773   4.758  0.6610 -1.1078 -0.7952
 1910TIP3   OH227220   2.639   3.301   4.593  0.2500 -0.1341 -0.2396
 1910TIP3    H127221   2.624   3.294   4.688 -1.3059 -1.1487 -0.5278
 1910TIP3    H227222   2.724   3.259   4.579  0.4572 -0.0527  0.6830
 1911TIP3   OH227223   4.391   6.040  13.378  0.0888  0.2390 -0.2975
 1911TIP3    H127224   4.324   6.104  13.353 -0.7485 -0.0990  0.9666
 1911TIP3    H227225   4.397   5.981  13.303 -1.9297 -0.4327  0.0128
 1912TIP3   OH227226   0.026   2.540  13.580  0.1392 -0.0202  0.2231
 1912TIP3    H127227   0.075   2.509  13.505  3.1486 -1.1680  2.4883
 1912TIP3    H227228  -0.039   2.472  13.596  0.3410 -0.3998 -0.5242
 1913TIP3   OH227229   4.166   6.278  13.422 -0.3088  0.8101  0.4694
 1913TIP3    H127230   4.210   6.286  13.507 -1.1674  0.2222  0.9758
 1913TIP3    H227231   4.097   6.214  13.437 -0.5574  0.8119 -0.6434
 1914TIP3   OH227232   1.369   6.451   2.632 -0.0018 -0.2487 -0.2016
 1914TIP3    H127233   1.376   6.402   2.714 -1.2318 -1.2240 -0.6393
 1914TIP3    H227234   1.451   6.434   2.586 -0.0689 -1.2247  0.0237
 1915TIP3   OH227235   5.441   5.049  17.055 -0.1862 -0.4692  0.3107
 1915TIP3    H127236   5.467   4.990  17.126  2.0840 -0.1983 -0.2186
 1915TIP3    H227237   5.385   4.995  16.998  2.5124 -2.4784 -0.6232
 1916TIP3   OH227238   4.966   0.696   5.303 -0.1276 -0.2706 -0.3266
 1916TIP3    H127239   4.979   0.702   5.397 -0.7031 -0.2799 -0.2455
 1916TIP3    H227240   4.900   0.763   5.283  0.1261 -0.1407 -0.7493
 1917TIP3   OH227241   3.355   2.823  11.542 -0.0135  0.1541  0.7867
 1917TIP3    H127242   3.443   2.789  11.529 -0.0008 -0.0070  1.2535
 1917TIP3    H227243   3.368   2.915  11.564  0.0781  0.0087  1.3671
 1918TIP3   OH227244   3.539   1.329   5.554 -0.2756 -0.2201 -0.0349
 1918TIP3    H127245   3.601   1.364   5.617 -0.1795  0.5387 -0.5329
 1918TIP3    H227246   3.462   1.306   5.605  0.2984 -0.8898  0.5431
 1919TIP3   OH227247   1.834   6.546  14.986 -0.0945  0.3876  0.5201
 1919TIP3    H127248   1.740   6.538  15.006 -0.8023  2.2482 -1.6059
 1919TIP3    H227249   1.840   6.525  14.893  1.7115 -0.2182  0.7402
 1920TIP3   OH227250   1.462   2.023   5.404 -0.2018  0.1650 -0.5114
 1920TIP3    H127251   1.369   2.005   5.386 -0.4313  0.8019  0.0048
 1920TIP3    H227252   1.471   2.117   5.388  0.1932  0.2383  0.1120
 1921TIP3   OH227253   0.819   1.168   2.640  0.1182  0.1352 -0.1238
 1921TIP3    H127254   0.754   1.146   2.706  0.9542 -3.1115 -0.2413
 1921TIP3    H227255   0.773   1.158   2.557  0.6045 -1.8148 -0.1935
 1922TIP3   OH227256   0.478   2.233   2.696 -0.0915 -0.5438 -0.3744
 1922TIP3    H127257   0.495   2.254   2.788  1.7603  0.0780 -0.8084
 1922TIP3    H227258   0.406   2.291   2.671  0.7510  0.7937  0.1560
 1923TIP3   OH227259   6.447   0.850  12.325  0.1167 -0.2433  0.0568
 1923TIP3    H127260   6.366   0.884  12.363 -1.1748 -1.1137 -1.8007
 1923TIP3    H227261   6.425   0.762  12.296  2.2724 -1.2221  1.1195
 1924TIP3   OH227262   3.863   3.470  13.007 -0.0005 -0.1072  0.4211
 1924TIP3    H127263   3.874   3.558  13.043  1.0907 -0.0060 -0.1373
 1924TIP3    H227264   3.769   3.452  13.018 -0.3950  1.4178 -0.1234
 1925TIP3   OH227265   0.770   2.150   1.673 -0.1147  0.3251 -0.1266
 1925TIP3    H127266   0.752   2.234   1.714 -0.9209 -0.5567  1.4138
 1925TIP3    H227267   0.865   2.141   1.677 -0.1745  0.0759  2.0567
 1926TIP3   OH227268   0.227   4.310   4.462  0.1512 -0.1442 -0.0003
 1926TIP3    H127269   0.251   4.265   4.543  0.1962  0.2174  0.1919
 1926TIP3    H227270   0.293   4.284   4.399  1.5609  1.4585  0.7307
 1927TIP3   OH227271   2.953   5.754   5.577  0.2670 -0.4386  0.0003
 1927TIP3    H127272   2.968   5.848   5.584  1.2311 -0.6189  0.5117
 1927TIP3    H227273   3.023   5.714   5.629  0.7845 -1.4868 -1.4127
 1928TIP3   OH227274   0.250   6.750  16.506 -0.0389 -0.1172 -0.6377
 1928TIP3    H127275   0.299   6.776  16.428 -0.6614 -1.1410 -1.3884
 1928TIP3    H227276   0.199   6.827  16.529 -0.8063 -0.1892 -1.9969
 1929TIP3   OH227277   5.744   6.639   1.852  0.3260 -0.2383 -0.7930
 1929TIP3    H127278   5.782   6.727   1.849  1.3534 -0.6122  0.3311
 1929TIP3    H227279   5.818   6.581   1.835 -0.1835 -0.9133 -0.7181
 1930TIP3   OH227280   4.546   4.680  15.888  0.6983  0.2195  0.5473
 1930TIP3    H127281   4.482   4.706  15.954  1.1987  1.6221  0.5145
 1930TIP3    H227282   4.520   4.728  15.810  2.0943  1.2831  0.6926
 1931TIP3   OH227283   4.177   6.228  11.798 -0.0113 -0.0873  0.4407
 1931TIP3    H127284   4.139   6.287  11.864 -1.7744 -2.1487  1.3935
 1931TIP3    H227285   4.119   6.238  11.722 -0.6645 -0.9605  0.8067
 1932TIP3   OH227286   3.780   1.156   4.749  0.3076  0.2038 -0.1215
 1932TIP3    H127287   3.842   1.175   4.820 -0.9926 -0.0869  1.1269
 1932TIP3    H227288   3.783   1.061   4.740 -0.5430  0.1042  0.5189
 1933TIP3   OH227289   5.771   3.759  14.642 -0.4896  0.3601 -0.0089
 1933TIP3    H127290   5.829   3.757  14.565 -1.6737  0.2780 -0.9218
 1933TIP3    H227291   5.809   3.827  14.698  1.2934 -0.6381  0.0948
 1934TIP3   OH227292   5.240   1.511  13.184 -0.4180 -0.0739 -0.3567
 1934TIP3    H127293   5.282   1.440  13.135  0.4935  0.2007  0.0064
 1934TIP3    H227294   5.146   1.495  13.174 -0.2983  0.1190 -2.4397
 1935TIP3   OH227295   3.625   5.542   0.858  0.4022  0.7078  0.2439
 1935TIP3    H127296   3.659   5.603   0.924  0.6667  1.1825 -0.3183
 1935TIP3    H227297   3.557   5.591   0.812 -0.4441  0.0554  0.7784
 1936TIP3   OH227298   1.458   3.311   5.330 -0.0350 -0.2851  0.5565
 1936TIP3    H127299   1.438   3.243   5.394 -0.9666 -0.2713  0.2923
 1936TIP3    H227300   1.476   3.263   5.249  1.5409 -0.3273  0.8933
 1937TIP3   OH227301   1.339   5.914  10.814 -0.4176  0.4610 -0.2382
 1937TIP3    H127302   1.406   5.917  10.745 -0.5373 -0.0738 -0.3815
 1937TIP3    H227303   1.389   5.924  10.895  0.0186 -1.2488 -0.2490
 1938TIP3   OH227304   1.933   0.648  15.470  0.0471 -0.4081  0.5790
 1938TIP3    H127305   2.010   0.639  15.525  0.5666 -2.0713 -0.3465
 1938TIP3    H227306   1.933   0.740  15.442  0.6189  0.0682  2.0845
 1939TIP3   OH227307   0.951   5.810   4.878  0.5120  0.2958 -0.3281
 1939TIP3    H127308   0.882   5.751   4.848  0.2205  0.4241  0.0980
 1939TIP3    H227309   0.953   5.800   4.973  0.8725  0.5240 -0.3088
 1940TIP3   OH227310   1.053   1.789  13.446  0.1159  0.0325 -0.6008
 1940TIP3    H127311   1.055   1.833  13.361 -0.6289 -0.8756 -1.1114
 1940TIP3    H227312   1.018   1.702  13.427 -1.7979  0.4018  0.8910
 1941TIP3   OH227313   0.891   0.655  11.502 -0.2486  0.3161 -0.4193
 1941TIP3    H127314   0.800   0.672  11.526 -0.1589 -0.5066  0.5643
 1941TIP3    H227315   0.924   0.740  11.472 -0.9603  0.9211  0.4731
 1942TIP3   OH227316   4.100   2.275   5.922 -0.3044  0.4600  0.3809
 1942TIP3    H127317   4.064   2.242   6.004 -1.4468  1.0002  0.1214
 1942TIP3    H227318   4.075   2.368   5.920 -0.5645  0.3850 -0.7212
 1943TIP3   OH227319   3.211   0.823   2.977 -0.4803 -0.2606 -0.2475
 1943TIP3    H127320   3.135   0.871   2.944 -0.3549  0.2773  0.2232
 1943TIP3    H227321   3.259   0.888   3.029 -0.1663 -0.8262  0.1748
 1944TIP3   OH227322   4.944   4.330  14.678  0.4855  0.1105 -0.5912
 1944TIP3    H127323   4.894   4.370  14.749  0.0715  1.1538 -1.4470
 1944TIP3    H227324   4.905   4.364  14.598  1.4057 -0.4764 -1.3194
 1945TIP3   OH227325   5.088   1.972  16.450 -0.6128 -0.7441  0.0399
 1945TIP3    H127326   5.140   2.011  16.380  1.3739 -0.9764  1.2919
 1945TIP3    H227327   5.002   2.015  16.443  0.7630  2.2805 -0.0036
 1946TIP3   OH227328   4.533   4.001  14.508  0.3341  0.4929 -0.2534
 1946TIP3    H127329   4.489   3.922  14.540  3.2387 -0.1181  2.7749
 1946TIP3    H227330   4.587   3.971  14.435  0.0490  0.0741 -0.2972
 1947TIP3   OH227331   6.355   4.329  14.740  0.1780 -0.2567  0.1728
 1947TIP3    H127332   6.269   4.305  14.775 -0.4313  1.8596  0.2548
 1947TIP3    H227333   6.417   4.304  14.808 -0.7864  1.8583  1.9316
 1948TIP3   OH227334   5.365   4.076   2.531  0.4902  0.6888 -0.5409
 1948TIP3    H127335   5.285   4.093   2.581  0.2078 -1.3065 -0.2489
 1948TIP3    H227336   5.435   4.076   2.596  0.0662 -2.3739  0.0545
 1949TIP3   OH227337   0.456   6.780   3.688  0.3939  0.2628  0.5402
 1949TIP3    H127338   0.419   6.823   3.765  0.5644 -1.0662  1.3991
 1949TIP3    H227339   0.406   6.698   3.680  3.1837 -1.7152  1.8712
 1950TIP3   OH227340   3.678   2.987  16.467  0.6782 -0.0290 -0.4853
 1950TIP3    H127341   3.694   2.972  16.561  2.8284  0.9897 -0.6235
 1950TIP3    H227342   3.608   3.052  16.466 -0.0869 -0.7979  0.3648
 1951TIP3   OH227343   2.504   0.170  11.939  0.1246  0.3569 -0.5050
 1951TIP3    H127344   2.506   0.263  11.962 -0.4772 -0.0062  1.1511
 1951TIP3    H227345   2.496   0.125  12.023 -3.3700 -1.0654 -1.4299
 1952TIP3   OH227346   6.591   1.511   0.789 -0.3042  0.2407  0.7351
 1952TIP3    H127347   6.556   1.561   0.863  0.9847 -0.6087  1.9797
 1952TIP3    H227348   6.684   1.499   0.810 -0.2780 -1.5080 -0.1686
 1953TIP3   OH227349   1.000   3.704  14.974  0.1909  0.2753  0.3268
 1953TIP3    H127350   0.975   3.782  14.925  0.4851 -0.1164 -0.4703
 1953TIP3    H227351   1.070   3.734  15.033  0.8067  0.4649 -0.4911
 1954TIP3   OH227352   0.608   3.032   6.499 -0.2147  0.2733 -0.5465
 1954TIP3    H127353   0.517   3.060   6.490 -0.5505 -0.8605 -0.7821
 1954TIP3    H227354   0.659   3.109   6.473 -1.1235  0.3608 -2.2372
 1955TIP3   OH227355   1.434   4.302  12.334 -0.2122 -0.1774  0.1636
 1955TIP3    H127356   1.412   4.355  12.257 -0.0968  0.8345  0.8122
 1955TIP3    H227357   1.417   4.212  12.306 -2.6921  0.3378 -0.2163
 1956TIP3   OH227358   5.147   2.412  14.472 -0.5992 -0.2792  0.4981
 1956TIP3    H127359   5.136   2.384  14.381 -0.0684  0.3356  0.2400
 1956TIP3    H227360   5.213   2.352  14.507 -1.0898 -0.7677  0.5980
 1957TIP3   OH227361   6.587   1.808  15.778 -0.4616 -0.1538  0.3362
 1957TIP3    H127362   6.593   1.892  15.824  1.8244 -0.3026  0.4559
 1957TIP3    H227363   6.617   1.743  15.842  2.3898 -0.4073 -1.1041
 1958TIP3   OH227364   1.198   2.219   3.998  0.0905 -0.2134  0.1184
 1958TIP3    H127365   1.246   2.260   3.927 -1.5852  0.2344 -0.8004
 1958TIP3    H227366   1.264   2.167   4.045  1.6145  1.0352 -0.5571
 1959TIP3   OH227367   6.694   6.276   4.352 -0.1255 -0.3687  0.4930
 1959TIP3    H127368   6.789   6.289   4.360 -0.1038 -0.4470  0.3745
 1959TIP3    H227369   6.683   6.181   4.353 -0.4131 -0.3798  2.8376
 1960TIP3   OH227370   1.623   4.631   4.636 -0.2214 -0.3110 -0.3300
 1960TIP3    H127371   1.616   4.707   4.694 -0.7755  0.7718 -1.7492
 1960TIP3    H227372   1.670   4.664   4.559 -1.5258 -1.0378 -1.5031
 1961TIP3   OH227373   5.911   2.526   0.341 -0.0615 -0.8353 -0.3370
 1961TIP3    H127374   5.993   2.573   0.358  0.6215 -2.1142  0.0823
 1961TIP3    H227375   5.842   2.588   0.365  0.8010 -0.1142  0.3703
 1962TIP3   OH227376   0.116   5.810   4.439 -0.1062 -0.6209 -0.2154
 1962TIP3    H127377   0.136   5.880   4.377 -0.1984  0.7926  1.2746
 1962TIP3    H227378   0.145   5.730   4.396  1.1554  0.4711 -1.4712
 1963TIP3   OH227379   0.988   3.658   1.908  0.4872  0.3974 -0.0400
 1963TIP3    H127380   1.004   3.658   2.002  1.6061 -0.3231 -0.2197
 1963TIP3    H227381   0.892   3.662   1.900  0.3157 -0.6842  1.1346
 1964TIP3   OH227382   5.866   6.774  16.500  0.3590 -0.3586 -0.1997
 1964TIP3    H127383   5.775   6.777  16.531 -0.2142  1.9313 -1.8388
 1964TIP3    H227384   5.891   6.682  16.508 -1.1702 -0.6282  2.7517
 1965TIP3   OH227385   1.183   5.323  12.170 -0.6124  0.5248 -0.2486
 1965TIP3    H127386   1.156   5.385  12.237 -0.6886  1.0526 -0.7571
 1965TIP3    H227387   1.102   5.279  12.144 -0.8269  1.3064 -0.9683
 1966TIP3   OH227388   3.615   0.657   1.173 -0.2079 -0.6978  0.0366
 1966TIP3    H127389   3.558   0.727   1.140  0.0218  0.6038  2.2053
 1966TIP3    H227390   3.576   0.632   1.257  0.8057 -1.8261  0.1880
 1967TIP3   OH227391   2.290   0.365  12.455  0.0605  0.3543 -0.2811
 1967TIP3    H127392   2.236   0.443  12.455  1.7094  1.5608 -0.7417
 1967TIP3    H227393   2.350   0.376  12.529  0.7202 -0.1576 -0.7188
 1968TIP3   OH227394   1.074   5.643  11.007  0.0048  0.3978  0.4213
 1968TIP3    H127395   1.123   5.693  10.941  0.0625  0.1209  0.2499
 1968TIP3    H227396   0.983   5.657  10.984  0.0306  0.0766  0.1070
 1969TIP3   OH227397   1.451   6.673   5.420 -0.4787 -0.4722 -0.6276
 1969TIP3    H127398   1.447   6.629   5.505 -1.4582  0.1306 -0.3457
 1969TIP3    H227399   1.479   6.762   5.440 -2.0998  0.0916 -0.7423
 1970TIP3   OH227400   6.782   5.813   0.831  0.0374 -0.9534 -0.6080
 1970TIP3    H127401   6.789   5.908   0.843  0.4883 -1.0702  0.1008
 1970TIP3    H227402   6.688   5.795   0.835 -0.1662 -0.3941 -2.0054
 1971TIP3   OH227403   0.863   2.311  10.972 -0.1293 -0.4361  0.5699
 1971TIP3    H127404   0.805   2.239  10.998  1.1568 -2.2824 -1.3785
 1971TIP3    H227405   0.841   2.329  10.881 -0.7510  2.0728  1.1266
 1972TIP3   OH227406   5.941   2.058   5.017  0.3859 -0.7174 -0.2956
 1972TIP3    H127407   5.894   2.134   5.052  0.0095 -1.4875  0.9431
 1972TIP3    H227408   5.952   2.077   4.924 -1.3379  0.0373 -0.3898
 1973TIP3   OH227409   5.453   2.337  12.807 -0.1515  0.1937 -0.3044
 1973TIP3    H127410   5.501   2.329  12.725  0.2582 -1.4713  0.0594
 1973TIP3    H227411   5.361   2.343  12.780 -0.0398 -0.5491 -0.9085
 1974TIP3   OH227412   5.507   5.967   2.338  0.3276  0.0853  0.1764
 1974TIP3    H127413   5.482   6.028   2.268  0.2437 -0.4494 -0.2665
 1974TIP3    H227414   5.489   6.014   2.419 -1.0895  0.1244 -0.1380
 1975TIP3   OH227415   1.243   0.964   2.696 -0.3099 -0.5024  0.1038
 1975TIP3    H127416   1.242   0.989   2.604 -0.1627  1.0365  0.4945
 1975TIP3    H227417   1.258   0.869   2.695  2.0705 -0.1987 -1.4069
 1976TIP3   OH227418   4.962   4.277  16.251 -0.2988  0.2524 -0.6941
 1976TIP3    H127419   4.955   4.192  16.207  0.1483 -0.8959  1.3407
 1976TIP3    H227420   4.876   4.290  16.291  0.6221 -0.9523  1.8593
 1977TIP3   OH227421   1.385   3.844   4.527 -0.3314  0.0523  0.3966
 1977TIP3    H127422   1.402   3.932   4.561 -0.9120  0.5488 -0.5442
 1977TIP3    H227423   1.460   3.826   4.470  0.4562 -0.6275  1.6099
 1978TIP3   OH227424   1.339   4.744  11.510 -0.4869  0.0152  0.0121
 1978TIP3    H127425   1.410   4.773  11.567  0.7883 -0.9290 -1.0529
 1978TIP3    H227426   1.295   4.675  11.559  0.8773 -1.0989 -0.2864
 1979TIP3   OH227427   5.949   0.325   1.165 -0.3473 -0.2259  0.0960
 1979TIP3    H127428   5.933   0.416   1.188  0.3886 -0.0399 -0.1183
 1979TIP3    H227429   5.862   0.284   1.171 -1.0624  0.9011 -1.6785
 1980TIP3   OH227430   6.724   2.945   1.595  1.3542  0.2148  0.2871
 1980TIP3    H127431   6.629   2.953   1.595  1.0010 -1.8463 -3.0478
 1980TIP3    H227432   6.742   2.872   1.653  0.9219  0.5223  0.8241
 1981TIP3   OH227433   6.290   2.828   5.152 -0.1592 -0.6228  0.1298
 1981TIP3    H127434   6.361   2.873   5.106  0.7256 -0.0914  1.9321
 1981TIP3    H227435   6.217   2.830   5.090 -0.1503  3.2593  0.0305
 1982TIP3   OH227436   2.818   3.813  14.407 -0.3686  0.1072 -0.0770
 1982TIP3    H127437   2.789   3.855  14.488 -0.4134 -0.5076  0.2332
 1982TIP3    H227438   2.819   3.720  14.428 -1.3042 -0.1424 -1.0766
 1983TIP3   OH227439   5.889   1.573   5.339  0.0416  0.2517  0.0631
 1983TIP3    H127440   5.876   1.623   5.259 -0.5859 -1.1355 -0.7302
 1983TIP3    H227441   5.983   1.553   5.340  0.5416  2.3450  0.9854
 1984TIP3   OH227442   2.797   5.789  13.077 -0.1457 -0.3626 -0.3481
 1984TIP3    H127443   2.704   5.784  13.101  0.1644 -1.5400  0.7110
 1984TIP3    H227444   2.799   5.759  12.986 -1.1094  2.3496 -1.3501
 1985TIP3   OH227445   3.249   3.335  15.505  0.1118  0.7502  0.5075
 1985TIP3    H127446   3.310   3.295  15.567  1.8338  1.7646 -0.4482
 1985TIP3    H227447   3.213   3.410  15.552  0.8135  1.0645  0.5431
 1986TIP3   OH227448   5.973   6.399   5.722 -0.3886 -0.1136  0.0666
 1986TIP3    H127449   6.029   6.446   5.785  1.8827  0.9777 -2.5651
 1986TIP3    H227450   6.035   6.351   5.667 -2.4393 -3.1069  0.1278
 1987TIP3   OH227451   4.367   2.836   4.165 -0.6407  0.5334  0.4117
 1987TIP3    H127452   4.396   2.780   4.093  0.7521 -0.5256  1.7069
 1987TIP3    H227453   4.274   2.818   4.173 -0.8042  0.6142 -1.0516
 1988TIP3   OH227454   0.081   6.638  13.294 -0.1824 -0.1497 -0.5083
 1988TIP3    H127455   0.159   6.675  13.336 -0.3886 -1.9957  1.6778
 1988TIP3    H227456   0.012   6.703  13.310  0.4159  0.5051 -0.5601
 1989TIP3   OH227457   5.913   4.164   2.980 -0.3815  0.4146 -0.4175
 1989TIP3    H127458   5.971   4.088   2.985 -0.7923 -0.0738 -2.3529
 1989TIP3    H227459   5.929   4.212   3.062  0.3778 -1.3839  0.5377
 1990TIP3   OH227460   4.540   0.536  15.176 -0.4831 -0.0922  0.4871
 1990TIP3    H127461   4.543   0.616  15.228 -1.7350 -1.2442  2.4988
 1990TIP3    H227462   4.604   0.550  15.106  1.3302  1.5957  2.3367
 1991TIP3   OH227463   0.513   0.883   2.976 -0.4199 -0.2381  0.1215
 1991TIP3    H127464   0.544   0.818   2.913  1.0375 -0.0043  0.5684
 1991TIP3    H227465   0.578   0.882   3.047 -1.4237  0.3017  1.0838
 1992TIP3   OH227466   4.755   5.058   4.172 -0.3128  0.4326 -0.0734
 1992TIP3    H127467   4.818   5.117   4.214  0.7878 -0.7435 -0.0073
 1992TIP3    H227468   4.759   5.081   4.080  1.8746 -1.0509 -0.4063
 1993TIP3   OH227469   4.040   6.505   1.847 -0.3549 -0.2684 -0.2830
 1993TIP3    H127470   3.979   6.515   1.920 -0.6955 -1.7045 -0.3505
 1993TIP3    H227471   4.127   6.507   1.887 -0.4985  0.0805  0.0149
 1994TIP3   OH227472   4.690   5.192  12.521  0.2705  0.0819  0.3887
 1994TIP3    H127473   4.642   5.274  12.532  3.7672  2.2793  1.1199
 1994TIP3    H227474   4.676   5.144  12.603 -2.8847 -0.8461 -0.5524
 1995TIP3   OH227475   2.147   1.821   0.459  0.0924  0.0607 -0.5792
 1995TIP3    H127476   2.126   1.783   0.374 -0.3915  1.4415 -1.1144
 1995TIP3    H227477   2.119   1.912   0.452 -0.5914  0.0544  1.2848
 1996TIP3   OH227478   6.245   6.197   4.651 -0.2402 -0.3884 -0.4504
 1996TIP3    H127479   6.223   6.212   4.743 -1.7914  2.6449 -1.1652
 1996TIP3    H227480   6.225   6.105   4.636 -1.0143 -0.6928  1.9754
 1997TIP3   OH227481   3.167   4.077  14.056 -0.0360  0.2083 -0.3645
 1997TIP3    H127482   3.080   4.070  14.095  0.0282 -0.3840 -0.3178
 1997TIP3    H227483   3.182   4.171  14.049 -0.6186  0.3186 -0.2388
 1998TIP3   OH227484   4.270   3.206  13.223  0.2234 -0.5479  0.4328
 1998TIP3    H127485   4.315   3.142  13.279 -0.9261 -1.0497  0.8197
 1998TIP3    H227486   4.191   3.229  13.272 -1.0906 -1.4017 -1.1830
 1999TIP3   OH227487   2.087   5.276  13.833  0.5724 -0.0831  0.6277
 1999TIP3    H127488   2.036   5.264  13.913  0.2533 -0.2614  0.3992
 1999TIP3    H227489   2.177   5.285  13.863  0.3624  0.6899  1.0766
 2000TIP3   OH227490   2.351   4.125  15.599 -0.5273  0.2276 -0.0042
 2000TIP3    H127491   2.266   4.160  15.627  0.0116  0.4756  1.3939
 2000TIP3    H227492   2.331   4.074  15.520 -1.5232  2.6721 -1.4541
 2001TIP3   OH227493   3.549   1.976  11.685  0.3923 -0.9506 -0.4238
 2001TIP3    H127494   3.550   2.041  11.614  0.7187 -0.3909  0.0827
 2001TIP3    H227495   3.457   1.967  11.709  0.4701  0.4591  0.5115
 2002TIP3   OH227496   5.606   5.628   4.107 -0.3694  0.1858  0.3635
 2002TIP3    H127497   5.556   5.595   4.033  0.7810 -0.8950  0.0305
 2002TIP3    H227498   5.548   5.692   4.149 -1.0417  0.8446 -1.4638
 2003TIP3   OH227499   0.678   1.632   0.184 -0.0204 -0.9526 -0.1680
 2003TIP3    H127500   0.729   1.691   0.127 -1.0191 -1.3739 -1.5452
 2003TIP3    H227501   0.729   1.552   0.188  1.1110 -0.2180  1.3278
 2004TIP3   OH227502   3.809   1.032   3.085  1.0028 -0.7132 -0.5706
 2004TIP3    H127503   3.846   1.067   3.165  0.3214 -0.6809 -0.2566
 2004TIP3    H227504   3.882   0.990   3.040  0.9888 -2.8701  1.2297
 2005TIP3   OH227505   5.368   2.478  11.099 -0.0535  0.0712 -0.6727
 2005TIP3    H127506   5.454   2.508  11.068  0.4610  0.2218  0.8434
 2005TIP3    H227507   5.374   2.382  11.096  0.1649  0.0802 -0.5778
 2006TIP3   OH227508   5.036   1.888   0.352 -0.9087 -0.7297 -0.0819
 2006TIP3    H127509   5.120   1.863   0.314 -1.2038 -1.5729 -0.1953
 2006TIP3    H227510   4.972   1.831   0.309 -1.5245 -0.2207  0.1305
 2007TIP3   OH227511   5.465   2.065   2.702  0.4450 -0.1341 -0.3755
 2007TIP3    H127512   5.447   1.972   2.697 -2.1924  0.3539 -2.3530
 2007TIP3    H227513   5.460   2.086   2.795  2.3056 -2.0819  0.2473
 2008TIP3   OH227514   5.666   2.650  14.421 -0.0191  0.0900  1.1058
 2008TIP3    H127515   5.751   2.642  14.466  0.4255 -0.3618  0.2151
 2008TIP3    H227516   5.667   2.579  14.357  0.0848  1.7137 -0.7794
 2009TIP3   OH227517   2.740   2.869  14.841 -0.5997  0.0816  0.0376
 2009TIP3    H127518   2.726   2.887  14.934  0.5815 -0.7263  0.3994
 2009TIP3    H227519   2.694   2.787  14.825 -2.3036  1.1054 -0.5520
 2010TIP3   OH227520   1.700   3.926  16.541  0.1306  0.2002 -0.5003
 2010TIP3    H127521   1.656   3.841  16.539 -0.2464  0.4164 -1.7116
 2010TIP3    H227522   1.792   3.905  16.556  0.0382 -0.4181 -0.7833
 2011TIP3   OH227523   6.706   1.536   2.942  0.2609 -0.1097 -0.6984
 2011TIP3    H127524   6.669   1.504   3.024 -0.3646 -1.0391 -1.3206
 2011TIP3    H227525   6.709   1.631   2.952  0.7940 -0.2483  0.6384
 2012TIP3   OH227526   6.136   2.074   1.383  0.0900 -0.2368  0.1390
 2012TIP3    H127527   6.083   2.017   1.328  2.4361 -1.6335 -0.8676
 2012TIP3    H227528   6.148   2.154   1.330  2.4671 -1.6306 -1.6481
 2013TIP3   OH227529   0.102   2.423  14.965  0.0120 -0.4610 -0.4846
 2013TIP3    H127530   0.192   2.426  14.997 -0.0830 -0.0515 -0.2630
 2013TIP3    H227531   0.096   2.495  14.903 -1.5093  2.7082  2.9696
 2014TIP3   OH227532   1.301   2.015   1.476  0.1651 -0.1644  0.0583
 2014TIP3    H127533   1.356   2.007   1.554 -0.2158 -0.3929  0.3078
 2014TIP3    H227534   1.335   2.093   1.431 -0.9979  1.3131  1.6016
 2015TIP3   OH227535   0.197   6.763   1.449 -0.2305 -0.0480  0.1019
 2015TIP3    H127536   0.181   6.734   1.359  1.5714 -1.3583  0.1463
 2015TIP3    H227537   0.278   6.813   1.443 -0.4035  0.3403  0.9330
 2016TIP3   OH227538   3.543   3.854  14.135  0.4971  0.1580  0.1647
 2016TIP3    H127539   3.455   3.863  14.172 -0.0678 -0.6487 -0.9157
 2016TIP3    H227540   3.545   3.918  14.063  0.8911  0.3745  0.3716
 2017TIP3   OH227541   4.366   4.948  13.877  0.1254  0.0657 -0.2311
 2017TIP3    H127542   4.367   4.934  13.782  0.5020 -0.0753 -0.2064
 2017TIP3    H227543   4.359   4.861  13.915 -0.9182  0.1738 -0.1368
 2018TIP3   OH227544   6.268   0.395   0.458 -0.5009  0.3287 -0.1569
 2018TIP3    H127545   6.179   0.361   0.470 -0.3794  0.4445  1.2519
 2018TIP3    H227546   6.256   0.488   0.441 -0.5928  1.0375  3.1525
 2019TIP3   OH227547   4.297   3.153   1.639  0.2185 -0.5207  0.5115
 2019TIP3    H127548   4.392   3.150   1.651  0.2424 -1.2897  0.2057
 2019TIP3    H227549   4.286   3.175   1.546  0.0653  1.9422  1.0482
 2020TIP3   OH227550   0.860   2.416  16.542 -0.2485  0.0352  0.3272
 2020TIP3    H127551   0.827   2.500  16.573  0.1919 -0.2419  1.5872
 2020TIP3    H227552   0.842   2.355  16.613 -1.2203 -1.1113 -0.8547
 2021TIP3   OH227553   1.039   2.610   2.111  0.3537  0.0779 -0.0732
 2021TIP3    H127554   1.135   2.607   2.108  0.4037  0.5117  0.7338
 2021TIP3    H227555   1.018   2.592   2.203 -0.3877 -0.9991 -0.4400
 2022TIP3   OH227556   4.397   2.801   3.062 -0.0917 -0.5223  0.8167
 2022TIP3    H127557   4.441   2.772   2.983 -0.1902  0.2433  0.4730
 2022TIP3    H227558   4.315   2.839   3.032  0.3900  0.8544  1.1474
 2023TIP3   OH227559   0.726   4.365  16.125 -0.1030 -0.2520 -0.2917
 2023TIP3    H127560   0.782   4.375  16.202  0.7027  0.2868 -0.9272
 2023TIP3    H227561   0.785   4.379  16.051 -0.7814 -1.1485 -1.0273
 2024TIP3   OH227562   0.629   5.107   3.544 -0.6317 -0.1012 -0.1149
 2024TIP3    H127563   0.721   5.131   3.543 -0.5375 -0.4103  0.5704
 2024TIP3    H227564   0.629   5.013   3.525 -0.6117 -0.6094  2.1091
 2025TIP3   OH227565   3.661   2.374   0.399 -0.4369  0.0350 -0.0177
 2025TIP3    H127566   3.614   2.435   0.343  0.2705  0.5132 -0.1007
 2025TIP3    H227567   3.693   2.427   0.473 -0.7858 -0.4559  0.4959
 2026TIP3   OH227568   3.322   3.849   0.318 -0.6117  0.2600 -0.4955
 2026TIP3    H127569   3.328   3.912   0.246 -2.8795  0.6414 -0.4240
 2026TIP3    H227570   3.316   3.903   0.397 -0.5087 -0.1079 -0.2336
 2027TIP3   OH227571   2.572   1.299   4.397 -0.4018 -0.1675  0.1718
 2027TIP3    H127572   2.638   1.356   4.437 -1.0487  1.1094 -0.5304
 2027TIP3    H227573   2.509   1.359   4.358 -2.1914 -1.3559  1.1196
 2028TIP3   OH227574   1.769   2.177  13.841  0.0774  0.6277  0.1027
 2028TIP3    H127575   1.781   2.095  13.793  0.6604 -0.2856  1.7412
 2028TIP3    H227576   1.740   2.150  13.928  0.9706  2.1201  0.8951
 2029TIP3   OH227577   1.183   0.406  14.851  0.0898 -0.0686 -0.5319
 2029TIP3    H127578   1.266   0.408  14.803  1.0503  0.6834  1.0732
 2029TIP3    H227579   1.168   0.496  14.878 -1.2269 -0.2154 -0.7073
 2030TIP3   OH227580   3.798   4.847   1.518  0.0608  0.5031  0.2478
 2030TIP3    H127581   3.871   4.790   1.495  0.7580  0.9129  1.4185
 2030TIP3    H227582   3.773   4.888   1.435  1.7585  1.0614 -0.0097
 2031TIP3   OH227583   5.503   5.534  12.320 -0.2892 -0.0946  0.3988
 2031TIP3    H127584   5.514   5.629  12.321  0.1798 -0.1086 -1.3273
 2031TIP3    H227585   5.502   5.510  12.227  0.2036 -1.8528  0.8014
 2032TIP3   OH227586   5.031   5.315  11.539  0.0815 -0.0837 -0.3701
 2032TIP3    H127587   5.081   5.236  11.561  2.1669  0.7657 -1.7060
 2032TIP3    H227588   5.021   5.361  11.622 -0.8668 -1.5671  0.3690
 2033TIP3   OH227589   4.839   2.623   0.371  0.3733  0.7216  0.0210
 2033TIP3    H127590   4.777   2.574   0.424  1.6910  0.2106  1.1486
 2033TIP3    H227591   4.922   2.616   0.418  1.9594 -0.8670 -2.6737
 2034TIP3   OH227592   4.670   3.216  15.387  0.2061  0.1088 -0.6802
 2034TIP3    H127593   4.685   3.270  15.465 -0.4874 -0.8337  0.1352
 2034TIP3    H227594   4.659   3.127  15.422 -1.4694 -0.1230 -1.7178
 2035TIP3   OH227595   5.509   3.787  13.641 -0.4156 -0.1611 -0.7395
 2035TIP3    H127596   5.477   3.873  13.669 -0.3143 -0.0798 -0.8760
 2035TIP3    H227597   5.517   3.794  13.546 -0.3826 -0.3137 -0.7478
 2036TIP3   OH227598   4.235   4.276   0.029  0.1794 -0.4137 -0.0370
 2036TIP3    H127599   4.323   4.313   0.023 -0.0668  0.0722 -0.7322
 2036TIP3    H227600   4.227   4.249   0.121  0.6382  0.5681  0.3021
 2037TIP3   OH227601   0.542   0.049  16.762 -0.0393  0.0851 -0.2041
 2037TIP3    H127602   0.531  -0.046  16.775  2.4311 -0.1275  0.8907
 2037TIP3    H227603   0.525   0.087  16.848 -0.2744  0.5542 -0.4556
 2038TIP3   OH227604   0.637   1.078  11.445  0.2688 -0.0114 -0.7155
 2038TIP3    H127605   0.644   1.108  11.536  2.5570  2.5881 -1.6268
 2038TIP3    H227606   0.728   1.066  11.417 -0.3883 -0.5668 -2.7504
 2039TIP3   OH227607   0.844   5.836   0.156  0.0156  0.0841 -0.2558
 2039TIP3    H127608   0.905   5.763   0.148  0.4066  0.3376  0.3258
 2039TIP3    H227609   0.760   5.795   0.177  0.1230 -0.2291 -0.4285
 2040TIP3   OH227610   4.352   6.681  12.585  0.0905  0.8461 -0.6590
 2040TIP3    H127611   4.329   6.773  12.577  1.8405  1.4068  0.3884
 2040TIP3    H227612   4.422   6.678  12.650 -0.3088 -1.2899 -0.2319
 2041TIP3   OH227613   2.493   1.827  11.705  0.2675 -0.2722 -0.3167
 2041TIP3    H127614   2.529   1.871  11.781  0.7761 -0.7800 -0.2614
 2041TIP3    H227615   2.399   1.821  11.723 -0.5309  3.9296 -1.8483
 2042TIP3   OH227616   3.970   3.997  12.030 -0.6083 -0.1903  0.2317
 2042TIP3    H127617   3.917   4.035  12.100  0.6535 -0.2174  1.2239
 2042TIP3    H227618   4.029   3.936  12.074  0.3167 -0.0997 -0.8321
 2043TIP3   OH227619   1.607   4.197   1.694  0.0971 -0.3879  0.2899
 2043TIP3    H127620   1.602   4.109   1.730  1.8190 -0.1552  1.2035
 2043TIP3    H227621   1.572   4.253   1.763 -0.6324 -0.3054 -0.1374
 2044TIP3   OH227622   4.104   0.481  12.496  0.3757 -0.1703 -0.7669
 2044TIP3    H127623   4.014   0.455  12.511  0.9230 -1.2936  0.7623
 2044TIP3    H227624   4.147   0.403  12.462  0.7796  0.3797 -1.5726
 2045TIP3   OH227625   3.078   0.738   4.153  0.1301 -0.1776 -0.0128
 2045TIP3    H127626   3.147   0.796   4.184 -1.3663  0.7145  1.8358
 2045TIP3    H227627   3.037   0.703   4.233 -1.8696 -0.2745 -0.9959
 2046TIP3   OH227628   4.125   0.845   0.731  0.5550  0.0116  0.9773
 2046TIP3    H127629   4.051   0.788   0.708  0.7622  0.0120  0.2836
 2046TIP3    H227630   4.172   0.857   0.648 -0.4052  2.5555  0.7314
 2047TIP3   OH227631   4.476   2.743   1.702 -0.2981 -0.4428  0.7272
 2047TIP3    H127632   4.504   2.814   1.644 -1.8870 -0.5839 -0.2559
 2047TIP3    H227633   4.550   2.731   1.762  1.0444  0.2913 -0.7214
 2048TIP3   OH227634   6.331   5.926   2.014 -0.3059  0.9494 -0.9862
 2048TIP3    H127635   6.332   5.860   2.083  0.3272 -0.6214 -2.4304
 2048TIP3    H227636   6.397   5.990   2.041 -0.8336  0.9691  0.3726
 2049TIP3   OH227637   1.259   6.657   3.825 -0.3103 -0.5312  0.4942
 2049TIP3    H127638   1.189   6.613   3.874  0.2913 -1.7175  0.3327
 2049TIP3    H227639   1.227   6.657   3.734  0.2822 -1.9351  0.2620
 2050TIP3   OH227640   0.389   4.514   1.507  0.3949  0.3908 -0.0895
 2050TIP3    H127641   0.319   4.569   1.471  0.5106  0.7462  0.2154
 2050TIP3    H227642   0.410   4.453   1.436 -0.7969 -0.2785  0.1032
 2051TIP3   OH227643   1.899   6.316  16.649 -0.2541 -0.1601 -0.5848
 2051TIP3    H127644   1.805   6.305  16.666 -0.0345 -1.5629 -0.1937
 2051TIP3    H227645   1.905   6.324  16.554 -0.8200  0.6398 -0.5688
 2052TIP3   OH227646   6.599   2.982   2.580  0.3800 -1.1034  0.4785
 2052TIP3    H127647   6.563   2.935   2.656 -0.4486  0.3131  1.0029
 2052TIP3    H227648   6.526   3.036   2.549  1.0161 -0.9028 -0.7145
 2053TIP3   OH227649   0.267   2.735   5.310  0.2632 -0.1040 -0.0856
 2053TIP3    H127650   0.231   2.824   5.317 -0.4601 -0.3546 -0.5774
 2053TIP3    H227651   0.303   2.718   5.397  1.2980  1.0406 -0.2642
 2054TIP3   OH227652   3.079   1.991   6.163  0.1340  0.4954 -0.0600
 2054TIP3    H127653   3.031   2.073   6.177 -1.2449 -0.5113  1.3408
 2054TIP3    H227654   3.068   1.942   6.244  1.6443 -0.7584 -0.5607
 2055TIP3   OH227655   1.155   0.598  17.054 -0.0120 -0.2592 -0.0734
 2055TIP3    H127656   1.100   0.551  16.992  0.6169  1.1526 -1.7801
 2055TIP3    H227657   1.105   0.600  17.135 -1.0364 -1.8060 -0.6405
 2056TIP3   OH227658   3.366   6.811  13.494 -0.1599 -0.4787  0.0109
 2056TIP3    H127659   3.381   6.731  13.545  0.1753  0.2896  1.1630
 2056TIP3    H227660   3.437   6.870  13.520 -0.8036  0.4497 -0.2630
 2057TIP3   OH227661   6.128   2.276   5.614  0.0845  0.2478  0.3835
 2057TIP3    H127662   6.111   2.184   5.597 -0.8857  0.5535 -0.3870
 2057TIP3    H227663   6.221   2.279   5.639 -0.0155 -0.9901  0.9700
 2058TIP3   OH227664   0.404   6.019  12.814  0.1370 -0.2873  0.4538
 2058TIP3    H127665   0.432   5.935  12.849  2.2309 -0.4572 -1.4426
 2058TIP3    H227666   0.325   6.000  12.764  1.3016 -1.4282 -1.0373
 2059TIP3   OH227667   3.864   5.710  12.178 -0.0096  0.7605  0.3706
 2059TIP3    H127668   3.837   5.619  12.188 -1.7876  1.2168  0.0921
 2059TIP3    H227669   3.945   5.706  12.127  0.0404 -0.6648  0.5311
 2060TIP3   OH227670   4.727   2.343   2.385 -0.5506  0.4414 -0.3362
 2060TIP3    H127671   4.643   2.309   2.356  1.0208 -3.0130 -1.4443
 2060TIP3    H227672   4.772   2.368   2.304  1.4444 -3.1246 -0.5285
 2061TIP3   OH227673   3.502   6.765  11.229 -0.1155 -0.5827  0.0675
 2061TIP3    H127674   3.506   6.701  11.158  3.2107  0.9550 -1.3576
 2061TIP3    H227675   3.447   6.835  11.195  1.5672  0.2053 -1.1767
 2062TIP3   OH227676   4.739   6.405  14.116  0.5508 -0.1138  0.9418
 2062TIP3    H127677   4.722   6.474  14.181  1.2726  2.1018 -1.0900
 2062TIP3    H227678   4.693   6.434  14.037 -0.2304 -2.6780  0.3560
 2063TIP3   OH227679   3.336   4.270   3.351  0.0933 -0.4645 -0.4135
 2063TIP3    H127680   3.346   4.205   3.421  0.1042 -0.6800 -0.6107
 2063TIP3    H227681   3.274   4.229   3.290  0.5268 -0.5280 -0.8203
 2064TIP3   OH227682   5.387   5.664  14.105  0.2639 -0.2012 -0.0263
 2064TIP3    H127683   5.481   5.676  14.118  0.0815  1.4705 -0.0585
 2064TIP3    H227684   5.377   5.570  14.092  1.7283 -0.6314  1.5590
 2065TIP3   OH227685   4.402   0.682  16.584 -0.3535  0.5430  0.0280
 2065TIP3    H127686   4.419   0.749  16.650 -2.2093 -0.3760  1.5336
 2065TIP3    H227687   4.306   0.674  16.582 -0.2177 -1.7168 -0.4079
 2066TIP3   OH227688   1.443   3.081   5.500  0.0887 -0.3701  0.1684
 2066TIP3    H127689   1.512   3.085   5.566  0.1775  3.3619  0.0573
 2066TIP3    H227690   1.453   2.994   5.460  2.7059 -1.1319  2.1979
 2067TIP3   OH227691   6.217   3.537  14.244  0.0728 -0.2098  0.3982
 2067TIP3    H127692   6.250   3.454  14.212  2.4391  0.3304  1.1934
 2067TIP3    H227693   6.293   3.579  14.284 -1.8920  0.5763  3.7123
 2068TIP3   OH227694   3.235   0.852  10.645 -0.2866 -0.1018  0.6946
 2068TIP3    H127695   3.268   0.797  10.715  1.5036 -0.6664 -0.4971
 2068TIP3    H227696   3.165   0.904  10.685  0.0698 -1.0252  2.6261
 2069TIP3   OH227697   4.590   2.092  13.952 -0.6611  0.8916  0.2443
 2069TIP3    H127698   4.529   2.029  13.989  0.2853  0.1039  0.4912
 2069TIP3    H227699   4.629   2.048  13.877 -1.7313  2.0693 -1.0734
 2070TIP3   OH227700   1.800   0.687  13.760 -0.0969  0.1548 -0.0310
 2070TIP3    H127701   1.764   0.613  13.711 -1.3208  0.6790  0.0215
 2070TIP3    H227702   1.883   0.708  13.717 -1.3149  0.8758 -2.2013
 2071TIP3   OH227703   1.482   0.512   2.373  0.0567 -0.0991 -0.2214
 2071TIP3    H127704   1.418   0.579   2.346  1.1868  1.1284  0.0286
 2071TIP3    H227705   1.567   0.549   2.349  0.6473 -2.1516 -1.4998
 2072TIP3   OH227706   2.658   4.114   3.744  0.2492  0.0726 -0.7525
 2072TIP3    H127707   2.594   4.186   3.742  0.0339 -0.1341 -1.5039
 2072TIP3    H227708   2.604   4.035   3.742  0.5036 -0.1103 -0.4392
 2073TIP3   OH227709   5.603   0.761   5.518 -0.3561 -0.5333 -0.0410
 2073TIP3    H127710   5.553   0.770   5.436 -0.6223 -0.8984  0.0776
 2073TIP3    H227711   5.576   0.676   5.553  2.6635 -2.3112 -1.5657
 2074TIP3   OH227712   2.031   5.525   3.628  0.3712 -0.0941  0.5433
 2074TIP3    H127713   2.011   5.594   3.691 -1.0246  0.5395 -0.5361
 2074TIP3    H227714   2.061   5.571   3.550  0.9571 -0.8076  0.3323
 2075TIP3   OH227715   1.469   1.044  16.632  0.6164 -0.2492  0.1638
 2075TIP3    H127716   1.535   1.049  16.701  0.2633  1.0949  0.4306
 2075TIP3    H227717   1.501   0.975  16.573  1.1522 -1.1106  1.4074
 2076TIP3   OH227718   5.866   3.041   2.147  0.5518  0.8225 -0.1789
 2076TIP3    H127719   5.864   2.964   2.205  0.3404  0.3837 -0.7556
 2076TIP3    H227720   5.804   3.102   2.186  0.4631  0.5627  0.0976
 2077TIP3   OH227721   1.821   3.897  12.437  0.7345  0.8789 -0.1623
 2077TIP3    H127722   1.771   3.976  12.458 -1.4359 -0.0941 -1.3579
 2077TIP3    H227723   1.761   3.843  12.385  1.6074 -2.2092  1.7437
 2078TIP3   OH227724   0.111   2.169   1.170  0.0552 -0.3056 -0.9670
 2078TIP3    H127725   0.121   2.228   1.095  0.8191 -0.0670 -0.6870
 2078TIP3    H227726   0.194   2.174   1.216 -0.1778 -0.9492 -0.4550
 2079TIP3   OH227727   0.811   3.559   5.318  0.3973 -0.4639 -0.4254
 2079TIP3    H127728   0.721   3.565   5.350  0.5874 -2.0197  0.5161
 2079TIP3    H227729   0.847   3.647   5.332 -0.7285 -0.0321 -0.0914
 2080TIP3   OH227730   4.417   1.122  12.291  0.1278 -0.6164 -0.3662
 2080TIP3    H127731   4.385   1.104  12.379  1.9793 -1.9771  0.0854
 2080TIP3    H227732   4.509   1.097  12.293  0.9830  1.9190 -1.9141
 2081TIP3   OH227733   0.979   4.805  13.813 -0.0039  0.5376  0.0623
 2081TIP3    H127734   1.006   4.734  13.756 -1.4934  0.0341 -0.0789
 2081TIP3    H227735   1.056   4.861  13.821  0.9719 -0.6827 -0.4311
 2082TIP3   OH227736   0.302   5.683  11.871 -0.5270  0.3611  1.0973
 2082TIP3    H127737   0.369   5.673  11.804  0.1591  0.2676  1.7777
 2082TIP3    H227738   0.351   5.706  11.950 -1.1026 -1.5158  2.0568
 2083TIP3   OH227739   3.444   2.618   4.624  0.5144 -0.1758  0.0331
 2083TIP3    H127740   3.441   2.572   4.708  0.4300 -1.9512 -0.8943
 2083TIP3    H227741   3.376   2.577   4.571  1.1460  0.2963 -1.2090
 2084TIP3   OH227742   6.613   0.770  15.691 -0.6903 -0.4059  0.2736
 2084TIP3    H127743   6.695   0.730  15.664 -1.7048 -1.4953 -1.3581
 2084TIP3    H227744   6.594   0.835  15.624 -1.3881 -0.4793  0.3896
 2085TIP3   OH227745   2.233   2.692  16.681  0.1674 -0.4291  0.3361
 2085TIP3    H127746   2.266   2.665  16.595 -1.6433 -1.5960 -0.0603
 2085TIP3    H227747   2.312   2.707  16.734  1.3058 -0.9373 -1.1430
 2086TIP3   OH227748   6.143   4.786   5.901  0.0285 -0.0107  0.2363
 2086TIP3    H127749   6.181   4.873   5.902  1.3918 -0.5787 -0.1745
 2086TIP3    H227750   6.194   4.736   5.964 -0.0057 -0.7947 -0.3352
 2087TIP3   OH227751   0.207   5.404  16.169 -0.3687 -1.0408 -0.0253
 2087TIP3    H127752   0.300   5.410  16.190  0.0531  1.1143 -2.1036
 2087TIP3    H227753   0.189   5.310  16.166  2.0589 -1.5496 -0.8057
 2088TIP3   OH227754   1.989   1.121   1.651 -0.1073 -0.1774 -0.1503
 2088TIP3    H127755   2.001   1.169   1.732  1.3475  0.4853 -0.7143
 2088TIP3    H227756   1.957   1.187   1.589  0.1600 -0.3413 -0.4665
 2089TIP3   OH227757   5.664   0.320   0.229 -0.4296  0.0339 -0.2450
 2089TIP3    H127758   5.704   0.338   0.144  0.0307 -2.0640 -0.5302
 2089TIP3    H227759   5.573   0.299   0.209 -0.5180  0.2847 -0.1160
 2090TIP3   OH227760   6.381   5.236  15.819  0.2867 -0.5491 -0.4349
 2090TIP3    H127761   6.366   5.182  15.897 -1.0891  0.6410  0.1935
 2090TIP3    H227762   6.320   5.201  15.754 -1.7172  1.0632  0.4498
 2091TIP3   OH227763   5.609   2.868   4.164  0.3213  0.0224  0.2804
 2091TIP3    H127764   5.574   2.890   4.250  0.6289 -0.3479  0.5015
 2091TIP3    H227765   5.687   2.922   4.155 -0.4333  1.0592 -0.3296
 2092TIP3   OH227766   5.822   3.736  13.727  0.3189 -0.3754  0.9542
 2092TIP3    H127767   5.868   3.653  13.711  0.6303  0.1455 -1.2825
 2092TIP3    H227768   5.752   3.737  13.661  1.2146  1.7261 -0.0506
 2093TIP3   OH227769   4.158   3.689  12.371  0.0458 -0.7899  0.0211
 2093TIP3    H127770   4.083   3.721  12.321  0.4424  0.0091 -0.0859
 2093TIP3    H227771   4.122   3.661  12.455 -0.0840  1.8213  0.9108
 2094TIP3   OH227772   0.636   2.825   1.955 -0.3373 -0.6673 -0.3035
 2094TIP3    H127773   0.673   2.802   2.040  0.1121  0.6380 -0.1347
 2094TIP3    H227774   0.554   2.870   1.976 -0.1587 -0.2209 -0.5586
 2095TIP3   OH227775   0.762   4.323  13.045  0.2482  0.1817  0.3787
 2095TIP3    H127776   0.856   4.322  13.025  0.2757 -0.2200  0.5215
 2095TIP3    H227777   0.720   4.287  12.967  0.2818 -0.4500  0.6428
 2096TIP3   OH227778   5.085   5.381   1.351  0.0487  0.0820  0.4602
 2096TIP3    H127779   5.024   5.334   1.296  1.2685 -1.2823  0.2157
 2096TIP3    H227780   5.078   5.338   1.437  1.1648 -0.5814  0.2364
 2097TIP3   OH227781   0.692   4.554  14.791 -0.6128 -0.1535 -0.4703
 2097TIP3    H127782   0.646   4.636  14.776 -0.2025  0.0923 -0.3957
 2097TIP3    H227783   0.771   4.579  14.839 -1.1810 -0.7583  0.8209
 2098TIP3   OH227784   6.540   2.738  13.716  0.1292  0.1239  0.9776
 2098TIP3    H127785   6.577   2.826  13.718 -1.8180  0.9944  1.9055
 2098TIP3    H227786   6.612   2.681  13.743  1.3040  1.4680  0.8210
 2099TIP3   OH227787   0.503   4.925  14.874  0.3227  0.2175 -0.8069
 2099TIP3    H127788   0.552   4.890  14.800 -0.2752  1.4400 -1.8057
 2099TIP3    H227789   0.412   4.901  14.857  0.1482  0.7053 -0.5744
 2100TIP3   OH227790   0.601   1.679  15.597  0.7185 -0.5838  0.2988
 2100TIP3    H127791   0.697   1.670  15.598  0.8413  0.2901 -0.8117
 2100TIP3    H227792   0.574   1.638  15.515  0.1481 -0.7501  0.5671
 2101TIP3   OH227793   4.429   0.719   4.938  0.5390  0.2610 -0.3089
 2101TIP3    H127794   4.340   0.745   4.912  0.7973  0.2863 -1.2099
 2101TIP3    H227795   4.436   0.747   5.029  0.1040  1.5666 -0.6497
 2102TIP3   OH227796   4.452   0.484   4.769 -0.1802  0.2327  0.3317
 2102TIP3    H127797   4.459   0.563   4.823  0.5769  1.1367 -1.0357
 2102TIP3    H227798   4.438   0.413   4.832 -1.2651  1.4851  1.5707
 2103TIP3   OH227799   1.197   5.148   1.063  0.0325  0.3655 -0.3636
 2103TIP3    H127800   1.281   5.189   1.086  0.1807 -0.8288  1.4106
 2103TIP3    H227801   1.135   5.221   1.059  0.7361  1.0232  0.4422
 2104TIP3   OH227802   3.854   1.117  13.024  0.1526 -0.1764 -0.4516
 2104TIP3    H127803   3.795   1.130  12.951 -1.4360 -0.8677  0.6642
 2104TIP3    H227804   3.942   1.120  12.985 -0.5909  0.8523 -2.1389
 2105TIP3   OH227805   2.269   3.489   0.543 -0.3948  0.5618  0.3810
 2105TIP3    H127806   2.204   3.454   0.482 -0.9052  0.4237  0.9876
 2105TIP3    H227807   2.333   3.534   0.488 -1.1494  0.9273 -0.2150
 2106TIP3   OH227808   4.335   5.527   6.602  0.1766 -0.2312 -0.0906
 2106TIP3    H127809   4.300   5.438   6.613  1.5563 -0.5688  2.3658
 2106TIP3    H227810   4.370   5.549   6.688 -0.5394  2.9280 -0.4968
 2107TIP3   OH227811   3.390   1.177   4.592 -0.2528 -0.5979 -0.7647
 2107TIP3    H127812   3.298   1.176   4.618  0.0411  0.1425  0.3305
 2107TIP3    H227813   3.393   1.120   4.514 -1.6325 -0.5817 -0.8520
 2108TIP3   OH227814   4.811   3.589  13.368 -0.0920 -0.0706  0.0959
 2108TIP3    H127815   4.792   3.683  13.368  0.5170  0.0726 -0.8414
 2108TIP3    H227816   4.868   3.576  13.443  0.8870  0.5582 -0.5188
 2109TIP3   OH227817   1.116   2.840   3.902 -0.2065 -0.0656 -0.6463
 2109TIP3    H127818   1.173   2.813   3.830 -0.7310  1.3563 -1.6273
 2109TIP3    H227819   1.030   2.805   3.878 -0.1167 -0.7522 -0.0113
 2110TIP3   OH227820   2.888   6.398   4.350 -0.4954  0.3712 -0.2859
 2110TIP3    H127821   2.848   6.329   4.403 -0.9643  0.3001 -0.7183
 2110TIP3    H227822   2.827   6.471   4.356 -0.1352  0.6535 -0.0519
 2111TIP3   OH227823   1.199   5.317  13.181  0.1772 -0.1797  0.0431
 2111TIP3    H127824   1.268   5.285  13.238  0.3369 -1.1244 -0.6630
 2111TIP3    H227825   1.201   5.412  13.192  0.9846 -0.2659  0.7098
 2112TIP3   OH227826   3.143   5.393   1.796  0.0902 -0.0045 -0.0918
 2112TIP3    H127827   3.109   5.415   1.709  1.1903 -0.6646 -0.7172
 2112TIP3    H227828   3.195   5.469   1.821 -0.5811  0.3665  0.1865
 2113TIP3   OH227829   5.714   1.847  14.912  0.1320 -0.0748  0.4967
 2113TIP3    H127830   5.680   1.762  14.941  0.8754 -1.7646 -3.0755
 2113TIP3    H227831   5.794   1.826  14.865  0.6485  2.7143 -0.0459
 2114TIP3   OH227832   4.819   0.058  11.710 -0.7797 -0.1104 -0.0088
 2114TIP3    H127833   4.845  -0.028  11.741 -0.5131 -0.6691 -1.6902
 2114TIP3    H227834   4.782   0.043  11.622 -0.0431  1.5551 -0.6607
 2115TIP3   OH227835   4.592   5.983   0.504  0.4485  0.3262  0.0756
 2115TIP3    H127836   4.579   6.027   0.420  2.0339  1.4586  0.3930
 2115TIP3    H227837   4.658   5.916   0.487 -0.8185 -0.9446 -0.0425
 2116TIP3   OH227838   3.209   1.772  16.965 -0.0426  0.1450  1.0105
 2116TIP3    H127839   3.143   1.720  16.919 -1.7225  0.8222  2.5154
 2116TIP3    H227840   3.252   1.709  17.023 -0.8423  0.0583  1.5331
 2117TIP3   OH227841   1.094   3.137   2.604  0.1235  0.4405 -0.0533
 2117TIP3    H127842   1.179   3.098   2.585  0.7530  1.2988  0.8986
 2117TIP3    H227843   1.098   3.225   2.565  0.4829  1.2649  1.7195
 2118TIP3   OH227844   0.626   0.705  16.760  0.7304  0.8136 -0.2037
 2118TIP3    H127845   0.541   0.709  16.803  0.9134 -3.1696  0.8967
 2118TIP3    H227846   0.658   0.795  16.761 -3.5577  2.5926 -1.0543
 2119TIP3   OH227847   2.500   3.770  12.217  0.6872 -0.2682  0.6337
 2119TIP3    H127848   2.504   3.798  12.125  1.1269 -0.2117  0.6657
 2119TIP3    H227849   2.592   3.753  12.240  0.5684 -0.3546  1.0400
 2120TIP3   OH227850   5.223   3.874   2.350 -0.7032 -0.4660 -0.3133
 2120TIP3    H127851   5.279   3.901   2.423 -2.5511 -2.0079  1.8372
 2120TIP3    H227852   5.164   3.949   2.336  0.5380  0.3775 -1.2349
 2121TIP3   OH227853   2.009   6.031  12.951  0.5453 -0.2109  0.4883
 2121TIP3    H127854   2.100   6.001  12.952  0.2348 -1.2182  1.7005
 2121TIP3    H227855   1.959   5.955  12.980 -0.4408  1.0201  2.2008
 2122TIP3   OH227856   0.212   1.409  15.136  0.6241  0.3711 -0.3721
 2122TIP3    H127857   0.290   1.355  15.119  1.8756  1.9220  0.1986
 2122TIP3    H227858   0.235   1.459  15.214 -0.8903  1.0263 -0.3298
 2123TIP3   OH227859   0.980   5.538  15.691  0.0817 -0.0852 -0.2741
 2123TIP3    H127860   0.890   5.568  15.680 -0.0532 -0.3886 -0.0138
 2123TIP3    H227861   0.983   5.454  15.646 -0.5113 -1.4048  1.9816
 2124TIP3   OH227862   5.686   2.633   4.418 -0.5207 -0.0264 -0.1185
 2124TIP3    H127863   5.716   2.690   4.347  0.8176 -1.1862 -0.5366
 2124TIP3    H227864   5.766   2.606   4.463 -1.0887 -1.6534 -0.0218
 2125TIP3   OH227865   5.009   4.107   2.439  0.8422 -0.6439 -0.0643
 2125TIP3    H127866   5.066   4.184   2.434  0.7420 -0.5805 -0.2424
 2125TIP3    H227867   5.005   4.086   2.533  2.0685 -1.3360 -0.1448
 2126TIP3   OH227868   1.565   5.067  11.188 -0.2371  0.5858  0.3674
 2126TIP3    H127869   1.521   4.998  11.237 -1.0900  1.8477  1.4676
 2126TIP3    H227870   1.524   5.066  11.102  0.6836 -1.1128 -0.0917
 2127TIP3   OH227871   0.320   2.580   3.437 -0.5433 -0.1969  0.2134
 2127TIP3    H127872   0.392   2.538   3.390 -2.0690 -1.4940 -1.0757
 2127TIP3    H227873   0.289   2.648   3.377  0.4280  1.3445  1.3498
 2128TIP3   OH227874   5.164   6.768   0.944 -0.2858  0.0549  0.1831
 2128TIP3    H127875   5.216   6.690   0.964 -1.3382 -0.9362 -0.7420
 2128TIP3    H227876   5.078   6.733   0.920 -0.3327  1.3933 -1.8158
 2129TIP3   OH227877   5.490   6.420   2.331 -0.0573 -0.7146 -0.6602
 2129TIP3    H127878   5.566   6.467   2.297 -2.1138  3.0664 -0.6168
 2129TIP3    H227879   5.461   6.366   2.258  0.6707  0.5167 -1.9319
 2130TIP3   OH227880   2.206   0.390   0.186 -0.1300  0.2623  0.2526
 2130TIP3    H127881   2.157   0.327   0.133  0.0946 -0.3302  0.7497
 2130TIP3    H227882   2.137   0.444   0.227 -0.2974  1.5038 -1.5295
 2131TIP3   OH227883   4.503   2.130  15.101 -0.6047  0.3974  1.3012
 2131TIP3    H127884   4.440   2.138  15.029 -1.8426  2.6942  2.5381
 2131TIP3    H227885   4.449   2.134  15.180  0.7920 -1.3523  2.3964
 2132TIP3   OH227886   1.133   2.816   0.679  0.3886 -0.4134 -0.2753
 2132TIP3    H127887   1.191   2.761   0.626 -0.8198 -1.3455 -0.6696
 2132TIP3    H227888   1.067   2.847   0.617  0.2186  0.2852  0.2529
 2133TIP3   OH227889   5.155   2.542  13.448 -0.1603  0.1666  0.4848
 2133TIP3    H127890   5.085   2.605  13.426 -0.2762  0.1181  0.7171
 2133TIP3    H227891   5.174   2.559  13.540 -0.3391 -0.2810  0.6063
 2134TIP3   OH227892   6.255   2.362  11.461 -0.0716 -0.3938  0.0268
 2134TIP3    H127893   6.280   2.420  11.389 -0.0214 -0.4652 -0.0134
 2134TIP3    H227894   6.223   2.421  11.529 -1.9243 -0.4353 -0.7631
 2135TIP3   OH227895   5.216   5.858  12.642  0.0977 -0.0774  0.0273
 2135TIP3    H127896   5.214   5.931  12.704 -0.5049  0.1782 -0.2887
 2135TIP3    H227897   5.174   5.892  12.563 -1.5631 -1.2085  0.3791
 2136TIP3   OH227898   1.638   1.905  13.290 -0.0989  0.3956 -0.7333
 2136TIP3    H127899   1.637   1.994  13.254  1.3519  0.3731 -0.8998
 2136TIP3    H227900   1.615   1.849  13.216 -1.4121  0.6425 -0.5309
 2137TIP3   OH227901   0.487   2.308  16.733 -0.4699  0.3560  0.1859
 2137TIP3    H127902   0.502   2.348  16.819  0.7332  2.1636 -0.7948
 2137TIP3    H227903   0.573   2.277  16.705 -0.9096 -0.5218 -0.2349
 2138TIP3   OH227904   0.620   2.488  15.630  0.4489  0.0516  0.0738
 2138TIP3    H127905   0.563   2.451  15.563 -0.1536  1.3619 -0.1630
 2138TIP3    H227906   0.656   2.567  15.590 -0.3783  1.1934  1.4646
 2139TIP3   OH227907   5.719   2.070  12.492 -0.2034  0.6788  0.3044
 2139TIP3    H127908   5.726   1.991  12.438  0.7120  1.2516 -0.4417
 2139TIP3    H227909   5.809   2.090  12.517 -0.4575  1.3211  0.7335
 2140TIP3   OH227910   0.738   3.738   0.746  0.0131 -0.2025 -0.4546
 2140TIP3    H127911   0.736   3.789   0.827 -1.5061 -0.9374  0.0027
 2140TIP3    H227912   0.824   3.695   0.746  0.0392 -0.1695  0.7609
 2141TIP3   OH227913   0.701   1.010   4.845  0.0669  0.4260  0.2148
 2141TIP3    H127914   0.772   1.071   4.827  0.6669 -0.6385 -1.2594
 2141TIP3    H227915   0.641   1.058   4.901  0.9998  2.0124 -0.0948
 2142TIP3   OH227916   3.967   6.705  17.005  0.4817  0.0472  0.0510
 2142TIP3    H127917   3.986   6.798  17.014  0.1316  0.2228 -0.9370
 2142TIP3    H227918   3.917   6.683  17.083  0.3943  0.7359  0.1917
 2143TIP3   OH227919   5.110   1.570   5.832 -0.1922  0.1800  0.1001
 2143TIP3    H127920   5.126   1.664   5.820 -2.6290  0.7272  0.5323
 2143TIP3    H227921   5.118   1.556   5.926 -1.9286  0.4835  0.3395
 2144TIP3   OH227922   6.434   1.590   2.675 -0.1019 -0.5549  0.1680
 2144TIP3    H127923   6.415   1.558   2.763 -2.0937 -0.5497 -0.2220
 2144TIP3    H227924   6.470   1.677   2.688 -0.5478 -0.4878  0.9777
 2145TIP3   OH227925   5.805   1.323  12.441 -0.0033  0.2419  0.0839
 2145TIP3    H127926   5.738   1.330  12.373  0.4302  0.3962 -0.3337
 2145TIP3    H227927   5.841   1.235  12.431  2.0210  1.1524 -1.7924
 2146TIP3   OH227928   2.638   0.615  14.252 -0.2638  0.5056 -0.6355
 2146TIP3    H127929   2.548   0.648  14.255  0.0934  1.4102  1.8692
 2146TIP3    H227930   2.683   0.659  14.324  0.5825 -4.3745  2.2824
 2147TIP3   OH227931   3.818   4.235  15.860  0.1582  0.2048  0.3652
 2147TIP3    H127932   3.903   4.191  15.860 -0.6552 -1.4561 -0.1626
 2147TIP3    H227933   3.800   4.252  15.767  0.0341  0.8206  0.4957
 2148TIP3   OH227934   6.118   6.626  11.019  0.4020  0.3360  0.5363
 2148TIP3    H127935   6.118   6.699  11.080 -0.5898  0.3196  0.5682
 2148TIP3    H227936   6.038   6.636  10.968  1.8349  1.1002 -1.7054
 2149TIP3   OH227937   2.483   4.662  15.027 -0.6085 -0.1497  0.2880
 2149TIP3    H127938   2.438   4.603  15.088 -2.0475  0.5003 -0.0893
 2149TIP3    H227939   2.537   4.718  15.083 -0.2387 -0.9674  0.7628
 2150TIP3   OH227940   0.960   5.523  13.623  0.3084  0.0415  0.0110
 2150TIP3    H127941   0.916   5.542  13.706 -1.7875  0.0652 -1.0234
 2150TIP3    H227942   1.005   5.604  13.600  0.2654  0.2824  0.7648
 2151TIP3   OH227943   4.103   4.044  14.289 -0.4270  0.1162 -0.4073
 2151TIP3    H127944   4.143   3.980  14.231 -0.1628 -1.1811  1.1454
 2151TIP3    H227945   4.021   4.003  14.316 -0.8448  0.9749 -0.3338
 2152TIP3   OH227946   4.095   4.478   3.211 -0.4697  0.0019 -0.1541
 2152TIP3    H127947   4.021   4.537   3.229 -0.2681 -0.3283  2.0892
 2152TIP3    H227948   4.056   4.390   3.213 -0.2791 -0.0942 -0.5875
 2153TIP3   OH227949   6.151   5.973   5.730 -0.1114  0.8828 -0.2721
 2153TIP3    H127950   6.223   5.999   5.673 -1.2263  2.1559 -1.1638
 2153TIP3    H227951   6.096   5.917   5.675  0.1436 -0.0695  0.4007
 2154TIP3   OH227952   5.864   5.205  11.318  0.1202 -0.1521 -0.0705
 2154TIP3    H127953   5.871   5.234  11.409  0.7765 -0.0988 -0.1348
 2154TIP3    H227954   5.848   5.285  11.268 -0.2135 -0.1781 -0.0067
 2155TIP3   OH227955   5.284   0.315   5.943  0.2134  0.3421  0.2637
 2155TIP3    H127956   5.245   0.341   5.859  2.1885  0.6105 -0.6184
 2155TIP3    H227957   5.209   0.307   6.002 -1.0567  2.0590 -1.0083
 2156TIP3   OH227958   2.436   1.717   2.629  0.1318 -0.4068 -0.7254
 2156TIP3    H127959   2.349   1.739   2.594  0.0068  0.2928  0.0016
 2156TIP3    H227960   2.444   1.769   2.708  2.5600  2.0753 -2.4343
 2157TIP3   OH227961   0.565   1.799   4.939  0.0623  0.4679 -0.7060
 2157TIP3    H127962   0.478   1.839   4.927 -0.4009 -0.8221 -1.9572
 2157TIP3    H227963   0.595   1.833   5.023 -2.7690 -1.0253  1.0785
 2158TIP3   OH227964   4.628   1.828  16.894 -0.2351 -0.2191 -0.1424
 2158TIP3    H127965   4.654   1.860  16.808  1.7978  0.0839  0.5363
 2158TIP3    H227966   4.710   1.821  16.944 -1.4396  0.9406  2.2003
 2159TIP3   OH227967   5.341   3.233  12.490 -0.2361  0.4899  0.1216
 2159TIP3    H127968   5.373   3.252  12.402  0.3884  0.4208  0.3251
 2159TIP3    H227969   5.324   3.319  12.528  0.9423  0.5993  0.4468
 2160TIP3   OH227970   6.789   6.101   1.891 -0.1349  0.4798 -0.4462
 2160TIP3    H127971   6.738   6.169   1.846  1.3244  1.7056 -0.3285
 2160TIP3    H227972   6.733   6.072   1.962 -0.8625  1.4371 -0.6067
 2161TIP3   OH227973   1.758   1.207   4.111  0.4734  0.3991  0.0152
 2161TIP3    H127974   1.712   1.150   4.173  2.2685  0.6949  1.7326
 2161TIP3    H227975   1.700   1.283   4.101  0.0506  0.2708  1.2361
 2162TIP3   OH227976   1.485   2.645  10.785  0.6125 -0.0035 -0.0365
 2162TIP3    H127977   1.490   2.740  10.796 -3.4734  0.4756 -0.5205
 2162TIP3    H227978   1.404   2.620  10.830  1.7448 -3.3850  0.4294
 2163TIP3   OH227979   1.291   3.118   3.204 -0.0851 -0.4146 -0.6069
 2163TIP3    H127980   1.213   3.063   3.204  0.8265 -1.7699 -0.2119
 2163TIP3    H227981   1.274   3.184   3.271 -0.6302 -1.1003 -0.0516
 2164TIP3   OH227982   6.249   6.017   2.747 -0.3073 -0.9100 -0.2061
 2164TIP3    H127983   6.188   5.948   2.720 -1.7596 -0.1823  1.1312
 2164TIP3    H227984   6.211   6.054   2.827  1.3860  0.2282  0.1234
 2165TIP3   OH227985   5.105   1.470   4.646  0.3099  0.3392  0.1001
 2165TIP3    H127986   5.183   1.525   4.642 -0.3591  1.3600  0.8211
 2165TIP3    H227987   5.052   1.499   4.572 -0.6249  1.6111  1.2153
 2166TIP3   OH227988   2.669   5.112   2.922 -0.1999 -0.0666 -0.0369
 2166TIP3    H127989   2.591   5.095   2.870  0.1150  1.4387 -1.0631
 2166TIP3    H227990   2.739   5.065   2.877 -0.2163 -0.0716 -0.0571
 2167TIP3   OH227991   1.518   1.967  16.943  0.1285 -0.4436 -0.8591
 2167TIP3    H127992   1.547   2.047  16.899 -0.3825  0.4135  0.3255
 2167TIP3    H227993   1.425   1.983  16.961  0.5183 -0.4111  1.2787
 2168TIP3   OH227994   6.023   4.947   1.195 -0.0413 -0.0443 -0.4691
 2168TIP3    H127995   5.962   4.873   1.196  0.9752 -0.9359  1.8732
 2168TIP3    H227996   5.967   5.024   1.205 -0.9236 -0.7165 -0.0455
 2169TIP3   OH227997   3.503   3.223   5.533  0.0428 -0.0403 -0.2578
 2169TIP3    H127998   3.497   3.318   5.518  1.6506  0.2329  0.6248
 2169TIP3    H227999   3.589   3.199   5.499 -0.2296 -1.1377 -0.2013
 2170TIP3   OH228000   0.933   2.308  15.056  0.5974 -0.0460 -0.1579
 2170TIP3    H128001   1.025   2.332  15.039  0.2566  1.0721 -0.4901
 2170TIP3    H228002   0.939   2.229  15.110  1.7775  0.5860  0.6946
 2171TIP3   OH228003   6.282   1.584  13.104  0.1928 -0.3082  0.7075
 2171TIP3    H128004   6.370   1.549  13.106  0.6652  0.6779 -0.9067
 2171TIP3    H228005   6.225   1.507  13.095  1.1468 -0.7984 -2.0810
 2172TIP3   OH228006   0.945   1.511   6.017  0.5412 -0.4747 -0.3350
 2172TIP3    H128007   0.926   1.601   5.993  2.9170  0.9825  2.4925
 2172TIP3    H228008   0.860   1.474   6.042 -0.2351  1.7517  0.5903
 2173TIP3   OH228009   2.952   4.507   2.716 -0.6673  0.1346  0.7556
 2173TIP3    H128010   2.898   4.547   2.649 -0.3299 -0.3836  0.1639
 2173TIP3    H228011   2.956   4.572   2.786 -1.4922  0.4467  0.5220
 2174TIP3   OH228012   6.671   2.512  13.198  1.0368 -0.0784 -0.6007
 2174TIP3    H128013   6.636   2.563  13.270 -1.7254  1.3021 -2.7469
 2174TIP3    H228014   6.734   2.570  13.156 -0.5426  0.8632 -1.7773
 2175TIP3   OH228015   0.457   3.999   5.059 -0.1318 -0.0458  0.7649
 2175TIP3    H128016   0.509   4.078   5.076 -0.6869  0.0081  2.4566
 2175TIP3    H228017   0.505   3.929   5.102  1.4826 -1.1332 -2.4984
 2176TIP3   OH228018   3.918   2.771  15.392 -0.4690 -0.6466 -0.2590
 2176TIP3    H128019   3.979   2.713  15.347 -0.1090 -0.9801  0.6298
 2176TIP3    H228020   3.974   2.833  15.439 -0.8502  0.5277 -1.3018
 2177TIP3   OH228021   0.514   3.108   0.476  0.2788  0.1694 -0.4163
 2177TIP3    H128022   0.566   3.167   0.531 -0.4981  2.0593 -1.5880
 2177TIP3    H228023   0.433   3.094   0.526  0.4970  0.0631 -0.0951
 2178TIP3   OH228024   5.014   3.394  11.169  0.5968 -0.0259 -0.3221
 2178TIP3    H128025   4.958   3.322  11.197  1.4334 -1.2616 -1.7153
 2178TIP3    H228026   5.096   3.352  11.142  0.6158  1.2839 -2.5006
 2179TIP3   OH228027   2.771   4.243   1.602  0.1492  0.7716 -0.1299
 2179TIP3    H128028   2.724   4.265   1.683  0.8467  0.6070  0.3204
 2179TIP3    H228029   2.702   4.240   1.536 -0.4725  0.6025  0.5096
 2180TIP3   OH228030   3.239   2.385   4.268 -0.1756 -0.7073 -0.1533
 2180TIP3    H128031   3.328   2.409   4.244  0.0614  1.7799  2.5917
 2180TIP3    H228032   3.207   2.461   4.317 -2.6502 -2.8455  1.7811
 2181TIP3   OH228033   2.458   4.354   3.760 -0.2132  0.0739  0.6665
 2181TIP3    H128034   2.496   4.438   3.735  2.3656 -2.0414 -3.5798
 2181TIP3    H228035   2.375   4.351   3.712 -0.3245  0.1788  0.8499
 2182TIP3   OH228036   4.898   6.539   5.891  0.0710 -0.2670  0.2146
 2182TIP3    H128037   4.974   6.516   5.944  0.0479  1.6077  1.1291
 2182TIP3    H228038   4.916   6.627   5.859 -2.1258  0.6768  1.3397
 2183TIP3   OH228039   3.370   0.217  14.294  0.4104 -0.0048 -0.2088
 2183TIP3    H128040   3.378   0.283  14.225 -1.0916 -0.8186 -1.2288
 2183TIP3    H228041   3.445   0.233  14.351  0.9763  1.5427 -1.2999
 2184TIP3   OH228042   0.510   4.176  10.430  0.5298 -0.1493 -0.4986
 2184TIP3    H128043   0.596   4.210  10.403  1.0889 -0.6880  0.5528
 2184TIP3    H228044   0.516   4.170  10.525 -1.0957  0.9183 -0.2862
 2185TIP3   OH228045   1.521   0.072  12.277 -0.1839  0.0205  0.7545
 2185TIP3    H128046   1.500   0.163  12.297 -0.5992  0.1282 -0.1209
 2185TIP3    H228047   1.528   0.030  12.363 -0.0302  0.8601  1.1722
 2186TIP3   OH228048   4.974   6.582   2.834  0.3718  0.1336  0.0767
 2186TIP3    H128049   4.993   6.675   2.835  1.2294 -0.0166  1.8106
 2186TIP3    H228050   5.022   6.548   2.759 -1.3454  1.3029 -1.6441
 2187TIP3   OH228051   2.151   3.570   2.380  0.1613  0.1982 -0.1533
 2187TIP3    H128052   2.181   3.579   2.470 -0.2758  0.0423  0.0095
 2187TIP3    H228053   2.226   3.597   2.327  0.6779 -0.4474  0.2413
 2188TIP3   OH228054   5.987   3.640  15.215  0.4491 -0.3320  0.2098
 2188TIP3    H128055   5.940   3.722  15.235  0.1589 -0.2579 -0.6884
 2188TIP3    H228056   6.046   3.627  15.289  2.5397  2.1763 -0.8628
 2189TIP3   OH228057   2.469   6.743   2.682  0.3544 -0.1661  0.8344
 2189TIP3    H128058   2.468   6.829   2.723  1.8470  1.2594 -1.8775
 2189TIP3    H228059   2.561   6.724   2.665  0.1575 -2.7341  2.0807
 2190TIP3   OH228060   3.833   4.071  14.130  0.1090  0.4190 -0.2310
 2190TIP3    H128061   3.770   4.030  14.189  0.6436  0.6514  0.5238
 2190TIP3    H228062   3.829   4.164  14.150 -0.0054  0.5525 -0.8629
 2191TIP3   OH228063   6.041   0.483   4.114 -0.1210 -0.2447  0.5432
 2191TIP3    H128064   5.980   0.410   4.105 -0.9728  0.6028 -1.1564
 2191TIP3    H228065   6.097   0.477   4.036 -0.0460  0.7520  0.5082
 2192TIP3   OH228066   3.891   1.239  14.598 -0.1966 -0.5175 -0.5603
 2192TIP3    H128067   3.959   1.202  14.655 -0.1439 -0.4635 -0.5886
 2192TIP3    H228068   3.841   1.297  14.656  0.6441  0.5314 -0.8659
 2193TIP3   OH228069   5.517   2.447   4.888  0.2335 -0.1202 -0.5804
 2193TIP3    H128070   5.451   2.463   4.820  1.0813  0.4335 -1.2908
 2193TIP3    H228071   5.475   2.478   4.969 -0.1240  0.8852 -1.1283
 2194TIP3   OH228072   0.020   1.608   4.516  0.4916  0.4153 -0.6327
 2194TIP3    H128073  -0.044   1.600   4.586  3.0353  0.4924  1.8932
 2194TIP3    H228074   0.065   1.523   4.514  1.2999  0.8370 -1.2617
 2195TIP3   OH228075   2.051   0.044  13.601 -0.5333 -0.6011 -0.0351
 2195TIP3    H128076   2.036   0.067  13.509 -1.1260  0.1547  0.2382
 2195TIP3    H228077   2.062   0.128  13.645  2.8888 -0.9717  0.1082
 2196TIP3   OH228078   3.935   5.593   3.799 -0.5068 -0.1534  0.0530
 2196TIP3    H128079   3.988   5.575   3.721 -0.8316 -0.8705 -0.0077
 2196TIP3    H228080   3.866   5.652   3.768  0.8913  1.7415  0.3712
 2197TIP3   OH228081   3.267   5.802  16.863 -0.2849 -0.2081 -0.6319
 2197TIP3    H128082   3.298   5.814  16.773  0.6324  0.4266 -0.2497
 2197TIP3    H228083   3.200   5.869  16.874 -0.4872 -0.3684 -0.8814
 2198TIP3   OH228084   5.813   2.227   4.527 -0.2160  0.0228 -0.2466
 2198TIP3    H128085   5.872   2.225   4.452 -1.1589  1.3660 -1.0558
 2198TIP3    H228086   5.725   2.217   4.490 -0.6685  0.2243  0.7245
 2199TIP3   OH228087   2.879   2.805   5.951 -0.2600 -0.1587 -0.1896
 2199TIP3    H128088   2.956   2.750   5.962 -0.8990 -1.3931 -1.5492
 2199TIP3    H228089   2.913   2.886   5.914  0.7094  0.4952  1.9433
 2200TIP3   OH228090   0.110   3.665  13.481  0.0951  0.0842  0.3281
 2200TIP3    H128091   0.199   3.677  13.447 -0.3555 -1.1187 -1.3956
 2200TIP3    H228092   0.053   3.694  13.410 -0.9357  1.2159  1.5669
 2201TIP3   OH228093   3.014   4.562   4.377  0.3863  0.0179 -0.0618
 2201TIP3    H128094   2.966   4.637   4.411  0.6672  0.0265  0.3165
 2201TIP3    H228095   2.980   4.487   4.426  1.1321  0.0940  0.5950
 2202TIP3   OH228096   0.377   2.345  15.091 -0.0272 -0.0218  0.0952
 2202TIP3    H128097   0.332   2.263  15.070  0.3075 -0.6447  1.6536
 2202TIP3    H228098   0.468   2.320  15.101  0.1050  0.5827  0.4108
 2203TIP3   OH228099   4.676   0.219  15.491 -0.1906  0.0485 -0.2163
 2203TIP3    H128100   4.642   0.222  15.581  0.3243 -0.9954  0.0205
 2203TIP3    H228101   4.768   0.195  15.501  0.3929  1.8027 -0.9265
 2204TIP3   OH228102   6.000   2.189   0.891  0.6067 -0.2720  0.3473
 2204TIP3    H128103   6.030   2.279   0.879  0.9972 -0.2579  1.3863
 2204TIP3    H228104   5.982   2.158   0.802 -1.0208  1.3349  0.0443
 2205TIP3   OH228105   1.919   4.354   5.313  0.1600  0.0835 -0.2127
 2205TIP3    H128106   1.985   4.320   5.253 -1.7702 -2.3001 -1.1588
 2205TIP3    H228107   1.938   4.311   5.397  2.1312  2.5026  0.7011
 2206TIP3   OH228108   5.155   0.515   3.911  0.3565 -0.0368 -0.4063
 2206TIP3    H128109   5.084   0.459   3.941  0.4143 -0.2523 -0.6649
 2206TIP3    H228110   5.113   0.597   3.886  0.3498  0.2696  0.5777
 2207TIP3   OH228111   2.780   1.776  13.622  0.0836 -0.2257 -0.2775
 2207TIP3    H128112   2.818   1.792  13.535  1.1152 -0.0205  0.1851
 2207TIP3    H228113   2.794   1.683  13.637 -0.9369 -0.4539 -0.7070
 2208TIP3   OH228114   2.888   3.850   4.370 -0.3672  0.4348 -0.5227
 2208TIP3    H128115   2.844   3.909   4.431 -0.5687  0.0337 -0.2766
 2208TIP3    H228116   2.833   3.853   4.291  0.9338  2.4705 -1.4421
 2209TIP3   OH228117   4.428   5.512   2.874 -0.3662 -0.3605 -0.6655
 2209TIP3    H128118   4.335   5.491   2.867 -0.2763 -1.0665  0.0245
 2209TIP3    H228119   4.470   5.428   2.897  0.2393  0.2265  0.4601
 2210TIP3   OH228120   1.720   5.864   1.074 -0.3742  0.2118  0.4292
 2210TIP3    H128121   1.644   5.858   1.017 -1.4495 -0.2694  1.8450
 2210TIP3    H228122   1.704   5.942   1.127 -0.9138 -0.9764  2.1029
 2211TIP3   OH228123   0.289   2.156  14.635 -0.1760  0.1933 -0.0759
 2211TIP3    H128124   0.253   2.121  14.554  1.4591 -1.6869 -0.0433
 2211TIP3    H228125   0.236   2.234  14.652  0.7417  1.9336 -4.0484
 2212TIP3   OH228126   5.685   1.762  13.661 -0.5319  0.5602  0.4025
 2212TIP3    H128127   5.612   1.743  13.720 -0.2220 -0.0493  0.6023
 2212TIP3    H228128   5.647   1.763  13.574 -0.4039 -2.2488  0.2233
 2213TIP3   OH228129   6.010   4.132  10.786  0.5873  0.2072 -0.3528
 2213TIP3    H128130   5.918   4.159  10.786  0.3497 -0.4722 -1.9535
 2213TIP3    H228131   6.050   4.184  10.717  1.0290 -0.6474 -0.7564
 2214TIP3   OH228132   2.843   3.081   3.753  0.1339 -0.1751  0.4613
 2214TIP3    H128133   2.851   3.164   3.801  1.9488  1.4840 -2.4414
 2214TIP3    H228134   2.764   3.091   3.701  0.5347 -0.1171 -0.1398
 2215TIP3   OH228135   1.959   2.941   1.425 -0.0632 -0.1061 -0.0369
 2215TIP3    H128136   2.039   2.916   1.471 -0.5549 -2.4147 -0.3182
 2215TIP3    H228137   1.970   2.905   1.337 -1.7472 -1.2614  0.1796
 2216TIP3   OH228138   6.429   5.336   5.285  0.0663  0.1912  0.1837
 2216TIP3    H128139   6.444   5.431   5.280  0.1163  0.1253 -1.4290
 2216TIP3    H228140   6.499   5.304   5.343  1.2501  0.9134 -0.7895
 2217TIP3   OH228141   2.075   5.999   4.369 -0.3662  0.3343  0.4954
 2217TIP3    H128142   1.987   5.972   4.345  0.1455 -1.5659  0.5774
 2217TIP3    H228143   2.130   5.923   4.348  1.1799  1.2820  0.9037
 2218TIP3   OH228144   1.316   3.644  14.004  0.0139  0.0774 -0.4578
 2218TIP3    H128145   1.411   3.644  14.013  0.0532  0.0947 -0.8797
 2218TIP3    H228146   1.287   3.569  14.056  0.0664  1.4054  1.6134
 2219TIP3   OH228147   5.651   3.564  16.753  0.1128 -0.4360 -0.0396
 2219TIP3    H128148   5.729   3.562  16.808  0.3034  0.7056 -0.2422
 2219TIP3    H228149   5.657   3.485  16.700  0.1644 -1.3247  1.2272
 2220TIP3   OH228150   6.352   6.781  17.184  1.0265  0.2441  0.0608
 2220TIP3    H128151   6.355   6.692  17.218  2.4828  1.0810  2.3335
 2220TIP3    H228152   6.437   6.818  17.207 -0.2224  2.8124  0.9073
 2221TIP3   OH228153   4.504   4.601  13.717 -0.6303  0.4732  0.3693
 2221TIP3    H128154   4.482   4.560  13.633  0.2529 -2.3320  1.4099
 2221TIP3    H228155   4.437   4.569  13.777 -0.0280  0.7486  1.1987
 2222TIP3   OH228156   2.740   2.690  16.589 -0.1326  0.6119 -0.3647
 2222TIP3    H128157   2.813   2.637  16.621 -1.7753 -0.5551  1.7257
 2222TIP3    H228158   2.769   2.723  16.504  2.6988  0.0180  0.2851
 2223TIP3   OH228159   2.050   1.924  16.343 -0.0186 -0.7623  0.4672
 2223TIP3    H128160   2.032   1.840  16.300  0.7645 -1.4328  1.4079
 2223TIP3    H228161   2.142   1.941  16.325 -0.0662 -0.3206  0.6388
 2224TIP3   OH228162   4.780   3.254  12.754  0.0605 -0.1016 -0.7000
 2224TIP3    H128163   4.802   3.337  12.795 -2.1442  0.3560 -0.3030
 2224TIP3    H228164   4.774   3.274  12.660  1.8677 -0.3948 -0.9046
 2225TIP3   OH228165   2.054   2.037   4.711 -0.2902 -0.0981  0.0157
 2225TIP3    H128166   2.005   2.081   4.781 -0.6452 -0.8332  0.2328
 2225TIP3    H228167   2.082   2.108   4.653  0.1596  0.5386  0.9931
 2226TIP3   OH228168   6.444   1.302   6.360 -0.3646  0.3188  0.8498
 2226TIP3    H128169   6.515   1.365   6.375  0.5289 -0.8742  1.7612
 2226TIP3    H228170   6.440   1.250   6.440 -0.2208 -1.6032 -0.3259
 2227TIP3   OH228171   1.206   0.035  15.028  0.3563 -0.0554  0.2081
 2227TIP3    H128172   1.288   0.008  14.987  0.2273 -0.0036 -0.0822
 2227TIP3    H228173   1.142  -0.030  14.999  0.5516 -0.8396  1.4390
 2228TIP3   OH228174   1.412   5.810  13.092 -0.5593 -0.2794  0.2154
 2228TIP3    H128175   1.368   5.888  13.058  0.9692  0.1548 -0.8803
 2228TIP3    H228176   1.474   5.844  13.156  0.5308 -0.4950 -0.6913
 2229TIP3   OH228177   0.748   3.546  12.007 -0.4402  0.0527 -0.4637
 2229TIP3    H128178   0.719   3.459  11.977  1.6047  0.0441 -2.7253
 2229TIP3    H228179   0.752   3.599  11.928 -0.4040  1.8813  0.6973
 2230TIP3   OH228180   5.630   2.212  17.118  0.1677  0.1372  0.3040
 2230TIP3    H128181   5.542   2.249  17.133 -0.6566 -1.8040  0.5050
 2230TIP3    H228182   5.660   2.255  17.038 -2.3636 -1.4960 -1.7053
 2231TIP3   OH228183   4.868   4.640   4.301 -0.9438 -0.1981  0.5850
 2231TIP3    H128184   4.819   4.673   4.226 -0.0898 -1.4015 -0.5532
 2231TIP3    H228185   4.802   4.597   4.356 -1.2962 -1.2594 -0.6188
 2232TIP3   OH228186   6.472   2.439   3.198  0.0956  0.1197 -0.8666
 2232TIP3    H128187   6.506   2.465   3.112 -1.3255  1.5511 -1.0349
 2232TIP3    H228188   6.533   2.372   3.228  0.0198 -1.2947 -3.4961
 2233TIP3   OH228189   3.375   1.350  16.674 -0.0772  0.0847  0.3360
 2233TIP3    H128190   3.394   1.316  16.587 -1.2179  0.8517 -0.2373
 2233TIP3    H228191   3.331   1.278  16.719  1.9163 -0.8683  0.8623
 2234TIP3   OH228192   1.772   4.409   6.049  0.2302 -0.3088  0.3109
 2234TIP3    H128193   1.788   4.380   5.959 -1.0020 -0.3088  0.0669
 2234TIP3    H228194   1.701   4.472   6.041 -1.2410 -1.7184  1.4532
 2235TIP3   OH228195   3.270   6.063  13.017  0.1139 -0.0388 -0.3502
 2235TIP3    H128196   3.270   6.001  13.090  1.7523  0.5912  0.2221
 2235TIP3    H228197   3.248   6.147  13.056  0.7847  0.2609 -0.5880
 2236TIP3   OH228198   5.214   4.937  11.212  0.3989 -0.0199  0.7696
 2236TIP3    H128199   5.153   4.939  11.139 -0.9050 -1.3216  1.7831
 2236TIP3    H228200   5.281   4.874  11.187  0.5843  0.3762  0.2490
 2237TIP3   OH228201   6.131   5.001   6.145  0.2648 -0.0241 -0.1265
 2237TIP3    H128202   6.227   5.006   6.138  0.4077 -1.2642  0.5821
 2237TIP3    H228203   6.109   5.060   6.217  0.4951  0.2441 -0.2741
 2238TIP3   OH228204   2.346   0.369  15.176 -0.7278  0.1150  0.4453
 2238TIP3    H128205   2.251   0.375  15.185 -0.7079  0.9523  0.1597
 2238TIP3    H228206   2.377   0.458  15.187 -0.0143 -0.0795  0.0702
 2239TIP3   OH228207   6.784   5.870  11.375 -0.0313 -0.5115 -0.0059
 2239TIP3    H128208   6.701   5.893  11.418 -0.9737  1.2346 -2.5272
 2239TIP3    H228209   6.761   5.858  11.283  2.2577 -1.7717 -0.4934
 2240TIP3   OH228210   4.207   4.289   5.332 -0.1763 -1.0872 -0.3456
 2240TIP3    H128211   4.155   4.365   5.307  1.1374  0.1451  0.5040
 2240TIP3    H228212   4.169   4.261   5.416 -0.3352 -1.0460 -0.4034
 2241TIP3   OH228213   0.432   5.537   2.837  0.6327 -0.1110  0.5664
 2241TIP3    H128214   0.407   5.469   2.900  2.2515 -1.3119 -0.0186
 2241TIP3    H228215   0.379   5.519   2.760  1.6764 -1.3000  0.0983
 2242TIP3   OH228216   0.665   2.433  13.507  0.1333 -1.0790 -0.1535
 2242TIP3    H128217   0.685   2.512  13.557  1.3072  0.8123 -3.3095
 2242TIP3    H228218   0.571   2.420  13.519 -0.5243  2.0235 -1.0376
 2243TIP3   OH228219   2.075   1.736   5.749 -0.2671 -0.5034 -0.3507
 2243TIP3    H128220   1.999   1.727   5.692  0.0984 -2.4443 -0.5751
 2243TIP3    H228221   2.142   1.682   5.708  1.8400  2.3717 -1.0514
 2244TIP3   OH228222   1.630   0.415   5.382  0.1552 -0.0477  0.4368
 2244TIP3    H128223   1.690   0.357   5.428  2.3379 -0.2106 -2.3004
 2244TIP3    H228224   1.669   0.502   5.391  0.5172 -0.0542 -0.7810
 2245TIP3   OH228225   4.017   0.356  16.394 -0.4058 -0.0161  0.0594
 2245TIP3    H128226   4.085   0.290  16.389  0.9742  1.1918  1.4838
 2245TIP3    H228227   3.994   0.376  16.303 -1.0440 -2.5482 -0.3948
 2246TIP3   OH228228   0.129   4.281  14.727 -0.4945 -0.0818 -0.7829
 2246TIP3    H128229   0.169   4.250  14.809 -1.8260 -1.5822 -0.6515
 2246TIP3    H228230   0.178   4.360  14.705  0.6666 -0.2949  0.8402
 2247TIP3   OH228231   5.623   4.137  13.913 -0.4706  0.2197  0.0327
 2247TIP3    H128232   5.594   4.144  13.822  0.8170  1.5918 -0.3116
 2247TIP3    H228233   5.687   4.066  13.913  1.7711  2.1220 -0.8202
 2248TIP3   OH228234   5.987   1.160   4.859 -0.3393  0.1056 -0.2508
 2248TIP3    H128235   6.020   1.088   4.805 -0.0916  0.9907 -1.2945
 2248TIP3    H228236   6.025   1.144   4.945  0.4761 -0.4861 -0.7040
 2249TIP3   OH228237   3.694   6.631   3.991  0.3985  0.1189 -0.1802
 2249TIP3    H128238   3.752   6.701   3.959 -1.1851  2.1969  1.1828
 2249TIP3    H228239   3.608   6.654   3.955 -0.3308 -0.5741  1.0644
 2250TIP3   OH228240   5.226   5.224   5.131 -0.0204 -0.4043 -0.0459
 2250TIP3    H128241   5.213   5.202   5.039 -1.8885 -1.7959  0.5030
 2250TIP3    H228242   5.319   5.245   5.138  0.0337  0.3654 -2.3511
 2251TIP3   OH228243   4.614   3.483   6.771  0.5150  0.5231  0.1502
 2251TIP3    H128244   4.537   3.467   6.826 -1.0736  0.2926 -2.0118
 2251TIP3    H228245   4.684   3.432   6.811 -0.7452 -0.1844  1.5361
 2252TIP3   OH228246   6.277   6.335   6.444 -0.0844 -0.2116  0.1579
 2252TIP3    H128247   6.345   6.301   6.503  1.1953  1.1970 -0.4110
 2252TIP3    H228248   6.230   6.258   6.414  1.4442 -1.2936  0.4011
 2253TIP3   OH228249   3.713   0.844  13.612  0.0165  0.3506  0.7044
 2253TIP3    H128250   3.767   0.918  13.585 -2.1140  2.2291  1.2230
 2253TIP3    H228251   3.688   0.801  13.531  1.0587  0.3787  0.3653
 2254TIP3   OH228252   4.324   6.305   4.482  0.2013 -0.3228  0.2055
 2254TIP3    H128253   4.288   6.389   4.451 -0.6289 -1.7044 -3.0681
 2254TIP3    H228254   4.268   6.280   4.555 -2.1446  0.1756 -1.3097
 2255TIP3   OH228255   3.508   5.395  16.876 -0.0852  0.4060 -0.0166
 2255TIP3    H128256   3.562   5.319  16.895 -0.0817 -0.1921 -2.2269
 2255TIP3    H228257   3.519   5.452  16.952  1.0052 -1.1664  1.0494
 2256TIP3   OH228258   0.694   6.418  11.735 -0.1402 -0.5042  0.7371
 2256TIP3    H128259   0.772   6.362  11.745  0.8724  1.0387  1.9812
 2256TIP3    H228260   0.708   6.463  11.652 -0.0329 -0.7214  0.6355
 2257TIP3   OH228261   2.183   6.144   1.450 -0.5745 -0.2277 -0.2906
 2257TIP3    H128262   2.270   6.182   1.441 -0.6331 -0.0273  0.0149
 2257TIP3    H228263   2.126   6.203   1.401 -0.2203 -1.5336 -2.4232
 2258TIP3   OH228264   5.501   0.391  12.489 -0.8033 -0.0460  0.2786
 2258TIP3    H128265   5.558   0.463  12.518  0.0684 -0.5711 -0.0738
 2258TIP3    H228266   5.552   0.312  12.508 -1.8331 -0.5880  0.8568
 2259TIP3   OH228267   0.219   5.551   6.555 -0.1666  0.4737 -0.1812
 2259TIP3    H128268   0.140   5.499   6.564 -0.2277  0.8094  1.6229
 2259TIP3    H228269   0.189   5.642   6.560  0.2273  0.6251 -0.4940
 2260TIP3   OH228270   4.980   0.771  13.435 -0.3186 -0.2160  0.0160
 2260TIP3    H128271   4.975   0.848  13.493  2.5998  0.3661 -0.3386
 2260TIP3    H228272   4.890   0.759  13.403 -1.3716  1.4385  2.0938
 2261TIP3   OH228273   5.075   4.675   5.908 -0.1463 -0.2011 -0.2804
 2261TIP3    H128274   5.024   4.719   5.840 -2.6940 -0.4377  1.3160
 2261TIP3    H228275   5.082   4.740   5.979  0.6138 -0.6388  0.0544
 2262TIP3   OH228276   5.109   3.670   1.913 -0.3599 -0.4668 -0.1854
 2262TIP3    H128277   5.142   3.756   1.938 -0.2886 -0.5175 -0.1041
 2262TIP3    H228278   5.112   3.670   1.817 -1.0656 -0.1061 -0.2109
 2263TIP3   OH228279   1.949   6.722  11.816  0.1452 -0.4339 -0.3767
 2263TIP3    H128280   1.935   6.714  11.722 -3.0427 -1.1613  0.0367
 2263TIP3    H228281   1.898   6.798  11.842  0.9619 -0.2534  0.8013
 2264TIP3   OH228282   3.914   5.754   0.764  0.1273 -0.3816  0.6021
 2264TIP3    H128283   3.871   5.670   0.751 -1.1678 -0.0339  2.1922
 2264TIP3    H228284   3.843   5.818   0.756  0.8806  0.4713  0.5447
 2265TIP3   OH228285   1.020   4.576  14.539 -0.3557 -0.0676  0.0062
 2265TIP3    H128286   0.935   4.618  14.525  0.0996  1.0961  0.5420
 2265TIP3    H228287   1.083   4.638  14.501  0.3396 -0.2731  0.7837
 2266TIP3   OH228288   5.534   5.000  11.804  0.3072 -0.4629  0.1707
 2266TIP3    H128289   5.561   4.908  11.810 -1.5221 -1.0357  0.0777
 2266TIP3    H228290   5.476   5.003  11.728  1.6298  1.1388 -0.8459
 2267TIP3   OH228291   6.650   0.858  14.626  0.3966  0.4897  0.1400
 2267TIP3    H128292   6.733   0.810  14.633 -0.3054 -1.0065 -1.3696
 2267TIP3    H228293   6.583   0.790  14.619 -1.0944  1.6462  2.1160
 2268TIP3   OH228294   1.512   3.649  12.290  0.2853 -0.1704  0.0580
 2268TIP3    H128295   1.530   3.555  12.278  1.5182 -0.3593  2.7368
 2268TIP3    H228296   1.418   3.652  12.310 -0.2342 -0.5269 -1.9942
 2269TIP3   OH228297   2.270   5.357  12.802 -0.8638 -0.1776 -0.1161
 2269TIP3    H128298   2.297   5.448  12.796 -3.4984  0.8858  2.0656
 2269TIP3    H228299   2.314   5.314  12.729  0.1854  2.8747 -1.4402
 2270TIP3   OH228300   4.632   4.173   3.388 -0.5300  0.3305 -0.0051
 2270TIP3    H128301   4.716   4.219   3.392  0.0971 -0.8097  0.7866
 2270TIP3    H228302   4.642   4.110   3.317 -0.6620  0.1218  0.1571
 2271TIP3   OH228303   5.162   4.859   6.120  0.1124 -0.2395  0.1150
 2271TIP3    H128304   5.237   4.801   6.124  1.7031  1.6443 -0.5107
 2271TIP3    H228305   5.146   4.885   6.211 -0.2474 -1.1886  0.3278
 2272TIP3   OH228306   2.620   1.202  10.781 -0.0815 -0.0203  0.5285
 2272TIP3    H128307   2.584   1.120  10.816  0.8554 -0.7110 -0.0901
 2272TIP3    H228308   2.681   1.174  10.713  0.5282  1.1809  0.5630
 2273TIP3   OH228309   0.884   3.398   2.202 -0.3190  0.7393 -0.5631
 2273TIP3    H128310   0.816   3.400   2.135 -1.4310  0.7809  0.5383
 2273TIP3    H228311   0.901   3.490   2.222 -1.2918  0.7116  0.4744
 2274TIP3   OH228312   4.528   4.404  15.855 -0.0361 -0.0681  0.3451
 2274TIP3    H128313   4.473   4.407  15.777  1.5601  0.5349 -0.8184
 2274TIP3    H228314   4.533   4.495  15.884  0.4230 -0.1020  0.3780
 2275TIP3   OH228315   4.981   5.965  11.218 -0.0826 -0.2902 -0.2462
 2275TIP3    H128316   4.933   5.889  11.183 -1.0282  0.5558 -0.8422
 2275TIP3    H228317   4.913   6.018  11.260  0.6015  0.1572  0.3140
 2276TIP3   OH228318   3.132   3.536   3.732  0.0465  0.4804  0.1736
 2276TIP3    H128319   3.154   3.628   3.746 -2.5191  1.2552 -0.3825
 2276TIP3    H228320   3.183   3.489   3.798  1.7805  2.2149  0.1647
 2277TIP3   OH228321   4.981   2.593  13.137 -0.4633 -0.0633  0.2324
 2277TIP3    H128322   4.979   2.606  13.232  0.0985 -0.9380  0.3754
 2277TIP3    H228323   4.993   2.681  13.101  0.0164  0.1924  0.9998
 2278TIP3   OH228324   4.795   1.783  16.391 -0.7895 -0.5142 -0.2565
 2278TIP3    H128325   4.760   1.739  16.468 -0.5427 -1.4152 -0.6505
 2278TIP3    H228326   4.871   1.831  16.423 -1.4489  0.1833  0.3028
 2279TIP3   OH228327   5.805   2.861   2.977 -0.3131  0.2888 -0.0346
 2279TIP3    H128328   5.770   2.773   2.992  2.8390 -1.0908  0.2069
 2279TIP3    H228329   5.766   2.915   3.045 -3.2326 -0.5830 -0.8887
 2280TIP3   OH228330   4.840   6.046   1.377  0.3256 -0.1819 -0.2837
 2280TIP3    H128331   4.814   5.968   1.329 -0.7436  1.0233 -1.7830
 2280TIP3    H228332   4.891   6.097   1.314 -0.7480  1.2459 -0.0430
 2281TIP3   OH228333   1.931   1.987   0.080  0.3605 -0.2109 -0.1979
 2281TIP3    H128334   1.959   1.921   0.144  0.2416 -1.1701 -1.1003
 2281TIP3    H228335   1.933   1.941  -0.004  1.6505  1.3227 -1.0741
 2282TIP3   OH228336   0.869   1.310  15.395  0.2101 -0.0396 -0.1443
 2282TIP3    H128337   0.795   1.250  15.390 -0.2018  0.4283  0.1737
 2282TIP3    H228338   0.858   1.354  15.479  0.4461  0.5504 -0.4154
 2283TIP3   OH228339   1.151   2.707   2.727 -0.0696 -0.1321  0.1112
 2283TIP3    H128340   1.197   2.723   2.645 -2.0303  1.7958 -0.7060
 2283TIP3    H228341   1.088   2.779   2.734 -1.5705 -1.5197  2.1405
 2284TIP3   OH228342   6.572   6.603   0.775  0.3926  0.2144  0.2228
 2284TIP3    H128343   6.609   6.683   0.812  1.2182 -0.3652  0.6716
 2284TIP3    H228344   6.533   6.557   0.849 -0.2902  0.2929 -0.0705
 2285TIP3   OH228345   2.377   5.689  16.300  0.4958 -0.2079  1.4066
 2285TIP3    H128346   2.420   5.773  16.314 -0.7635  0.5412  0.9564
 2285TIP3    H228347   2.309   5.685  16.367 -1.0163  0.2523 -0.0368
 2286TIP3   OH228348   4.508   2.299   2.273 -0.4441 -0.3900  0.2819
 2286TIP3    H128349   4.467   2.373   2.227  2.6753  1.2642 -0.1307
 2286TIP3    H228350   4.510   2.229   2.208 -1.3161 -0.0601 -0.1248
 2287TIP3   OH228351   3.484   5.225  16.583 -0.1777 -0.1668 -0.6387
 2287TIP3    H128352   3.554   5.290  16.582  0.8690 -1.2604 -0.6721
 2287TIP3    H228353   3.423   5.254  16.516 -0.9194  1.9994  0.8778
 2288TIP3   OH228354   5.054   0.858  12.400 -0.1554  0.2794  0.6587
 2288TIP3    H128355   5.027   0.919  12.468  1.0065  0.7587  0.7213
 2288TIP3    H228356   5.075   0.913  12.324  1.0640  0.0112  0.7694
 2289TIP3   OH228357   0.160   5.627   2.167  0.6900  0.3181 -0.4734
 2289TIP3    H128358   0.207   5.644   2.085  1.2607  0.5236 -0.1127
 2289TIP3    H228359   0.114   5.545   2.152 -0.4909  1.1451 -1.5481
 2290TIP3   OH228360   3.537   3.103  13.757  0.0481 -0.2739 -0.1620
 2290TIP3    H128361   3.585   3.163  13.700  0.0404  1.0905  1.2034
 2290TIP3    H228362   3.595   3.028  13.768  1.0576  0.5031 -0.0799
 2291TIP3   OH228363   2.803   2.012   3.070  0.1715  0.3226 -0.3311
 2291TIP3    H128364   2.890   2.052   3.070  0.3718 -0.1014 -0.9749
 2291TIP3    H228365   2.820   1.918   3.062 -0.3566  0.2717 -0.9443
 2292TIP3   OH228366   3.879   0.410  15.583 -0.6231 -0.4147  0.0222
 2292TIP3    H128367   3.877   0.494  15.538  2.2398  0.4198  1.2138
 2292TIP3    H228368   3.807   0.414  15.646 -0.4029  1.2526  0.2123
 2293TIP3   OH228369   6.702   2.139   4.890  0.0061  0.0104 -0.0181
 2293TIP3    H128370   6.616   2.146   4.931 -0.0270 -1.2288  0.1676
 2293TIP3    H228371   6.763   2.174   4.956 -0.1602 -0.9488  0.6645
 2294TIP3   OH228372   3.344   3.034  13.136  0.2359 -0.1754  0.4110
 2294TIP3    H128373   3.409   2.968  13.159  2.2285  1.4299 -0.2835
 2294TIP3    H228374   3.388   3.117  13.153 -2.7218  1.0818  2.8620
 2295TIP3   OH228375   5.986   0.053  11.877  0.0675 -0.4313  0.1517
 2295TIP3    H128376   5.921   0.048  11.807  2.6364 -1.8194 -2.3065
 2295TIP3    H228377   5.936   0.035  11.957 -3.0143  1.3037 -1.2076
 2296TIP3   OH228378   1.678   5.130  12.809 -0.9308  0.4822  0.8105
 2296TIP3    H128379   1.693   5.222  12.831 -0.0901  0.5609 -0.0150
 2296TIP3    H228380   1.766   5.094  12.795 -1.2712 -0.3537  0.7653
 2297TIP3   OH228381   6.800   3.295   4.231 -0.2451 -0.0493 -0.0233
 2297TIP3    H128382   6.879   3.241   4.226 -0.4781 -0.4934  0.8786
 2297TIP3    H228383   6.732   3.239   4.194 -0.3418 -0.0784  0.1993
 2298TIP3   OH228384   2.106   2.151  13.167 -0.2636 -0.1311 -0.1007
 2298TIP3    H128385   2.077   2.234  13.204  0.2223 -0.5036  1.1946
 2298TIP3    H228386   2.147   2.106  13.241 -0.4201 -1.4715 -0.8085
 2299TIP3   OH228387   6.533   6.734  14.808 -0.1073 -0.1744  0.7776
 2299TIP3    H128388   6.618   6.691  14.803 -0.2676 -0.6391  1.7729
 2299TIP3    H228389   6.553   6.827  14.799  0.3751 -0.3533 -0.1329
 2300TIP3   OH228390   4.197   0.985  16.183 -0.3466 -0.1670 -0.2642
 2300TIP3    H128391   4.265   0.959  16.246 -0.1329  0.1111 -0.3770
 2300TIP3    H228392   4.244   0.999  16.101  0.0373  3.0519  0.3381
 2301TIP3   OH228393   6.702   5.916  11.110 -0.3009  0.0634 -0.3502
 2301TIP3    H128394   6.726   5.903  11.018  0.8177  1.8925 -0.3803
 2301TIP3    H228395   6.614   5.952  11.106 -0.7652 -1.0699 -0.6147
 2302TIP3   OH228396   5.822   5.208  11.897  0.0463 -0.2235 -0.4100
 2302TIP3    H128397   5.808   5.188  11.804  0.1422 -0.8341 -0.2978
 2302TIP3    H228398   5.910   5.176  11.916 -0.2662 -0.8296  0.0791
 2303TIP3   OH228399   1.453   6.291  12.171  0.2131 -0.1844 -0.0383
 2303TIP3    H128400   1.485   6.369  12.126 -0.2622  0.6833  1.0900
 2303TIP3    H228401   1.530   6.235  12.179  1.0043  0.9825  0.8043
 2304TIP3   OH228402   1.724   3.685   2.890  0.0888 -0.3014 -0.6503
 2304TIP3    H128403   1.731   3.701   2.796  2.3941 -1.1096 -0.6916
 2304TIP3    H228404   1.630   3.684   2.907 -0.4357 -1.0344 -3.1154
 2305TIP3   OH228405   1.675   2.064  10.757  0.7924  0.0899  0.0533
 2305TIP3    H128406   1.658   1.986  10.810 -1.1678  0.3938 -0.0567
 2305TIP3    H228407   1.716   2.030  10.677  2.0732 -0.5607  0.9489
 2306TIP3   OH228408   0.499   0.028  11.055 -0.1289  0.3625  0.3495
 2306TIP3    H128409   0.457   0.038  10.969  0.9320 -0.4713 -0.2836
 2306TIP3    H228410   0.439  -0.028  11.104  0.5272 -1.3826 -0.7765
 2307TIP3   OH228411   3.428   2.771   0.061  1.2075  0.0033  0.5039
 2307TIP3    H128412   3.486   2.833   0.105  0.1170  1.0524  0.5300
 2307TIP3    H228413   3.444   2.786  -0.032  1.6514 -0.3845  0.5140
 2308TIP3   OH228414   0.056   3.274  12.937 -0.3516 -0.3721  0.2750
 2308TIP3    H128415   0.088   3.261  12.848 -1.2890  0.6367 -0.2278
 2308TIP3    H228416   0.073   3.191  12.981 -1.1784 -1.4079 -1.2564
 2309TIP3   OH228417   3.921   3.906  16.447  0.0115 -0.0918 -0.3296
 2309TIP3    H128418   3.857   3.977  16.439 -0.2335 -0.5340 -3.0583
 2309TIP3    H228419   3.872   3.826  16.428  1.0114 -0.6072 -0.8243
 2310TIP3   OH228420   6.535   5.781   0.757 -0.5020  0.0857 -0.4111
 2310TIP3    H128421   6.489   5.837   0.695  0.6223 -0.8099 -2.1100
 2310TIP3    H228422   6.544   5.697   0.713  1.6188 -0.1507  0.3631
 2311TIP3   OH228423   1.251   6.321  15.508  0.3604  0.1266  0.2001
 2311TIP3    H128424   1.255   6.323  15.604  1.0743 -0.3874  0.1897
 2311TIP3    H228425   1.200   6.399  15.485 -1.7332 -0.8733  1.0873
 2312TIP3   OH228426   1.962   4.965   1.983 -0.5065 -0.1112  0.1297
 2312TIP3    H128427   1.958   4.950   1.888  0.7638 -0.9107  0.1708
 2312TIP3    H228428   1.970   5.059   1.992  0.3433 -0.0934 -0.6189
 2313TIP3   OH228429   0.155   3.292   5.650 -0.4741  0.3377 -0.1309
 2313TIP3    H128430   0.194   3.221   5.701 -1.0178 -0.6357 -1.0115
 2313TIP3    H228431   0.101   3.340   5.713 -1.2779 -0.9462  0.1949
 2314TIP3   OH228432   5.966   6.528  17.212  0.1829 -0.0660 -0.8191
 2314TIP3    H128433   6.029   6.473  17.165 -0.0833 -0.6042 -0.5589
 2314TIP3    H228434   6.017   6.571  17.281 -0.0275 -1.8125  0.4874
 2315TIP3   OH228435   6.025   6.314   0.724  0.0006 -0.0942  0.0493
 2315TIP3    H128436   6.032   6.361   0.641  2.3715  0.6460  0.6151
 2315TIP3    H228437   5.937   6.277   0.722 -0.7115  1.4943 -1.9397
 2316TIP3   OH228438   2.512   4.653  16.064 -0.6108 -0.1080  0.5313
 2316TIP3    H128439   2.499   4.736  16.019 -1.0308 -0.2178  0.4457
 2316TIP3    H228440   2.576   4.673  16.132  0.7488 -0.1620 -0.6917
 2317TIP3   OH228441   1.942   0.179   1.107 -0.4067  0.3671 -0.3660
 2317TIP3    H128442   1.920   0.262   1.151 -2.6300  0.0183 -0.7151
 2317TIP3    H228443   1.864   0.157   1.056  1.0078 -0.7544 -2.1895
 2318TIP3   OH228444   5.144   1.655   1.098  0.2339  0.0733 -0.3738
 2318TIP3    H128445   5.067   1.686   1.051 -0.3924 -1.7349 -0.6198
 2318TIP3    H228446   5.162   1.569   1.060  1.8401  0.0887  0.2966
 2319TIP3   OH228447   5.714   1.647   2.886  0.4343 -0.1090 -0.4862
 2319TIP3    H128448   5.696   1.569   2.833 -0.7741  0.8354 -1.5681
 2319TIP3    H228449   5.631   1.665   2.930  0.5965  0.7596 -0.5261
 2320TIP3   OH228450   1.802   4.328  14.901 -0.0603  0.9131 -0.0811
 2320TIP3    H128451   1.754   4.410  14.887  0.1352  0.7633 -1.8704
 2320TIP3    H228452   1.890   4.346  14.866  0.1980  0.1490  0.1486
 2321TIP3   OH228453   2.727   2.879  12.682 -0.7244  0.5174 -0.3713
 2321TIP3    H128454   2.736   2.797  12.731  1.6046  0.6885 -0.3947
 2321TIP3    H228455   2.663   2.930  12.731  0.3755  0.0496  1.6601
 2322TIP3   OH228456   1.376   3.902  16.133 -0.3952 -0.7960 -0.2714
 2322TIP3    H128457   1.449   3.860  16.089 -1.1544  0.4605 -2.9349
 2322TIP3    H228458   1.307   3.835  16.136  0.8183 -2.0801  2.5181
 2323TIP3   OH228459   4.891   3.961  16.438  0.1136 -0.0976 -0.1952
 2323TIP3    H128460   4.955   3.991  16.503  0.6477 -1.0548 -0.2691
 2323TIP3    H228461   4.812   4.011  16.458  0.7697  0.8533  0.1164
 2324TIP3   OH228462   3.916   1.829  15.051  0.4116  0.3458  0.2757
 2324TIP3    H128463   3.952   1.746  15.019 -1.5649  0.2085 -1.8988
 2324TIP3    H228464   3.888   1.809  15.141 -2.4724 -2.3416 -0.9922
 2325TIP3   OH228465   2.124   0.224   5.011  0.2780 -0.0536  0.0176
 2325TIP3    H128466   2.140   0.263   5.097  0.7337  0.3602 -0.2504
 2325TIP3    H228467   2.101   0.133   5.030 -0.9530  0.3622  0.6650
 2326TIP3   OH228468   5.701   2.391  12.958  0.2403 -0.7688 -0.1354
 2326TIP3    H128469   5.685   2.468  13.013  0.6062 -0.7946  0.0102
 2326TIP3    H228470   5.622   2.384  12.904  0.3491 -0.0802 -0.4015
 2327TIP3   OH228471   4.818   1.269  15.094 -0.3555  0.0915 -0.2416
 2327TIP3    H128472   4.883   1.200  15.108  1.0728  1.0143 -2.0094
 2327TIP3    H228473   4.784   1.253  15.006  0.5429  2.0414 -0.9897
 2328TIP3   OH228474   1.992   4.605  15.794  0.4946 -0.3871 -0.7383
 2328TIP3    H128475   2.028   4.528  15.837 -3.8692 -2.5408 -0.3893
 2328TIP3    H228476   1.963   4.573  15.708 -1.8561  0.6376 -0.4005
 2329TIP3   OH228477   0.429   5.692  16.828  0.1465 -0.0216 -0.4647
 2329TIP3    H128478   0.495   5.754  16.796  1.2947 -1.0675 -0.2021
 2329TIP3    H228479   0.460   5.607  16.799 -2.7287 -0.3421 -3.0449
 2330TIP3   OH228480   3.870   4.386  14.903 -0.4761 -0.0785  0.1172
 2330TIP3    H128481   3.786   4.343  14.889  0.3384 -1.3513 -1.1229
 2330TIP3    H228482   3.886   4.434  14.821  0.6170 -0.9771 -0.2157
 2331TIP3   OH228483   3.333   1.232  13.038  0.2218 -0.1901 -0.3266
 2331TIP3    H128484   3.320   1.250  13.131  2.1731 -1.5036  0.2662
 2331TIP3    H228485   3.245   1.218  13.003 -0.4311 -3.0927  2.0833
 2332TIP3   OH228486   4.366   3.783  13.484 -0.2845 -0.2370 -0.0630
 2332TIP3    H128487   4.293   3.842  13.465 -1.5479 -1.5243  0.6326
 2332TIP3    H228488   4.423   3.789  13.407 -0.9298  1.0550 -0.4584
 2333TIP3   OH228489   3.641   5.394   0.207 -0.3253 -0.4217 -0.8191
 2333TIP3    H128490   3.693   5.321   0.174 -0.9346 -0.8514 -0.8559
 2333TIP3    H228491   3.559   5.353   0.237 -0.1042  0.0448  0.5153
 2334TIP3   OH228492   1.842   4.394  13.145  0.4098 -0.0721 -0.1255
 2334TIP3    H128493   1.794   4.461  13.192  1.1536 -1.1942  2.4211
 2334TIP3    H228494   1.782   4.320  13.141  1.5305 -1.2691  2.5339
 2335TIP3   OH228495   1.232   5.879  14.508 -0.0720 -0.4287  0.2198
 2335TIP3    H128496   1.306   5.903  14.453  0.3409 -0.4488  0.7603
 2335TIP3    H228497   1.223   5.952  14.570  1.0594 -1.5178  1.7368
 2336TIP3   OH228498   6.160   1.350  12.989  0.3759 -0.0056 -0.2398
 2336TIP3    H128499   6.082   1.303  13.018  0.0847  0.6434  0.0499
 2336TIP3    H228500   6.135   1.387  12.904  0.4475  0.0099 -0.2541
 2337TIP3   OH228501   3.023   3.353   0.206  0.2707  0.1838  0.1599
 2337TIP3    H128502   2.984   3.273   0.172  1.8014 -0.8840  0.7766
 2337TIP3    H228503   2.949   3.404   0.240 -0.7482 -0.8588 -0.4215
 2338TIP3   OH228504   3.627   0.221  14.135 -0.9527  0.6182 -0.3368
 2338TIP3    H128505   3.574   0.301  14.129 -1.7117  0.0671 -1.2909
 2338TIP3    H228506   3.581   0.158  14.080 -0.9256 -0.7910  1.1868
 2339TIP3   OH228507   6.573   1.379  14.957  0.4119  0.1323  0.1516
 2339TIP3    H128508   6.487   1.373  14.997  0.7515 -2.1629  0.6612
 2339TIP3    H228509   6.602   1.469  14.976 -1.5820  0.7465  0.4830
 2340TIP3   OH228510   0.006   1.164  10.878 -0.0011  0.1500  0.1235
 2340TIP3    H128511  -0.024   1.242  10.925 -1.0014 -0.0531 -0.1684
 2340TIP3    H228512  -0.006   1.185  10.785 -0.2638 -0.3457  0.0406
 2341TIP3   OH228513   5.019   4.009   1.390  0.1085  0.0529 -0.0271
 2341TIP3    H128514   4.928   4.034   1.409  0.0629 -0.7541  0.8725
 2341TIP3    H228515   5.023   4.003   1.295 -0.9204 -0.3992 -0.0511
 2342TIP3   OH228516   4.522   1.059  15.540 -0.4493 -0.1042  0.3689
 2342TIP3    H128517   4.541   1.087  15.630 -0.9557  0.5162  0.2873
 2342TIP3    H228518   4.559   1.128  15.485 -0.7459 -0.1353  0.1263
 2343TIP3   OH228519   6.406   4.990   6.147  0.0963 -0.3992 -0.2436
 2343TIP3    H128520   6.453   5.040   6.214  1.0640  0.2690 -1.3970
 2343TIP3    H228521   6.447   4.904   6.148  0.7234 -0.1089 -0.5927
 2344TIP3   OH228522   0.591   4.968   1.857  0.2634  0.1243 -0.4268
 2344TIP3    H128523   0.576   4.881   1.894  2.4156 -1.0826 -2.1613
 2344TIP3    H228524   0.630   5.018   1.929  0.8913 -0.9947  0.0408
 2345TIP3   OH228525   5.694   6.723  16.261  0.6442  0.0504 -0.5600
 2345TIP3    H128526   5.751   6.745  16.187 -0.0661  0.9611 -0.8672
 2345TIP3    H228527   5.752   6.718  16.336  1.1789  0.5965 -0.9231
 2346TIP3   OH228528   5.474   1.193  16.281 -0.2124 -0.1888  0.4883
 2346TIP3    H128529   5.416   1.123  16.252  0.2643 -0.5206  0.3296
 2346TIP3    H228530   5.561   1.154  16.281 -0.0963  0.0394  1.5962
 2347TIP3   OH228531   5.733   1.997  13.301 -0.0072 -0.2088  0.1847
 2347TIP3    H128532   5.711   2.088  13.284 -1.1344 -0.3470  0.8199
 2347TIP3    H228533   5.649   1.954  13.316  0.3675 -1.6805 -1.5705
 2348TIP3   OH228534   3.302   3.884   1.273  0.5983  0.0871 -0.0419
 2348TIP3    H128535   3.368   3.843   1.216 -0.6034 -0.3019 -1.1917
 2348TIP3    H228536   3.344   3.888   1.359  2.3286  0.3567 -0.8560
 2349TIP3   OH228537   5.958   6.251  16.033  0.1535  0.0562  0.7003
 2349TIP3    H128538   6.026   6.201  16.077  0.4455  0.7030  1.0033
 2349TIP3    H228539   6.005   6.300  15.965 -0.1638 -0.2707  0.2396
 2350TIP3   OH228540   2.289   6.466   0.678  0.4515 -0.5568  0.0365
 2350TIP3    H128541   2.200   6.479   0.710  0.6152 -1.8168  1.1043
 2350TIP3    H228542   2.345   6.479   0.755  1.2225  0.4381 -0.6632
 2351TIP3   OH228543   1.726   4.558  12.497 -0.2138 -0.0840  0.2322
 2351TIP3    H128544   1.784   4.569  12.572  1.7306 -0.9783 -1.0522
 2351TIP3    H228545   1.766   4.610  12.428  0.2094 -2.2325 -1.2402
 2352TIP3   OH228546   0.200   3.429  14.606 -0.3549 -0.1088  0.0616
 2352TIP3    H128547   0.109   3.458  14.601  0.2792  2.1339  0.2791
 2352TIP3    H228548   0.241   3.464  14.527  0.6040  0.1563  0.6478
 2353TIP3   OH228549   5.078   5.693   0.066 -0.3772  0.4531  0.1035
 2353TIP3    H128550   5.126   5.733   0.138 -0.1268  1.5890 -0.6606
 2353TIP3    H228551   5.035   5.766   0.022 -1.8074 -0.3990  0.0207
 2354TIP3   OH228552   1.375   1.485  16.936 -0.0224 -0.3080  0.4248
 2354TIP3    H128553   1.285   1.492  16.904  0.0022  1.5216  0.6996
 2354TIP3    H228554   1.406   1.575  16.942  2.4360 -0.9348 -1.3604
 2355TIP3   OH228555   4.290   5.702   3.500  0.0807 -0.2657  0.1869
 2355TIP3    H128556   4.203   5.671   3.526 -1.2723  0.8366 -2.6633
 2355TIP3    H228557   4.310   5.655   3.419  1.4178  0.6887 -0.0827
 2356TIP3   OH228558   2.009   3.452   2.884  0.2054 -0.2331  0.0496
 2356TIP3    H128559   1.969   3.528   2.925 -0.0757 -0.3241 -0.0545
 2356TIP3    H228560   2.089   3.437   2.934 -0.9329 -1.3471  1.6707
 2357TIP3   OH228561   2.000   5.990  15.474  0.3962 -0.2690  0.1967
 2357TIP3    H128562   1.999   5.987  15.378 -0.8448 -0.2006  0.1951
 2357TIP3    H228563   1.918   5.948  15.501 -0.2101  1.4142  1.1651
 2358TIP3   OH228564   6.468   5.426   3.920  0.1948 -0.1722  0.1750
 2358TIP3    H128565   6.437   5.399   3.834  2.2568  1.5319 -1.2048
 2358TIP3    H228566   6.389   5.445   3.970 -1.0318 -0.4704 -1.5877
 2359TIP3   OH228567   4.913   3.664   5.743 -0.2921  0.1874 -0.1838
 2359TIP3    H128568   4.859   3.683   5.820  0.8635 -0.3260  0.7877
 2359TIP3    H228569   4.896   3.737   5.683  0.2753  1.6915  1.3824
 2360TIP3   OH228570   5.058   4.563   3.248  0.7470  0.6786 -0.2879
 2360TIP3    H128571   4.982   4.620   3.235  0.8952  0.9977  0.2124
 2360TIP3    H228572   5.099   4.596   3.328 -0.3266 -1.3600  1.2252
 2361TIP3   OH228573   0.381   4.827   6.441 -0.1113 -0.4305 -0.7015
 2361TIP3    H128574   0.302   4.782   6.467  0.1415 -0.1562  0.5923
 2361TIP3    H228575   0.439   4.822   6.517 -0.1284  2.1797 -0.4347
 2362TIP3   OH228576   1.021   4.490   2.910 -0.5193 -0.2679  0.5645
 2362TIP3    H128577   0.951   4.468   2.972 -0.2208  2.8069  2.2002
 2362TIP3    H228578   0.992   4.571   2.869  0.7167 -0.6103 -1.0942
 2363TIP3   OH228579   6.822   4.139   2.388  0.1141 -0.1049  0.2920
 2363TIP3    H128580   6.854   4.228   2.396  0.0732 -0.0578 -0.0291
 2363TIP3    H228581   6.773   4.138   2.305 -0.7024 -0.1803  0.7672
 2364TIP3   OH228582   4.193   3.572  16.249  0.1439  0.7724  0.7369
 2364TIP3    H128583   4.212   3.665  16.262 -1.3861  1.2411 -0.2093
 2364TIP3    H228584   4.168   3.541  16.335 -0.9187  1.6385  0.7612
 2365TIP3   OH228585   4.376   3.305  12.676 -0.1353  0.4812  0.0057
 2365TIP3    H128586   4.385   3.314  12.581  1.7712  0.4022  0.1498
 2365TIP3    H228587   4.440   3.366  12.713  1.6748 -1.9479  1.1570
 2366TIP3   OH228588   0.266   4.129   3.965  0.2662  0.1236  0.2300
 2366TIP3    H128589   0.202   4.152   4.032  0.0207 -2.5850  1.0684
 2366TIP3    H228590   0.336   4.084   4.013  1.5014  0.6361 -1.0051
 2367TIP3   OH228591   6.528   1.708  12.865 -0.2912 -0.3941  0.1768
 2367TIP3    H128592   6.525   1.684  12.773 -0.0060 -1.6759  0.4801
 2367TIP3    H228593   6.455   1.769  12.876 -0.1387  0.0213 -0.9481
 2368TIP3   OH228594   5.222   5.133   1.087 -0.1223  0.3379 -0.3916
 2368TIP3    H128595   5.241   5.067   1.154 -1.9035  0.0722 -0.1016
 2368TIP3    H228596   5.179   5.084   1.017 -1.3865  1.1443 -0.2155
 2369TIP3   OH228597   1.128   5.699   4.246  0.0266 -0.0253  0.2124
 2369TIP3    H128598   1.100   5.616   4.285  0.4607  0.5243  1.7427
 2369TIP3    H228599   1.208   5.677   4.199  1.1228 -0.1687  2.0768
 2370TIP3   OH228600   5.672   0.144   6.086 -0.2942 -0.2253 -0.0343
 2370TIP3    H128601   5.620   0.215   6.124  0.4782  0.9146 -1.0301
 2370TIP3    H228602   5.760   0.158   6.123  0.1385  0.0738 -1.1467
 2371TIP3   OH228603   6.781   1.822  12.941 -0.3000 -0.2258 -0.3328
 2371TIP3    H128604   6.827   1.786  12.864  0.0701  0.5688 -0.4889
 2371TIP3    H228605   6.691   1.789  12.932  0.2585 -2.0079  0.1061
 2372TIP3   OH228606   3.811   1.618  14.067 -0.2154  0.3867 -0.0416
 2372TIP3    H128607   3.795   1.639  14.159 -0.0315  1.5851 -0.2646
 2372TIP3    H228608   3.905   1.633  14.055 -0.2784  0.4507 -0.4706
 2373TIP3   OH228609   2.321   6.522  11.128 -0.4571  0.2316  0.0494
 2373TIP3    H128610   2.412   6.547  11.139  0.1594 -1.7486 -0.1028
 2373TIP3    H228611   2.288   6.581  11.060 -0.4699  3.5130  2.6252
 2374TIP3   OH228612   6.523   4.199  16.622  0.3257  0.0492 -0.0613
 2374TIP3    H128613   6.479   4.171  16.541 -0.9080  1.1765  0.1748
 2374TIP3    H228614   6.608   4.232  16.593  0.7621 -1.5011 -0.6271
 2375TIP3   OH228615   3.715   5.026   2.754  0.2712 -0.4080  0.5560
 2375TIP3    H128616   3.743   5.041   2.844 -1.4945 -0.8219  1.1941
 2375TIP3    H228617   3.666   5.105   2.730  0.9061 -0.2086 -0.1296
 2376TIP3   OH228618   3.137   1.010   2.504 -0.4877  1.4277  0.4075
 2376TIP3    H128619   3.150   0.937   2.444 -0.5938  2.4731 -0.9507
 2376TIP3    H228620   3.192   0.990   2.579 -0.3802  0.0465 -0.0178
 2377TIP3   OH228621   6.624   2.742   3.826  0.1776 -0.4093  0.1911
 2377TIP3    H128622   6.717   2.758   3.843  0.3391  0.9759 -1.6538
 2377TIP3    H228623   6.619   2.730   3.731 -1.5782 -0.0197  0.2012
 2378TIP3   OH228624   2.504   5.869  11.475 -0.0109 -0.1497 -0.0593
 2378TIP3    H128625   2.563   5.864  11.399  1.0742 -1.2599  0.8100
 2378TIP3    H228626   2.487   5.777  11.496 -0.8427  0.1633  0.6306
 2379TIP3   OH228627   3.295   6.698   5.509  0.4401  0.6628  1.0149
 2379TIP3    H128628   3.228   6.654   5.561  1.1736 -2.0862 -0.1230
 2379TIP3    H228629   3.261   6.786   5.494 -0.9869  0.6973  3.8098
 2380TIP3   OH228630   5.824   5.708  15.766  0.4706 -0.1678  0.6939
 2380TIP3    H128631   5.782   5.622  15.774  0.3447 -0.0824  0.9682
 2380TIP3    H228632   5.877   5.701  15.687  0.7251 -0.6165  0.8948
 2381TIP3   OH228633   5.167   3.382  17.214 -0.1166 -0.6749  0.3878
 2381TIP3    H128634   5.187   3.410  17.304  2.0400 -2.5720  0.5749
 2381TIP3    H228635   5.073   3.398  17.205 -0.5915 -1.2682  3.3169
 2382TIP3   OH228636   5.640   4.350   2.614 -0.4184  0.8214 -0.5993
 2382TIP3    H128637   5.599   4.433   2.589 -0.9864  0.1398 -2.0176
 2382TIP3    H228638   5.672   4.313   2.532 -1.8476 -1.2305 -0.3049
 2383TIP3   OH228639   2.686   6.445   4.777  0.0860  0.0031  0.1181
 2383TIP3    H128640   2.658   6.456   4.868  1.9974  1.0656  0.6443
 2383TIP3    H228641   2.610   6.471   4.725 -0.4516  1.2054  1.4312
 2384TIP3   OH228642   0.119   3.478  12.719  0.2313 -0.0036  0.3275
 2384TIP3    H128643   0.113   3.512  12.630  0.3822  0.4532  0.4849
 2384TIP3    H228644   0.159   3.392  12.710  0.3606  0.0951 -0.0377
 2385TIP3   OH228645   2.299   3.475   3.452 -0.0498  0.6662 -0.1855
 2385TIP3    H128646   2.251   3.556   3.470  0.9320  1.1731  0.2334
 2385TIP3    H228647   2.355   3.497   3.378  2.3963  1.3341  1.7481
 2386TIP3   OH228648   0.701   2.544   0.299  0.1930  1.1083 -0.1426
 2386TIP3    H128649   0.711   2.635   0.326  1.4907  1.5949 -2.0767
 2386TIP3    H228650   0.790   2.508   0.300 -0.1566  0.1932 -0.4943
 2387TIP3   OH228651   3.617   5.394   1.188 -0.1238 -0.1715  0.2106
 2387TIP3    H128652   3.596   5.334   1.116 -0.1446 -2.4099  1.9736
 2387TIP3    H228653   3.712   5.406   1.183 -0.1373 -0.2257 -0.2223
 2388TIP3   OH228654   5.053   2.869  12.299  0.2376  0.1228  0.5305
 2388TIP3    H128655   5.072   2.962  12.291 -1.4627  0.3219 -2.5357
 2388TIP3    H228656   5.139   2.828  12.306  1.2025  1.7306 -1.0913
 2389TIP3   OH228657   0.752   4.629  12.996 -0.0644 -0.2029  0.0324
 2389TIP3    H128658   0.698   4.628  13.075  0.5721  0.2294  0.4874
 2389TIP3    H228659   0.706   4.573  12.934 -1.0971  0.2639  0.3618
 2390TIP3   OH228660   1.070   5.976  16.329  0.4912  0.7174  0.0185
 2390TIP3    H128661   1.113   6.031  16.264  3.5503  0.5353  1.6856
 2390TIP3    H228662   1.106   5.889  16.314  0.8521  0.5717  1.5321
 2391TIP3   OH228663   1.340   3.393   6.134 -0.4379  0.0222  0.0392
 2391TIP3    H128664   1.294   3.428   6.211 -2.1788  0.2332 -1.0594
 2391TIP3    H228665   1.335   3.298   6.144 -2.0174  0.0230 -0.5555
 2392TIP3   OH228666   1.096   5.533  12.801 -0.0286  0.5105  0.0824
 2392TIP3    H128667   1.038   5.584  12.859 -2.4787 -0.3171 -1.4732
 2392TIP3    H228668   1.066   5.443  12.810  1.0088  0.0539 -0.8257
 2393TIP3   OH228669   3.695   3.967   3.617  0.1434 -0.0170 -0.0284
 2393TIP3    H128670   3.678   3.873   3.613 -0.8076  0.1724 -0.8136
 2393TIP3    H228671   3.784   3.977   3.582  0.8782 -0.7551  1.5166
 2394TIP3   OH228672   4.323   3.149   0.127 -0.1204  0.2896 -0.2174
 2394TIP3    H128673   4.254   3.151   0.193 -0.9748 -3.0591 -0.8351
 2394TIP3    H228674   4.283   3.106   0.052  1.7577  1.1556 -1.8039
 2395TIP3   OH228675   6.250   4.232  11.329 -0.1937  0.6807 -0.2418
 2395TIP3    H128676   6.333   4.223  11.283  0.0248  2.2463 -0.1863
 2395TIP3    H228677   6.215   4.316  11.301 -1.9953 -0.1336 -0.6065
 2396TIP3   OH228678   4.776   1.646  11.053 -0.0629  0.0290 -0.1148
 2396TIP3    H128679   4.801   1.597  11.131 -1.3180 -0.1237  0.2079
 2396TIP3    H228680   4.806   1.593  10.980 -1.2412 -1.1616  0.2269
 2397TIP3   OH228681   2.530   0.608   0.293  0.5368  0.1278  0.5304
 2397TIP3    H128682   2.447   0.574   0.326  0.4296  1.4910  1.7608
 2397TIP3    H228683   2.596   0.569   0.349  0.7234 -0.6403 -0.1951
 2398TIP3   OH228684   1.957   5.438  12.670 -0.3282  0.2869 -0.1121
 2398TIP3    H128685   2.051   5.425  12.661 -0.3924  0.0055 -0.4349
 2398TIP3    H228686   1.946   5.533  12.674  0.0082  0.3054  0.4306
 2399TIP3   OH228687   2.146   4.604   1.023  0.2666 -0.3445  0.1106
 2399TIP3    H128688   2.106   4.517   1.023 -1.1078  0.2337 -1.1260
 2399TIP3    H228689   2.097   4.653   0.957  0.1051  1.7810  1.6860
 2400TIP3   OH228690   5.880   5.777  14.785  0.1891  0.1088 -0.8206
 2400TIP3    H128691   5.920   5.836  14.848 -1.4091  2.6128 -2.0007
 2400TIP3    H228692   5.852   5.702  14.837  0.3296  1.3582  1.1787
 2401TIP3   OH228693   0.295   2.015   3.533 -0.3416  0.0184  0.2845
 2401TIP3    H128694   0.281   1.954   3.461  0.6116 -1.7865  1.5644
 2401TIP3    H228695   0.220   2.002   3.591  0.6497 -1.1464  1.3487
 2402TIP3   OH228696   2.598   2.171  11.562  0.1247  0.1590 -0.5357
 2402TIP3    H128697   2.640   2.087  11.543 -0.8040 -1.0836  2.4057
 2402TIP3    H228698   2.516   2.168  11.513 -0.1069 -0.8790 -0.1048
 2403TIP3   OH228699   4.848   5.023   1.039 -0.8116  0.3023  0.3282
 2403TIP3    H128700   4.893   4.973   1.106  0.2680  0.0186 -0.5694
 2403TIP3    H228701   4.913   5.033   0.969 -0.9288  3.0278  0.4937
 2404TIP3   OH228702   6.348   2.825   1.072  0.3683  0.0589 -0.2059
 2404TIP3    H128703   6.443   2.827   1.058  0.2354  0.6181 -1.1095
 2404TIP3    H228704   6.311   2.864   0.993 -0.7345 -2.3403 -0.9654
 2405TIP3   OH228705   6.046   6.058  17.228 -0.3376  0.4063 -0.1600
 2405TIP3    H128706   6.001   5.983  17.266  2.0315 -0.5512  0.9852
 2405TIP3    H228707   6.109   6.085  17.295 -0.1289  2.5045 -1.1290
 2406TIP3   OH228708   4.550   1.067  11.020  0.1132  0.4212  0.0544
 2406TIP3    H128709   4.510   1.019  10.948 -0.2994 -0.0257  0.5678
 2406TIP3    H228710   4.487   1.135  11.042  0.2744  0.6083 -0.0620
 2407TIP3   OH228711   3.514   5.341   5.484  0.4713  0.5281  0.1202
 2407TIP3    H128712   3.542   5.267   5.430 -2.6689 -0.7318  0.0090
 2407TIP3    H228713   3.550   5.322   5.571  0.5990 -0.5799 -0.1594
 2408TIP3   OH228714   4.946   2.356   6.223 -0.2343 -0.2681 -0.0569
 2408TIP3    H128715   4.897   2.361   6.306 -1.2720 -2.5395 -0.4544
 2408TIP3    H228716   4.992   2.440   6.218 -0.9543  0.3669  2.3040
 2409TIP3   OH228717   2.580   1.739   4.267 -0.7013 -0.3336  0.2292
 2409TIP3    H128718   2.658   1.754   4.214 -0.2725 -0.2972  0.8555
 2409TIP3    H228719   2.554   1.826   4.296 -0.5670 -0.4127  0.5878
 2410TIP3   OH228720   6.560   2.715   2.677 -0.1391  0.1696  0.4729
 2410TIP3    H128721   6.648   2.702   2.641 -0.2908 -0.7810  0.4206
 2410TIP3    H228722   6.501   2.677   2.612 -0.5928  0.7739  0.5236
 2411TIP3   OH228723   1.995   5.083  11.734 -0.2624  0.2699 -0.0140
 2411TIP3    H128724   1.982   5.031  11.655  1.3278 -0.5757  0.2468
 2411TIP3    H228725   1.926   5.055  11.793 -0.4596 -0.2862 -0.5004
 2412TIP3   OH228726   1.562   4.062  11.129 -0.4772 -0.0868  0.0679
 2412TIP3    H128727   1.537   4.070  11.037  0.8950  1.4178 -0.2173
 2412TIP3    H228728   1.522   3.980  11.157 -2.0380  0.0719 -1.4853
 2413TIP3   OH228729   2.657   5.633  14.296  0.6844 -0.1380 -0.0713
 2413TIP3    H128730   2.582   5.661  14.244 -0.9499 -1.9252  1.1687
 2413TIP3    H228731   2.683   5.550  14.258  0.1740 -0.9212  1.2208
 2414TIP3   OH228732   5.948   4.087   2.194  0.6194 -0.3439  0.3926
 2414TIP3    H128733   5.986   4.148   2.130  0.1299 -1.5579 -1.1323
 2414TIP3    H228734   5.855   4.112   2.198 -0.2610 -2.5888 -2.3943
 2415TIP3   OH228735   2.033   3.270   0.529  0.6256  0.2401  0.1930
 2415TIP3    H128736   1.979   3.227   0.462  0.3351 -0.1520  0.6664
 2415TIP3    H228737   1.976   3.338   0.565  1.3502  1.5800 -1.0925
 2416TIP3   OH228738   5.111   4.627  16.226  0.1694  0.2421 -0.6001
 2416TIP3    H128739   5.073   4.651  16.142  0.8958 -2.2321 -1.7202
 2416TIP3    H228740   5.198   4.668  16.226  0.7997 -1.0417 -1.7946
 2417TIP3   OH228741   6.323   1.332   1.961  0.2588  0.2681 -0.1224
 2417TIP3    H128742   6.319   1.425   1.984  2.6113  0.3116  0.3909
 2417TIP3    H228743   6.356   1.289   2.040 -1.6784 -1.1915 -0.0295
 2418TIP3   OH228744   0.910   1.189  12.536 -0.4251  0.8442  0.1969
 2418TIP3    H128745   0.868   1.192  12.450 -1.6624 -0.1068  0.7410
 2418TIP3    H228746   0.842   1.216  12.597 -0.4389 -1.1478  1.1498
 2419TIP3   OH228747   3.600   5.495  13.545 -0.0758 -0.0474  0.0661
 2419TIP3    H128748   3.634   5.510  13.457  0.8206  0.8726  0.5416
 2419TIP3    H228749   3.656   5.426  13.580 -0.5577 -0.5506 -0.1455
 2420TIP3   OH228750   3.212   6.618  11.827  0.0727 -0.2170 -0.2645
 2420TIP3    H128751   3.209   6.677  11.902 -2.4445 -0.1886 -0.3188
 2420TIP3    H228752   3.191   6.532  11.862  0.7083 -0.5591 -0.6829
 2421TIP3   OH228753   1.802   0.359  10.474 -0.1149 -0.1671 -0.5001
 2421TIP3    H128754   1.735   0.317  10.527 -0.7635 -0.0763 -1.2373
 2421TIP3    H228755   1.856   0.407  10.537 -2.3305  1.9634 -0.1039
 2422TIP3   OH228756   6.327   4.852  13.903  0.2074  1.0865  0.5535
 2422TIP3    H128757   6.246   4.877  13.859  0.7866 -0.0760 -1.3028
 2422TIP3    H228758   6.367   4.936  13.927 -1.3714  1.6780  1.2526
 2423TIP3   OH228759   5.523   5.791  14.505 -0.0141  0.4053  0.0480
 2423TIP3    H128760   5.527   5.887  14.499 -0.6981  0.3261 -3.4140
 2423TIP3    H228761   5.447   5.767  14.452  0.3876 -2.1124  0.5091
 2424TIP3   OH228762   4.910   2.812  14.001  0.2721  0.0774  0.1934
 2424TIP3    H128763   4.863   2.775  14.077  2.7117 -2.8867  0.4376
 2424TIP3    H228764   4.844   2.815  13.932 -1.0073 -1.2761  1.2750
 2425TIP3   OH228765   1.687   2.030   1.467  0.2642 -0.5621 -0.4940
 2425TIP3    H128766   1.650   2.116   1.448  1.5467 -0.1094 -1.0520
 2425TIP3    H228767   1.655   1.974   1.396 -1.8115 -0.9734  0.6712
 2426TIP3   OH228768   3.211   5.634   3.588  0.0433  0.5037  0.3900
 2426TIP3    H128769   3.284   5.654   3.647 -0.1459 -0.1326  0.8469
 2426TIP3    H228770   3.233   5.681   3.507 -0.6355  2.9858  1.5542
 2427TIP3   OH228771   4.551   0.587  14.560  0.1689 -0.2868  0.4809
 2427TIP3    H128772   4.567   0.496  14.533 -1.0850 -0.6477  0.8859
 2427TIP3    H228773   4.626   0.609  14.615  1.1814 -0.5945 -0.7273
 2428TIP3   OH228774   2.139   0.600   0.617 -0.5125  0.1836  0.2934
 2428TIP3    H128775   2.194   0.621   0.541 -0.2783 -0.9526  0.1342
 2428TIP3    H228776   2.142   0.679   0.671 -1.2740  1.3093 -1.2193
 2429TIP3   OH228777   4.318   4.144  14.945 -0.0933 -0.2094  0.1801
 2429TIP3    H128778   4.252   4.076  14.956 -1.3247  1.2157  2.0272
 2429TIP3    H228779   4.270   4.221  14.916  0.9681  0.4573  0.1238
 2430TIP3   OH228780   6.116   2.375  12.230 -0.1985  0.0916 -0.5650
 2430TIP3    H128781   6.200   2.392  12.272  0.4041 -0.4616 -1.5046
 2430TIP3    H228782   6.112   2.279  12.222 -1.8457 -0.0475  1.2901
 2431TIP3   OH228783   6.268   0.379   5.676 -0.1352 -0.0774  0.0802
 2431TIP3    H128784   6.176   0.383   5.704 -0.0287 -0.1188  0.4483
 2431TIP3    H228785   6.289   0.285   5.678 -0.9908 -0.4621 -3.0695
 2432TIP3   OH228786   1.576   3.350   2.778 -0.1925 -0.1610 -0.0445
 2432TIP3    H128787   1.622   3.304   2.849  1.1557  2.7265  1.0859
 2432TIP3    H228788   1.645   3.373   2.716 -0.8228  0.3556 -0.5631
 2433TIP3   OH228789   2.154   1.944   0.903 -0.4580 -0.3749  0.1049
 2433TIP3    H128790   2.204   1.966   0.825  1.7693 -2.7336  0.7227
 2433TIP3    H228791   2.218   1.941   0.973 -2.1023 -0.0629  1.6931
 2434TIP3   OH228792   1.671   5.474   1.168 -0.0970 -0.2321  0.0763
 2434TIP3    H128793   1.637   5.563   1.157  0.5546 -0.0164 -0.2754
 2434TIP3    H228794   1.737   5.465   1.099  0.6347 -0.5902  0.8016
 2435TIP3   OH228795   1.675   3.021  14.295  0.4789  0.1310 -0.6559
 2435TIP3    H128796   1.593   2.988  14.332  2.1359 -2.0157  1.4122
 2435TIP3    H228797   1.689   3.105  14.338  0.4731 -0.5687  0.7569
 2436TIP3   OH228798   6.313   1.505  13.465 -0.0085 -0.0876 -0.1900
 2436TIP3    H128799   6.256   1.565  13.417  0.7138  0.2943 -0.5904
 2436TIP3    H228800   6.276   1.418  13.448 -1.2028  0.2370  0.5808
 2437TIP3   OH228801   0.587   4.581   3.843  0.1142 -0.0325  0.6072
 2437TIP3    H128802   0.519   4.515   3.836 -2.0486  2.1950 -1.5850
 2437TIP3    H228803   0.646   4.562   3.770 -0.6161  0.4903 -0.1459
 2438TIP3   OH228804   6.575   1.418   5.882 -0.1031  0.0546 -0.2544
 2438TIP3    H128805   6.536   1.349   5.935  1.0853 -0.9544 -0.6561
 2438TIP3    H228806   6.666   1.393   5.872  0.6367  2.2151  0.4191
 2439TIP3   OH228807   3.726   1.747   0.396 -0.6006  0.3131  0.2077
 2439TIP3    H128808   3.749   1.692   0.321  0.7260  0.3327  0.5803
 2439TIP3    H228809   3.654   1.801   0.364 -0.3292  0.0360 -0.9302
 2440TIP3   OH228810   2.027   4.858   4.861  0.1355  0.3551 -0.4567
 2440TIP3    H128811   2.053   4.830   4.774 -0.8956 -2.6291  0.0957
 2440TIP3    H228812   2.099   4.829   4.918 -0.5565 -0.4142  0.0357
 2441TIP3   OH228813   2.186   4.284   4.080  0.3174  0.0583  0.2689
 2441TIP3    H128814   2.133   4.337   4.139 -0.0377  1.5559 -1.3192
 2441TIP3    H228815   2.276   4.308   4.100  0.2161  0.3422  0.3868
 2442TIP3   OH228816   4.448   0.403  11.223  0.2299 -0.3807  0.2259
 2442TIP3    H128817   4.410   0.443  11.300 -0.3440 -0.9308  0.2373
 2442TIP3    H228818   4.373   0.377  11.169  0.6120 -0.3536 -0.3303
 2443TIP3   OH228819   6.521   4.744  15.651 -0.7050 -0.1953 -0.4604
 2443TIP3    H128820   6.593   4.682  15.636 -0.1671  0.2865  0.0901
 2443TIP3    H228821   6.444   4.688  15.663 -0.3988 -0.7224 -0.8952
 2444TIP3   OH228822   0.122   5.636  11.449 -0.0498 -0.1628 -0.0971
 2444TIP3    H128823   0.177   5.584  11.390  1.8579  1.0340  0.5131
 2444TIP3    H228824   0.145   5.727  11.429 -0.5401  0.3124  1.3862
 2445TIP3   OH228825   3.515   2.386   4.197 -0.3171  0.0349  0.3963
 2445TIP3    H128826   3.523   2.375   4.292  0.8692  1.3002  0.4617
 2445TIP3    H228827   3.578   2.324   4.161 -0.6927 -0.3700  0.4160
 2446TIP3   OH228828   5.330   4.696   6.262 -0.0448  0.1182 -0.3367
 2446TIP3    H128829   5.412   4.650   6.243  0.8818  1.4744  0.1990
 2446TIP3    H228830   5.297   4.656   6.342  0.1409 -0.3812 -0.5084
 2447TIP3   OH228831   3.828   3.158   3.383 -0.0212 -0.0213 -0.4582
 2447TIP3    H128832   3.894   3.094   3.354  1.4508  1.5744 -0.7780
 2447TIP3    H228833   3.769   3.166   3.308  0.5524 -0.0300 -0.9162
 2448TIP3   OH228834   5.638   6.026   5.382  0.2364  0.9093 -0.2112
 2448TIP3    H128835   5.590   5.943   5.375 -1.4895  1.8928 -0.6358
 2448TIP3    H228836   5.662   6.048   5.292  1.3232  0.5586 -0.0286
 2449TIP3   OH228837   1.052   3.720  11.811  0.0779  0.1013 -0.2344
 2449TIP3    H128838   1.033   3.814  11.811 -0.3906  0.0076 -0.0811
 2449TIP3    H228839   0.973   3.679  11.777  0.2671 -0.2431 -0.2690
 2450TIP3   OH228840   4.287   6.709   0.119 -0.0946  0.4354  0.2046
 2450TIP3    H128841   4.260   6.629   0.164 -0.7668  0.3080 -0.4085
 2450TIP3    H228842   4.370   6.733   0.160  1.1144 -1.6119 -0.8788
 2451TIP3   OH228843   1.687   6.772  13.685  0.2446  0.4254 -0.0072
 2451TIP3    H128844   1.604   6.749  13.728  0.4055 -2.2358 -0.9204
 2451TIP3    H228845   1.672   6.753  13.592  1.0014  2.7216 -0.6686
 2452TIP3   OH228846   5.696   3.969  16.880 -0.4651  0.8079 -0.2390
 2452TIP3    H128847   5.693   4.065  16.884  0.7069  0.8124  1.8607
 2452TIP3    H228848   5.671   3.948  16.790  0.6834  3.1437 -1.1742
 2453TIP3   OH228849   2.155   5.284   1.074 -0.1535  0.1794  0.0998
 2453TIP3    H128850   2.063   5.286   1.101 -0.0448 -1.5982  0.7673
 2453TIP3    H228851   2.152   5.293   0.979 -0.9756  0.7729  0.1741
 2454TIP3   OH228852   3.301   2.352   2.700 -0.7484 -0.0139 -0.5301
 2454TIP3    H128853   3.322   2.406   2.624  1.0474  1.1752  0.7473
 2454TIP3    H228854   3.205   2.347   2.699 -0.7952  0.1185 -2.7155
 2455TIP3   OH228855   4.317   4.568  13.050  0.2340 -0.1746 -0.0708
 2455TIP3    H128856   4.236   4.607  13.081 -0.2232 -1.5822  0.6131
 2455TIP3    H228857   4.292   4.478  13.026  1.0680  0.1140 -2.2503
 2456TIP3   OH228858   3.574   1.205   0.659  0.2856 -0.4659 -0.0419
 2456TIP3    H128859   3.479   1.188   0.660 -0.2383  1.5661 -2.6451
 2456TIP3    H228860   3.581   1.299   0.678  1.9122 -0.8125  1.2298
 2457TIP3   OH228861   2.661   0.749  13.720  0.3897 -0.7167 -0.1554
 2457TIP3    H128862   2.708   0.792  13.648 -0.1913  0.2683  0.0388
 2457TIP3    H228863   2.580   0.799  13.728  1.3850  0.6760  2.6738
 2458TIP3   OH228864   3.359   5.515   0.049  0.0002  0.1473  0.2430
 2458TIP3    H128865   3.356   5.425   0.082  0.3005 -0.5050 -1.3709
 2458TIP3    H228866   3.440   5.519  -0.001  0.3955  1.5897  0.9676
 2459TIP3   OH228867   5.791   2.436  13.748  0.0001 -0.0870  0.2357
 2459TIP3    H128868   5.761   2.436  13.657  0.1550  0.2474  0.1818
 2459TIP3    H228869   5.835   2.520  13.758 -0.4376  0.0833  0.7595
 2460TIP3   OH228870   4.959   3.268   3.488 -0.0752  0.0361  0.3447
 2460TIP3    H128871   4.887   3.246   3.429  0.9860  0.9567 -1.3528
 2460TIP3    H228872   5.005   3.185   3.502 -1.6934 -0.6807  1.8807
 2461TIP3   OH228873   2.557   2.519   0.559  0.0525 -0.2648 -0.6318
 2461TIP3    H128874   2.541   2.451   0.625 -2.1116  0.0095 -0.8213
 2461TIP3    H228875   2.647   2.504   0.532  0.5147 -1.3559  1.2739
 2462TIP3   OH228876   5.615   1.458   5.620 -0.5538  0.8338 -0.0847
 2462TIP3    H128877   5.619   1.547   5.585 -0.1786  0.9833  0.3449
 2462TIP3    H228878   5.656   1.464   5.706  1.3862 -0.1638 -0.8780
 2463TIP3   OH228879   5.688   3.347  16.542 -0.3098 -0.0756  0.1424
 2463TIP3    H128880   5.769   3.366  16.494  0.1118 -1.0999  0.4226
 2463TIP3    H228881   5.622   3.401  16.499 -0.0452 -1.2611 -1.8949
 2464TIP3   OH228882   3.370   3.715  17.206 -0.4587 -0.0095  0.1232
 2464TIP3    H128883   3.307   3.761  17.150 -0.5192 -1.0765 -0.6993
 2464TIP3    H228884   3.340   3.624  17.206  0.7727 -0.4244  0.1682
 2465TIP3   OH228885   0.391   5.692  16.268 -0.0808 -0.1767  0.1008
 2465TIP3    H128886   0.429   5.720  16.184 -1.2632  0.4824 -0.2354
 2465TIP3    H228887   0.300   5.672  16.248  0.2688 -2.6861  0.6948
 2466TIP3   OH228888   6.202   1.182   2.745 -0.1943  0.3671 -0.5144
 2466TIP3    H128889   6.250   1.150   2.669 -1.7061 -0.1570 -1.2850
 2466TIP3    H228890   6.215   1.114   2.812 -0.3504 -0.0609 -0.9147
 2467TIP3   OH228891   2.070   3.133  15.936  0.1951 -0.2246  0.3956
 2467TIP3    H128892   2.089   3.103  16.025  0.6679  0.2642  0.4716
 2467TIP3    H228893   1.975   3.140  15.932  0.2165  1.1349  1.3439
 2468TIP3   OH228894   0.086   6.236   5.888 -0.1036 -0.3011 -0.2753
 2468TIP3    H128895   0.075   6.233   5.983  0.4190  1.0900 -0.1476
 2468TIP3    H228896   0.071   6.146   5.859  0.9124 -1.0027  1.2504
 2469TIP3   OH228897   6.288   2.673   3.005 -0.2816  0.1608 -0.1286
 2469TIP3    H128898   6.306   2.699   3.096 -0.0727  0.1580 -0.1677
 2469TIP3    H228899   6.193   2.677   2.997 -0.2538  1.1005 -0.1893
 2470TIP3   OH228900   0.173   6.182   4.836  0.0610  0.4630 -0.0876
 2470TIP3    H128901   0.101   6.241   4.812 -0.7764 -0.6384 -0.3626
 2470TIP3    H228902   0.243   6.204   4.774  0.1983  1.9324  0.5454
 2471TIP3   OH228903   0.111   0.343   5.988 -0.2457  0.7481 -0.2944
 2471TIP3    H128904   0.063   0.292   5.924 -1.4453  1.6534 -0.1563
 2471TIP3    H228905   0.202   0.338   5.960 -0.3300 -1.3507 -0.3366
 2472TIP3   OH228906   1.437   5.235  14.943 -0.0099 -0.5415  0.2183
 2472TIP3    H128907   1.528   5.248  14.969  0.7392 -0.6683 -2.0978
 2472TIP3    H228908   1.386   5.256  15.021  1.9375  0.6563  1.2374
 2473TIP3   OH228909   5.086   6.235  11.874 -0.4893  0.2451  0.1547
 2473TIP3    H128910   5.084   6.319  11.827 -1.5093  0.4283  0.4922
 2473TIP3    H228911   5.037   6.175  11.819  0.8989 -0.3575 -0.4604
 2474TIP3   OH228912   3.777   3.632   0.216 -0.0974  0.1498  1.0627
 2474TIP3    H128913   3.693   3.676   0.225  0.2763  0.9612  0.7094
 2474TIP3    H228914   3.755   3.544   0.186 -0.7291  1.4471 -2.8950
 2475TIP3   OH228915   4.606   2.124  15.966 -0.1493  0.1853  0.4074
 2475TIP3    H128916   4.628   2.124  16.059  0.9924  0.1083  0.1553
 2475TIP3    H228917   4.678   2.171  15.925  0.4719 -1.6249 -0.6680
 2476TIP3   OH228918   3.208   0.314  15.911  0.0073 -0.5727  0.2861
 2476TIP3    H128919   3.233   0.349  15.825 -0.9435 -1.0753 -0.2229
 2476TIP3    H228920   3.185   0.390  15.963 -3.3241 -0.3513 -1.2151
 2477TIP3   OH228921   4.270   0.974  14.849  0.1003  0.0167 -0.1442
 2477TIP3    H128922   4.291   0.982  14.942  2.3930  0.9900 -0.6828
 2477TIP3    H228923   4.294   0.884  14.827 -3.0941 -1.1979  0.7100
 2478TIP3   OH228924   2.097   2.695   0.088  0.1915  0.9352 -0.3249
 2478TIP3    H128925   2.178   2.716   0.135  0.4931  1.9885 -1.2811
 2478TIP3    H228926   2.058   2.624   0.139  1.3158  0.9464  0.5983
 2479TIP3   OH228927   1.849   5.647  10.351  0.3884 -0.4938 -0.0081
 2479TIP3    H128928   1.785   5.580  10.376  1.3175 -1.4734 -0.1685
 2479TIP3    H228929   1.797   5.720  10.319 -0.6672 -1.0033  0.5186
 2480TIP3   OH228930   6.460   0.293  15.380  0.0958 -0.2863 -0.6518
 2480TIP3    H128931   6.424   0.255  15.460  1.5644 -0.3422  0.0128
 2480TIP3    H228932   6.481   0.218  15.325  0.7169 -0.3449 -0.3475
 2481TIP3   OH228933   4.316   0.924  12.111 -0.4511  0.8358  0.1860
 2481TIP3    H128934   4.326   0.990  12.179 -1.7385 -0.2169  1.4751
 2481TIP3    H228935   4.226   0.892  12.122  0.0567 -0.9792 -0.5027
 2482TIP3   OH228936   4.075   0.018   0.457 -0.2952  0.1464  0.7639
 2482TIP3    H128937   4.053   0.111   0.450 -1.0648  0.0494  1.7120
 2482TIP3    H228938   3.994  -0.028   0.432  0.4144 -0.3116 -0.8632
 2483TIP3   OH228939   4.858   5.735   3.134  0.1183  0.0314 -0.1813
 2483TIP3    H128940   4.889   5.793   3.064 -0.0337 -0.0158 -0.2880
 2483TIP3    H228941   4.916   5.660   3.130  0.0160 -0.0400 -0.3571
 2484TIP3   OH228942   5.551   4.183   4.934 -0.2184 -0.1015 -0.1367
 2484TIP3    H128943   5.522   4.272   4.917  0.3753  0.1507  0.1449
 2484TIP3    H228944   5.520   4.132   4.859  1.4468  0.7738 -1.4807
 2485TIP3   OH228945   5.863   6.348   1.688  0.1723 -0.1166 -0.2088
 2485TIP3    H128946   5.908   6.325   1.607  0.5809  0.8113 -0.2491
 2485TIP3    H228947   5.898   6.434   1.712 -0.3116 -0.1578  0.6834
 2486TIP3   OH228948   1.918   3.698  14.361  0.1294 -0.2066 -0.2940
 2486TIP3    H128949   1.952   3.667  14.445  0.7313  1.4168  0.0885
 2486TIP3    H228950   1.846   3.756  14.385  2.0140  2.4456 -0.7042
 2487TIP3   OH228951   3.813   4.970   4.018  0.2739  0.1122 -0.4027
 2487TIP3    H128952   3.733   4.969   4.071 -0.4378 -1.6073 -1.4316
 2487TIP3    H228953   3.782   4.973   3.928  1.4336  1.0435 -0.7919
 2488TIP3   OH228954   2.878   0.400  12.726  0.3023 -0.4294  0.2125
 2488TIP3    H128955   2.889   0.313  12.687  2.3097 -1.2879  2.4576
 2488TIP3    H228956   2.913   0.391  12.814 -0.3041  2.4592  0.8358
 2489TIP3   OH228957   1.794   5.470   0.926 -0.3953 -0.0844 -0.5093
 2489TIP3    H128958   1.755   5.516   0.852  0.3274 -0.6943 -1.3048
 2489TIP3    H228959   1.889   5.480   0.912 -0.2546 -0.1983  0.3425
 2490TIP3   OH228960   1.507   2.181   0.776 -0.1858 -0.9442  0.5592
 2490TIP3    H128961   1.532   2.267   0.742  0.6974 -0.9920  1.0749
 2490TIP3    H228962   1.587   2.129   0.770 -0.5842 -1.5838  0.7309
 2491TIP3   OH228963   5.285   5.115  16.828  0.1735 -0.1197 -0.0881
 2491TIP3    H128964   5.344   5.119  16.904  0.0299 -1.7549  0.1311
 2491TIP3    H228965   5.332   5.062  16.764 -0.8127 -0.9594 -0.1313
 2492TIP3   OH228966   0.917   6.146   2.700  0.4238 -0.1065 -0.0768
 2492TIP3    H128967   0.827   6.171   2.721  0.9504  2.5609 -0.5255
 2492TIP3    H228968   0.937   6.196   2.621  3.2742  2.0029  1.7879
 2493TIP3   OH228969   1.551   3.354   0.279  0.4024  0.1743  0.0340
 2493TIP3    H128970   1.523   3.431   0.328 -0.4094 -0.4758  0.6454
 2493TIP3    H228971   1.646   3.360   0.276  0.4001  0.7575  0.8162
 2494TIP3   OH228972   4.679   3.930  15.895 -0.0965  0.2250 -0.4033
 2494TIP3    H128973   4.774   3.924  15.898  0.0588  1.0930 -2.1044
 2494TIP3    H228974   4.650   3.840  15.879  0.6906  0.3132 -2.8684
 2495TIP3   OH228975   5.807   5.316   3.240  0.1225 -0.4425  0.1677
 2495TIP3    H128976   5.730   5.351   3.285 -0.1738 -0.4935 -0.2943
 2495TIP3    H228977   5.784   5.225   3.219  0.8079 -0.8721  1.1783
 2496TIP3   OH228978   1.206   0.554   3.512 -0.1775 -0.0189  0.2876
 2496TIP3    H128979   1.271   0.601   3.460 -0.8521  0.2619 -0.3093
 2496TIP3    H228980   1.129   0.550   3.456 -0.3014 -1.3837  0.5338
 2497TIP3   OH228981   0.628   2.850  13.058  0.0247 -0.4376 -0.1968
 2497TIP3    H128982   0.631   2.792  13.134 -0.1321 -1.7732 -1.1592
 2497TIP3    H228983   0.587   2.796  12.989  0.6736  0.5291 -1.3816
 2498TIP3   OH228984   3.610   3.546  13.839  0.5422  0.5715  0.1071
 2498TIP3    H128985   3.633   3.523  13.749 -0.7644 -1.0867  0.1702
 2498TIP3    H228986   3.516   3.532  13.845  0.6755  0.2192  1.8618
 2499TIP3   OH228987   3.791   3.623  11.112 -0.1990 -0.2908  0.6179
 2499TIP3    H128988   3.759   3.558  11.050 -0.2855 -0.1681  0.5320
 2499TIP3    H228989   3.732   3.615  11.187 -0.3534 -0.1559  0.5138
 2500TIP3   OH228990   3.653   2.145  14.552 -0.1473  0.1271  0.4823
 2500TIP3    H128991   3.694   2.090  14.485  0.3656  0.0283  0.8690
 2500TIP3    H228992   3.619   2.083  14.616  1.1956  0.2665  1.3586
 2501TIP3   OH228993   1.193   5.339   3.128 -0.0618 -0.1738  0.1409
 2501TIP3    H128994   1.208   5.269   3.064 -0.2188 -0.8168  0.7985
 2501TIP3    H228995   1.228   5.305   3.210 -1.3784 -0.0515  0.7788
 2502TIP3   OH228996   6.261   3.834  11.952  0.2198 -0.0217 -0.0041
 2502TIP3    H128997   6.313   3.768  11.907  0.3393  0.8936 -1.2884
 2502TIP3    H228998   6.191   3.857  11.890 -1.6776 -1.1040  1.6079
 2503TIP3   OH228999   4.852   2.625   1.123 -0.1908 -0.0981 -0.6318
 2503TIP3    H129000   4.869   2.531   1.118 -0.3735 -0.2276  0.7826
 2503TIP3    H229001   4.928   2.660   1.170  0.2666  0.6004 -1.8403
 2504TIP3   OH229002   1.421   2.149   1.041 -0.0661 -0.1239 -0.4405
 2504TIP3    H129003   1.462   2.144   0.955  2.0239  0.9417  0.4346
 2504TIP3    H229004   1.379   2.234   1.043 -0.2947 -0.2345 -0.4636
 2505TIP3   OH229005   1.210   0.443  11.637  0.5094  0.1323  0.0687
 2505TIP3    H129006   1.284   0.500  11.617 -0.0803  0.8751 -0.0511
 2505TIP3    H229007   1.233   0.359  11.597  0.7512  0.6998 -1.0473
 2506TIP3   OH229008   1.907   5.063   1.497  0.5985 -0.5290  0.2813
 2506TIP3    H129009   1.819   5.040   1.469  1.0371 -1.6644 -0.2274
 2506TIP3    H229010   1.931   5.137   1.443 -0.2557  0.1813  0.8423
 2507TIP3   OH229011   2.495   2.541   5.201  0.2873  0.5058  0.0075
 2507TIP3    H129012   2.492   2.534   5.296  1.2779  0.1535  0.0180
 2507TIP3    H229013   2.573   2.493   5.175 -0.4961 -0.2485 -1.0696
 2508TIP3   OH229014   2.864   0.596  12.222 -0.1280  0.2439 -0.4562
 2508TIP3    H129015   2.797   0.568  12.284 -0.6656  0.8418 -0.7587
 2508TIP3    H229016   2.816   0.644  12.155  0.4242 -0.5304 -1.4311
 2509TIP3   OH229017   4.509   4.855  12.448 -0.0647  0.2174  0.3503
 2509TIP3    H129018   4.563   4.836  12.372 -1.2688 -0.5305 -0.3618
 2509TIP3    H229019   4.457   4.931  12.422 -0.9934 -0.4689  0.1055
 2510TIP3   OH229020   4.594   3.904   0.928 -0.0894 -0.1339  0.2657
 2510TIP3    H129021   4.511   3.903   0.976  0.7238 -0.2570  1.7383
 2510TIP3    H229022   4.635   3.820   0.950  0.5879  0.0880 -0.1295
 2511TIP3   OH229023   5.854   3.549   3.067 -0.3200  0.1722  0.0028
 2511TIP3    H129024   5.948   3.555   3.082 -0.2195  0.4312 -0.7179
 2511TIP3    H229025   5.830   3.463   3.102  0.3636 -0.3246 -0.7202
 2512TIP3   OH229026   6.666   1.191   3.193  0.1008  0.6679 -0.0132
 2512TIP3    H129027   6.730   1.164   3.127 -1.3558 -0.8642 -0.8884
 2512TIP3    H229028   6.663   1.118   3.255 -2.9718 -0.8341 -1.7065
 2513TIP3   OH229029   3.133   2.521   2.098 -0.2112 -0.3934 -0.1073
 2513TIP3    H129030   3.165   2.439   2.060 -1.4465 -0.8988 -0.0987
 2513TIP3    H229031   3.213   2.568   2.122  0.5360 -1.3523 -0.6032
 2514TIP3   OH229032   5.484   5.773  12.615  0.0699  0.1236 -0.3251
 2514TIP3    H129033   5.401   5.821  12.617  0.4627  0.8158 -0.3701
 2514TIP3    H229034   5.517   5.778  12.705 -0.2978 -0.8030 -0.1308
 2515TIP3   OH229035   4.317   5.711   2.249 -0.0494 -0.0762  0.4111
 2515TIP3    H129036   4.322   5.721   2.345  0.7603  1.7316  0.2326
 2515TIP3    H229037   4.228   5.740   2.228 -0.3177 -0.7261  0.6348
 2516TIP3   OH229038   3.220   1.493   4.574 -0.3563 -0.0906 -0.0407
 2516TIP3    H129039   3.184   1.407   4.594 -0.7778  0.3552  1.2371
 2516TIP3    H229040   3.144   1.550   4.568  0.0191  0.5344  0.9795
 2517TIP3   OH229041   6.679   5.354  13.981  0.1564  0.1986 -0.0795
 2517TIP3    H129042   6.663   5.443  13.950  0.7919 -0.2070 -1.6615
 2517TIP3    H229043   6.619   5.343  14.055  0.4965  2.1361  0.5568
 2518TIP3   OH229044   0.076   5.860   4.710  0.2148 -0.3064  0.0269
 2518TIP3    H129045   0.101   5.857   4.617  2.8378  0.5483  0.6168
 2518TIP3    H229046   0.137   5.801   4.753 -1.7168 -1.5693  1.1230
 2519TIP3   OH229047   5.008   4.489  16.878 -0.0597  0.4205  0.0372
 2519TIP3    H129048   4.913   4.473  16.876  0.1509 -0.9446 -1.7447
 2519TIP3    H229049   5.038   4.467  16.790  2.1243 -0.4283  0.9168
 2520TIP3   OH229050   2.196   0.682  15.599  0.2937 -0.0877  0.4098
 2520TIP3    H129051   2.140   0.682  15.677  0.0578  0.8449  0.2556
 2520TIP3    H229052   2.190   0.771  15.566  2.8141  0.3832  1.0424
 2521TIP3   OH229053   6.126   4.624  11.860  0.1697 -0.3233  0.0513
 2521TIP3    H129054   6.210   4.614  11.816  1.1470 -0.0359  1.7794
 2521TIP3    H229055   6.070   4.556  11.822  1.6957 -1.6439  0.0947
 2522TIP3   OH229056   1.685   3.284   2.359  0.2097 -0.4648  0.0872
 2522TIP3    H129057   1.779   3.271   2.370  0.3518 -1.8132 -2.1727
 2522TIP3    H229058   1.669   3.371   2.397  2.2588 -0.3791  0.9145
 2523TIP3   OH229059   2.716   1.428   6.150 -0.0669  0.6329 -0.0972
 2523TIP3    H129060   2.782   1.364   6.177  1.3924  1.6686 -1.0149
 2523TIP3    H229061   2.639   1.407   6.201  1.2380 -0.1339  1.6574
 2524TIP3   OH229062   0.039   1.010  12.106 -1.0344  0.3414  0.0886
 2524TIP3    H129063  -0.027   1.045  12.046 -1.6717 -0.5690  0.2370
 2524TIP3    H229064  -0.011   0.956  12.168 -0.0862 -0.9884 -0.2567
 2525TIP3   OH229065   6.048   1.442   2.586 -0.6013  0.0569  0.6536
 2525TIP3    H129066   6.043   1.512   2.651  0.9152 -1.0314  2.0372
 2525TIP3    H229067   6.003   1.368   2.627  0.2200 -0.5937  0.4247
 2526TIP3   OH229068   2.084   0.325  14.919  0.2860 -0.3846 -0.1373
 2526TIP3    H129069   2.075   0.344  15.012  0.2460  1.6943 -0.5285
 2526TIP3    H229070   2.172   0.354  14.896 -0.6286  1.7328 -1.2667
 2527TIP3   OH229071   2.852   1.652  16.000 -0.0109  0.4579 -0.0971
 2527TIP3    H129072   2.887   1.648  15.911  0.1250  1.8732 -0.1369
 2527TIP3    H229073   2.766   1.609  15.994  0.4361 -0.3861 -0.6657
 2528TIP3   OH229074   1.821   5.256   2.446 -0.4782 -0.4980 -0.1837
 2528TIP3    H129075   1.861   5.338   2.417  1.1568 -1.6071 -1.2982
 2528TIP3    H229076   1.730   5.261   2.417  0.0375  0.2160 -1.7603
 2529TIP3   OH229077   6.236   1.669   4.698  0.3734 -0.1002  0.3663
 2529TIP3    H129078   6.325   1.661   4.732 -0.3383 -2.0050  2.0060
 2529TIP3    H229079   6.240   1.630   4.610  1.3176  0.6837  0.0510
 2530TIP3   OH229080   4.279   0.828   2.253 -0.2009  0.6183  0.0437
 2530TIP3    H129081   4.290   0.894   2.321 -0.6246  0.9694 -0.2208
 2530TIP3    H229082   4.294   0.876   2.171  1.7250 -0.0847 -0.0809
 2531TIP3   OH229083   1.214   0.848  16.166 -0.2096  0.0370 -0.0967
 2531TIP3    H129084   1.221   0.832  16.072 -1.8736 -0.6506 -0.1324
 2531TIP3    H229085   1.139   0.907  16.175  0.4168  0.7353  0.7590
 2532TIP3   OH229086   0.277   0.850   3.317 -0.3056  0.2823  0.0560
 2532TIP3    H129087   0.182   0.840   3.306 -0.1126 -1.3914 -0.3797
 2532TIP3    H229088   0.304   0.770   3.362  0.7388  1.3360  1.3952
 2533TIP3   OH229089   1.935   6.504  16.277  0.1753 -0.1889  0.7407
 2533TIP3    H129090   2.015   6.556  16.270  0.6383 -1.0304 -0.4176
 2533TIP3    H229091   1.912   6.509  16.370  1.2226  0.5604  0.9830
 2534TIP3   OH229092   5.453   0.026  12.240  0.2221 -0.1231 -0.0127
 2534TIP3    H129093   5.396   0.103  12.245 -0.0909 -0.3634  0.2223
 2534TIP3    H229094   5.533   0.051  12.285  0.1635  0.1033 -0.0367
 2535TIP3   OH229095   1.490   5.162  11.579 -0.1969  0.3194 -0.2468
 2535TIP3    H129096   1.411   5.215  11.581  0.3761  1.2042 -0.4345
 2535TIP3    H229097   1.504   5.143  11.486  0.8029  1.7288 -0.4176
 2536TIP3   OH229098   0.593   6.234  15.298 -0.0980  0.2322  0.5316
 2536TIP3    H129099   0.609   6.317  15.342  1.3564 -0.5594  1.5637
 2536TIP3    H229100   0.583   6.170  15.369 -1.3090 -0.4728 -0.2341
 2537TIP3   OH229101   0.256   5.314  14.054 -0.4207 -0.2202 -0.4272
 2537TIP3    H129102   0.179   5.335  14.106 -1.5586 -2.6989 -1.0119
 2537TIP3    H229103   0.272   5.221  14.070  1.6749 -0.0676 -1.3330
 2538TIP3   OH229104   1.657   6.684  12.174  0.1527  0.0344 -0.8002
 2538TIP3    H129105   1.619   6.760  12.219  0.8836 -0.5745  0.9281
 2538TIP3    H229106   1.743   6.713  12.145  0.1172  0.1048 -0.8338
 2539TIP3   OH229107   5.768   1.374  15.942  0.5115 -0.5203  0.3266
 2539TIP3    H129108   5.709   1.426  15.887 -0.3526  0.8636  2.4320
 2539TIP3    H229109   5.839   1.434  15.965  0.8916 -1.0819  0.6559
 2540TIP3   OH229110   2.744   5.347  15.938  0.2666  0.2654  0.1256
 2540TIP3    H129111   2.707   5.333  15.851 -0.8212  1.5836  0.3382
 2540TIP3    H229112   2.728   5.265  15.984 -2.8174  0.8563  0.3166
 2541TIP3   OH229113   2.073   0.571  16.934 -0.0714 -0.4017  0.0628
 2541TIP3    H129114   2.000   0.510  16.947 -0.4651 -0.0919 -0.5927
 2541TIP3    H229115   2.146   0.516  16.908 -0.3425 -0.6245 -0.2361
 2542TIP3   OH229116   2.084   5.395  16.278 -0.4873  0.6321  0.1728
 2542TIP3    H129117   2.067   5.454  16.352  1.3435  0.5606  0.6753
 2542TIP3    H229118   2.120   5.316  16.317 -1.2033 -0.1278 -0.6631
 2543TIP3   OH229119   1.442   0.718   4.715  0.0526  0.2519 -0.3919
 2543TIP3    H129120   1.390   0.773   4.774 -0.1924  0.3602 -0.7074
 2543TIP3    H229121   1.381   0.691   4.647  0.7034  1.4552 -1.5045
 2544TIP3   OH229122   5.911   5.253  11.583 -1.1444  0.0716  0.8036
 2544TIP3    H129123   5.987   5.274  11.637  0.9583  0.5982 -2.1511
 2544TIP3    H229124   5.900   5.158  11.594 -1.1057  0.2171  2.4354
 2545TIP3   OH229125   3.009   1.616  15.145  0.1682  0.3207  0.3316
 2545TIP3    H129126   2.995   1.521  15.141 -0.0497  0.1671  2.9740
 2545TIP3    H229127   3.018   1.643  15.053  0.8199 -2.3256 -0.4689
 2546TIP3   OH229128   6.666   5.338   4.100 -0.0407 -0.0898  0.8240
 2546TIP3    H129129   6.714   5.413   4.136  0.3993  0.5502 -0.9941
 2546TIP3    H229130   6.596   5.378   4.048 -1.3397 -0.9976  1.8149
 2547TIP3   OH229131   4.799   3.721  14.809 -0.1930 -0.5005  0.2313
 2547TIP3    H129132   4.716   3.702  14.764 -0.3900  2.2118 -0.7673
 2547TIP3    H229133   4.773   3.742  14.899 -0.6013  0.1714 -0.0350
 2548TIP3   OH229134   0.954   5.448   3.195  0.3491  0.0698 -0.3271
 2548TIP3    H129135   0.967   5.445   3.289 -1.5648  0.9297  0.0018
 2548TIP3    H229136   1.024   5.393   3.159  2.2151  1.1398  1.4479
 2549TIP3   OH229137   5.255   2.220   5.958 -0.1315 -0.1652  0.4199
 2549TIP3    H129138   5.342   2.226   5.997 -0.4252 -0.6482  1.1644
 2549TIP3    H229139   5.250   2.297   5.901  1.4853 -1.1350 -1.1393
 2550TIP3   OH229140   6.802   5.326   5.675  0.3253  0.0654  0.5288
 2550TIP3    H129141   6.882   5.378   5.670 -0.2619  1.0020  0.6008
 2550TIP3    H229142   6.763   5.349   5.759 -0.9651  1.0951 -0.2987
 2551TIP3   OH229143   5.482   6.187   4.772  0.6883 -0.2386  0.3903
 2551TIP3    H129144   5.506   6.280   4.770  1.4409 -0.4349 -0.6595
 2551TIP3    H229145   5.404   6.181   4.717  0.6251 -0.2198  0.4792
 2552TIP3   OH229146   5.391   2.728  15.916  0.2276  0.0536 -0.2132
 2552TIP3    H129147   5.468   2.674  15.897  0.3326 -0.3557  1.2512
 2552TIP3    H229148   5.340   2.676  15.978 -1.4870  0.1110 -1.4895
 2553TIP3   OH229149   4.306   4.601   3.359  0.2448 -0.2493  0.5771
 2553TIP3    H129150   4.223   4.648   3.363 -0.1340 -0.8211 -0.3041
 2553TIP3    H229151   4.313   4.573   3.268  1.4017 -0.2217  0.6429
 2554TIP3   OH229152   6.306   1.917  13.215 -0.5236 -0.2630  0.2242
 2554TIP3    H129153   6.256   1.890  13.138  1.6479 -0.9378 -1.0290
 2554TIP3    H229154   6.383   1.962  13.180  1.3582 -1.9786  1.8386
 2555TIP3   OH229155   4.078   1.367   5.193 -0.0906  0.0891 -0.3763
 2555TIP3    H129156   4.001   1.331   5.150 -0.1107 -0.0830 -0.1964
 2555TIP3    H229157   4.058   1.460   5.203 -0.1972  0.0790 -0.4998
 2556TIP3   OH229158   3.167   3.745  11.533  0.2579  0.3077 -0.3528
 2556TIP3    H129159   3.147   3.810  11.600  2.3992  1.2344 -0.5321
 2556TIP3    H229160   3.210   3.674  11.580 -0.4296 -0.1693 -0.4247
 2557TIP3   OH229161   5.292   3.961   3.594  0.2949  0.1287 -0.3342
 2557TIP3    H129162   5.241   4.036   3.623 -0.1008 -0.0388 -0.5979
 2557TIP3    H229163   5.228   3.893   3.574  0.4262  0.6158 -2.7692
 2558TIP3   OH229164   2.515   6.276   3.114 -0.1746  0.5806  0.9727
 2558TIP3    H129165   2.474   6.242   3.034  0.1429  2.4254 -0.0365
 2558TIP3    H229166   2.581   6.210   3.136 -0.9542 -0.4597  0.3076
 2559TIP3   OH229167   4.269   4.400  12.250  0.0699 -0.0321 -0.0607
 2559TIP3    H129168   4.348   4.349  12.269  0.7217  0.8428 -0.3614
 2559TIP3    H229169   4.197   4.346  12.283  0.8867 -0.2267  1.5070
 2560TIP3   OH229170   5.922   0.684  11.407  0.4132 -0.1278 -0.2900
 2560TIP3    H129171   5.994   0.719  11.354  1.7438 -0.2686  1.3263
 2560TIP3    H229172   5.845   0.694  11.352  1.3390  1.8631 -1.3518
 2561TIP3   OH229173   0.630   2.210  10.877 -0.1229  0.1747 -0.1738
 2561TIP3    H129174   0.560   2.261  10.837 -0.1962 -0.5447 -0.9973
 2561TIP3    H229175   0.590   2.127  10.900  0.1802  0.1931  0.4472
 2562TIP3   OH229176   0.785   1.666  15.120 -0.3824  0.1711  0.2770
 2562TIP3    H129177   0.746   1.720  15.189 -4.3598 -0.8804 -0.8688
 2562TIP3    H229178   0.729   1.588  15.116 -0.7525  0.3617 -4.3229
 2563TIP3   OH229179   6.573   4.139  10.898  0.4358  0.0340 -0.2554
 2563TIP3    H129180   6.585   4.047  10.878 -0.9768 -0.4416  0.8425
 2563TIP3    H229181   6.502   4.167  10.840  0.9775  0.4955 -0.7112
 2564TIP3   OH229182   2.664   4.659   3.392 -0.5137  0.1962 -0.0515
 2564TIP3    H129183   2.644   4.638   3.301 -0.0568 -0.3443 -0.0365
 2564TIP3    H229184   2.676   4.754   3.393 -2.4444  0.4844 -0.1675
 2565TIP3   OH229185   6.281   1.406  16.184 -0.9118  0.0335  0.1433
 2565TIP3    H129186   6.244   1.338  16.128 -0.4244 -0.3237  0.2458
 2565TIP3    H229187   6.237   1.395  16.268 -1.6653  0.5893 -0.1646
 2566TIP3   OH229188   1.857   4.729   3.267 -0.1285 -0.1108 -0.0985
 2566TIP3    H129189   1.802   4.705   3.341 -0.9239 -0.0422 -0.6468
 2566TIP3    H229190   1.807   4.797   3.222  1.5238  1.7804  0.7630
 2567TIP3   OH229191   0.853   5.058  16.560  0.4309  0.1141  0.0238
 2567TIP3    H129192   0.803   4.988  16.602 -0.1800  0.4378 -0.1439
 2567TIP3    H229193   0.796   5.088  16.489  1.8372 -1.0614 -1.6743
 2568TIP3   OH229194   0.427   0.345  13.120  0.0217 -0.2791 -0.5720
 2568TIP3    H129195   0.426   0.313  13.029  0.8046 -0.3548 -0.5616
 2568TIP3    H229196   0.515   0.381  13.132 -0.4516  0.7903 -0.1964
 2569TIP3   OH229197   3.841   1.524   3.237  0.4301  0.6460  0.1708
 2569TIP3    H129198   3.814   1.555   3.151  2.0039  0.2708 -0.4830
 2569TIP3    H229199   3.775   1.560   3.297 -0.7253  0.8481 -1.1786
 2570TIP3   OH229200   0.529   0.081   4.455 -0.1775  0.6581 -0.3926
 2570TIP3    H129201   0.444   0.120   4.475 -0.0231  1.5782 -1.4670
 2570TIP3    H229202   0.533   0.004   4.512 -2.2623 -0.1123 -1.1963
 2571TIP3   OH229203   2.506   5.027   0.857 -0.3822 -0.7856 -0.1961
 2571TIP3    H129204   2.429   5.083   0.870  0.1666 -0.2703  0.9619
 2571TIP3    H229205   2.490   4.951   0.912  0.6146  0.0394  1.2980
 2572TIP3   OH229206   5.444   5.089  16.092 -0.0266 -0.1222 -0.4787
 2572TIP3    H129207   5.362   5.046  16.070  0.7285 -1.0262 -1.6124
 2572TIP3    H229208   5.511   5.021  16.086  0.7921  0.5202  0.7211
 2573TIP3   OH229209   4.801   3.699   0.777  0.0857 -0.0124 -0.6659
 2573TIP3    H129210   4.726   3.707   0.718 -1.2438 -1.0730  0.7752
 2573TIP3    H229211   4.811   3.786   0.815  0.1510  0.3525 -1.4975
 2574TIP3   OH229212   5.739   4.423  17.169 -1.0227 -0.3013  0.3165
 2574TIP3    H129213   5.657   4.410  17.121 -2.0778 -0.6854  2.1142
 2574TIP3    H229214   5.739   4.516  17.191 -1.2017 -0.3701  0.6332
 2575TIP3   OH229215   2.712   4.077   2.535  0.1805 -0.2702  0.3364
 2575TIP3    H129216   2.711   4.049   2.444 -2.2215  0.4788  0.0643
 2575TIP3    H229217   2.766   4.156   2.536  2.4051 -1.6813  0.1260
 2576TIP3   OH229218   3.505   5.651  15.838 -0.0988  0.1658 -0.9042
 2576TIP3    H129219   3.600   5.640  15.831 -0.1964 -0.9298 -0.5892
 2576TIP3    H229220   3.470   5.606  15.761 -0.3144  1.7981 -1.8206
 2577TIP3   OH229221   4.786   1.467   0.571 -0.7539 -0.0004  0.6634
 2577TIP3    H129222   4.704   1.420   0.581 -0.3778 -0.8464 -0.0064
 2577TIP3    H229223   4.837   1.413   0.510 -0.9672  2.1414 -1.5875
 2578TIP3   OH229224   5.406   4.808   6.688  0.3911 -0.0862  0.4362
 2578TIP3    H129225   5.399   4.714   6.706 -2.3604 -0.1609 -0.5571
 2578TIP3    H229226   5.371   4.850   6.767 -0.2860  0.0164  0.0849
 2579TIP3   OH229227   6.325   4.674   6.068  0.1726 -0.2519  0.0148
 2579TIP3    H129228   6.248   4.649   6.119  0.6044 -0.8476  0.3847
 2579TIP3    H229229   6.390   4.702   6.134 -0.5235  2.6399 -0.3907
 2580TIP3   OH229230   0.361   1.313  11.667 -0.2908  0.3173 -0.4136
 2580TIP3    H129231   0.341   1.402  11.638  0.5793  0.9828  0.9235
 2580TIP3    H229232   0.344   1.315  11.762  3.0952  0.1328  0.3203
 2581TIP3   OH229233   5.101   6.796   2.622  0.4123  0.0626  0.2672
 2581TIP3    H129234   5.172   6.801   2.686 -0.5329  0.2726  1.3144
 2581TIP3    H229235   5.027   6.840   2.664 -0.2955 -0.0043 -0.8769
 2582TIP3   OH229236   2.932   2.684   1.146 -0.3160  0.6666 -0.4543
 2582TIP3    H129237   3.006   2.629   1.120  0.4117  1.8990 -1.0660
 2582TIP3    H229238   2.886   2.702   1.064 -0.3837  1.1883 -0.3038
 2583TIP3   OH229239   2.475   5.306  15.479  0.0340  0.3715 -0.5101
 2583TIP3    H129240   2.459   5.332  15.388 -0.1451 -0.6749 -0.7910
 2583TIP3    H229241   2.402   5.344  15.527 -0.7846 -0.4596 -1.0687
 2584TIP3   OH229242   3.968   4.018   5.098  0.0278  0.2048  0.3093
 2584TIP3    H129243   4.047   4.072   5.092  0.9211 -0.7911  2.2813
 2584TIP3    H229244   3.896   4.081   5.097  1.0070  1.4101  1.6346
 2585TIP3   OH229245   5.599   6.650   4.289  0.2563  0.9260 -0.2290
 2585TIP3    H129246   5.694   6.646   4.298  0.1115 -0.0798  1.2411
 2585TIP3    H229247   5.572   6.719   4.350 -0.0719 -0.0611  0.7863
 2586TIP3   OH229248   0.508   2.567   5.358  0.3096 -0.4177  0.3805
 2586TIP3    H129249   0.438   2.593   5.298  0.0773 -1.5519  0.1417
 2586TIP3    H229250   0.557   2.648   5.374  0.0202  0.0249 -0.8652
 2587TIP3   OH229251   6.460   4.299  11.116  0.1809  0.1256 -0.2622
 2587TIP3    H129252   6.492   4.382  11.080  0.5489 -0.5838 -1.6847
 2587TIP3    H229253   6.485   4.234  11.050 -0.1178 -1.1152  0.8056
 2588TIP3   OH229254   1.203   5.369   0.325 -0.2420 -0.6399  0.1373
 2588TIP3    H129255   1.260   5.295   0.345 -0.9586 -1.1180  0.4788
 2588TIP3    H229256   1.204   5.375   0.229  0.2579 -0.7330  0.1343
 2589TIP3   OH229257   2.254   0.527   2.075  0.3108 -0.0325  0.1018
 2589TIP3    H129258   2.291   0.609   2.044  1.6123 -0.2942  0.8795
 2589TIP3    H229259   2.262   0.467   2.000 -0.3122  0.4388 -0.3484
 2590TIP3   OH229260   2.515   4.098   1.758 -0.2439 -0.0682 -0.0239
 2590TIP3    H129261   2.538   4.028   1.820  1.2826 -0.0266 -0.4870
 2590TIP3    H229262   2.575   4.169   1.780 -0.2937  0.2763 -0.9682
 2591TIP3   OH229263   6.785   3.426   2.165 -0.1151  0.4301 -0.1101
 2591TIP3    H129264   6.759   3.337   2.140  0.7421  0.2898 -0.5627
 2591TIP3    H229265   6.715   3.457   2.221  0.6502 -1.4182  2.0393
 2592TIP3   OH229266   2.389   5.696  13.853 -0.4381  0.0001  0.1757
 2592TIP3    H129267   2.347   5.778  13.878  0.0244  0.4880 -0.5924
 2592TIP3    H229268   2.328   5.628  13.881 -2.3649  0.7083 -1.9359
 2593TIP3   OH229269   6.722   2.301  12.783  0.6409 -0.6784 -0.0313
 2593TIP3    H129270   6.728   2.291  12.688  0.6922 -0.7329 -0.0222
 2593TIP3    H229271   6.802   2.259  12.817  0.9214 -0.1316 -0.0014
 2594TIP3   OH229272   4.329   0.781   4.162  0.3266 -0.0564 -0.5232
 2594TIP3    H129273   4.351   0.874   4.158 -0.9585  0.2348 -1.6895
 2594TIP3    H229274   4.295   0.761   4.074 -3.9645 -0.3921  0.9869
 2595TIP3   OH229275   1.074   3.000   1.014  0.0829 -0.2177  0.2730
 2595TIP3    H129276   1.031   3.012   0.929 -1.0014  0.6981  0.9137
 2595TIP3    H229277   1.164   2.978   0.993 -0.1265  0.1534 -1.1107
 2596TIP3   OH229278   0.010   1.852  14.398 -0.4184  0.2425 -0.0727
 2596TIP3    H129279  -0.069   1.797  14.400  0.2611 -0.7559  1.3872
 2596TIP3    H229280   0.082   1.790  14.407  0.4434  1.2849  0.3873
 2597TIP3   OH229281   6.276   2.168  11.966  0.4188  0.3369  0.4422
 2597TIP3    H129282   6.361   2.202  11.995  0.6669  1.5780 -1.5278
 2597TIP3    H229283   6.239   2.239  11.913 -0.5144 -1.2691 -1.1797
 2598TIP3   OH229284   2.503   3.794   4.315 -0.3844 -0.2606 -0.3237
 2598TIP3    H129285   2.594   3.763   4.316  0.3504  1.6944 -1.0784
 2598TIP3    H229286   2.499   3.853   4.239 -1.7555  1.1322  0.7680
 2599TIP3   OH229287   0.495   3.282   5.462 -0.0518 -0.4114 -0.2102
 2599TIP3    H129288   0.476   3.347   5.530  0.4883 -0.4836  0.0125
 2599TIP3    H229289   0.570   3.233   5.496 -1.3525 -2.1729  0.3413
 2600TIP3   OH229290   0.871   2.495  17.101 -0.2340  0.0455 -0.0972
 2600TIP3    H129291   0.789   2.521  17.143 -0.4117 -0.8543  0.1319
 2600TIP3    H229292   0.848   2.419  17.048  0.5494 -0.5430  0.3841
 2601TIP3   OH229293   3.571   4.694  11.968 -0.4097 -0.0497 -0.0610
 2601TIP3    H129294   3.548   4.674  11.877  0.2628 -2.2451  0.1895
 2601TIP3    H229295   3.567   4.789  11.974 -1.9843  0.0629 -1.9727
 2602TIP3   OH229296   4.809   2.095  17.015 -0.2035  0.8252  0.5244
 2602TIP3    H129297   4.794   2.005  17.045  1.9259 -0.6081 -2.1568
 2602TIP3    H229298   4.905   2.103  17.011 -0.2516  1.5469 -3.4210
 2603TIP3   OH229299   3.324   1.496   0.720  0.5100  0.1054  0.3045
 2603TIP3    H129300   3.348   1.566   0.659  0.6041 -1.5522 -1.6936
 2603TIP3    H229301   3.392   1.498   0.787  0.8324  1.5327 -0.0474
 2604TIP3   OH229302   3.258   5.769  17.141 -0.2654 -0.5380 -0.0591
 2604TIP3    H129303   3.279   5.678  17.161  1.2973 -0.0555  0.6709
 2604TIP3    H229304   3.281   5.779  17.048  1.6021 -0.3866  0.3784
 2605TIP3   OH229305   2.043   4.262   2.945  0.0238  0.3349 -0.0599
 2605TIP3    H129306   2.052   4.305   2.860 -0.2430 -1.1567 -0.8792
 2605TIP3    H229307   1.948   4.263   2.961 -0.4487 -2.8545 -1.7547
 2606TIP3   OH229308   1.617   4.278   2.667 -0.2458 -0.6661 -0.1435
 2606TIP3    H129309   1.601   4.219   2.741  1.1283 -1.4067 -0.3991
 2606TIP3    H229310   1.712   4.277   2.656 -0.1976  1.5543 -0.2246
 2607TIP3   OH229311   1.750   1.990  11.527 -0.9490  0.3025 -0.1839
 2607TIP3    H129312   1.733   1.917  11.467 -0.6295  1.0751 -1.2318
 2607TIP3    H229313   1.665   2.008  11.567 -1.3507  0.2891 -0.9995
 2608TIP3   OH229314   4.016   5.259  12.643 -0.0993 -0.8190 -0.0842
 2608TIP3    H129315   4.021   5.344  12.599  0.2027 -0.2987  0.9198
 2608TIP3    H229316   3.931   5.260  12.687 -0.1567 -1.0942 -0.1881
 2609TIP3   OH229317   6.373   4.522   3.462  0.3211  0.0773  0.0675
 2609TIP3    H129318   6.300   4.552   3.408  0.6657 -0.0414 -0.4795
 2609TIP3    H229319   6.424   4.466   3.404  2.8902  3.0208 -0.7925
 2610TIP3   OH229320   6.784   4.850   2.383 -0.0471 -0.1013  0.5003
 2610TIP3    H129321   6.776   4.756   2.401  3.0196 -0.5068  0.2310
 2610TIP3    H229322   6.861   4.857   2.328 -0.7962  2.5353 -0.3633
 2611TIP3   OH229323   2.938   3.872  15.860  0.2866 -0.1255  0.1526
 2611TIP3    H129324   2.896   3.948  15.821 -0.0803 -0.1399  0.5111
 2611TIP3    H229325   2.905   3.797  15.810  0.4391 -0.0739 -0.0254
 2612TIP3   OH229326   1.188   5.194   1.417  0.2908 -0.7628  0.1274
 2612TIP3    H129327   1.243   5.169   1.343  1.7038 -0.0833  0.9060
 2612TIP3    H229328   1.167   5.111   1.460  1.1150 -1.0085  0.0788
 2613TIP3   OH229329   6.544   0.061   3.575  0.5598  0.0381 -0.5073
 2613TIP3    H129330   6.491   0.078   3.498 -0.5258 -2.3787 -0.3848
 2613TIP3    H229331   6.483   0.068   3.649  0.7644 -1.0138 -0.2121
 2614TIP3   OH229332   4.008   2.765   4.888  0.4787  0.2086 -0.2600
 2614TIP3    H129333   3.998   2.859   4.872  0.1821  0.2469  0.1345
 2614TIP3    H229334   3.954   2.748   4.965 -1.2603 -0.6762 -1.5771
 2615TIP3   OH229335   3.925   5.546  11.398 -0.0637 -0.1353 -0.0509
 2615TIP3    H129336   3.853   5.538  11.335 -1.8817 -1.7509  2.0832
 2615TIP3    H229337   3.958   5.635  11.384 -4.2987  1.8026  0.6384
 2616TIP3   OH229338   6.034   4.269  13.113 -0.1385  0.6449  0.3341
 2616TIP3    H129339   5.954   4.278  13.061 -0.2845  1.8141  0.7295
 2616TIP3    H229340   6.092   4.216  13.059 -1.1211 -0.0741 -0.0292
 2617TIP3   OH229341   5.830   4.612  12.034  0.3171  0.0967  0.4538
 2617TIP3    H129342   5.888   4.653  12.098  0.9717 -1.4076  0.8703
 2617TIP3    H229343   5.868   4.525  12.019 -2.7468 -1.6692  2.0857
 2618TIP3   OH229344   2.300   4.762  12.868  0.3700  0.5268 -0.3363
 2618TIP3    H129345   2.367   4.823  12.899  1.0280  0.0025 -0.7320
 2618TIP3    H229346   2.327   4.677  12.901  0.9871 -0.0260 -2.1660
 2619TIP3   OH229347   6.398   5.443   2.178 -0.3566  0.6032 -0.0113
 2619TIP3    H129348   6.477   5.415   2.132 -1.5599 -1.9874 -0.6603
 2619TIP3    H229349   6.408   5.405   2.266 -0.7014  0.6105  0.0289
 2620TIP3   OH229350   2.496   3.632  16.983 -0.0400 -0.0605  0.1625
 2620TIP3    H129351   2.455   3.576  16.917 -0.2855  1.1844 -0.7734
 2620TIP3    H229352   2.524   3.572  17.052  0.0172 -1.3647 -0.9730
 2621TIP3   OH229353   6.188   4.849   0.009 -0.4912 -0.1512 -0.8880
 2621TIP3    H129354   6.115   4.910   0.004 -0.1205  0.3027 -0.8011
 2621TIP3    H229355   6.182   4.810   0.096 -0.7486 -0.2674 -0.9572
 2622TIP3   OH229356   3.511   0.193  13.575  0.0070 -0.1508 -0.0889
 2622TIP3    H129357   3.491   0.241  13.495  1.8964 -2.0239 -1.8045
 2622TIP3    H229358   3.606   0.181  13.574  0.1155 -0.1750  2.5126
 2623TIP3   OH229359   5.208   4.241   0.022  0.1300  0.4018  0.3172
 2623TIP3    H129360   5.128   4.258   0.073 -1.0994 -1.3710 -0.9001
 2623TIP3    H229361   5.229   4.325  -0.018 -1.3618  0.8281  0.3666
 2624TIP3   OH229362   4.409   0.403  15.599 -0.0498 -0.3993  0.3603
 2624TIP3    H129363   4.380   0.328  15.650 -0.1110 -0.1309  0.7218
 2624TIP3    H229364   4.343   0.411  15.529 -0.7374  0.0658  1.0389
 2625TIP3   OH229365   4.471   0.435   0.420  0.1972  0.2209  0.2174
 2625TIP3    H129366   4.414   0.372   0.465  0.7876  0.3864  1.2352
 2625TIP3    H229367   4.413   0.506   0.393 -0.4391 -0.6473 -0.7394
 2626TIP3   OH229368   1.776   6.432   1.114  0.7643  0.8407 -0.4215
 2626TIP3    H129369   1.710   6.382   1.065 -1.1020  1.2554  1.5321
 2626TIP3    H229370   1.757   6.413   1.206  2.5366  2.0591  0.2346
 2627TIP3   OH229371   2.847   0.031  11.153 -0.4480 -0.3037  0.1738
 2627TIP3    H129372   2.859  -0.040  11.216  2.0301  0.1917  0.3657
 2627TIP3    H229373   2.752   0.045  11.150 -0.8299 -2.0991  1.7904
 2628TIP3   OH229374   3.273   1.180   3.314 -0.2807  0.6456 -0.2715
 2628TIP3    H129375   3.187   1.173   3.272 -0.8099  0.4823  0.8114
 2628TIP3    H229376   3.334   1.140   3.251 -1.0715  0.2716 -0.8142
 2629TIP3   OH229377   2.741   1.713  15.494 -0.1203  0.8024  0.4970
 2629TIP3    H129378   2.660   1.706  15.443  0.1807  2.2809 -0.2374
 2629TIP3    H229379   2.793   1.779  15.448  1.2710  0.2952  1.2809
 2630TIP3   OH229380   5.786   4.980   0.496  0.6751  0.0912 -0.5486
 2630TIP3    H129381   5.850   5.014   0.433  0.9685  1.9781  0.6670
 2630TIP3    H229382   5.724   5.053   0.508  1.2941  0.2614  2.1627
 2631TIP3   OH229383   3.624   0.583  12.378 -0.4551  0.3952 -0.2983
 2631TIP3    H129384   3.682   0.564  12.304  0.0206  0.1166  0.1446
 2631TIP3    H229385   3.551   0.522  12.367 -0.1091 -0.0365 -0.2301
 2632TIP3   OH229386   4.470   3.710   0.044 -0.0469  0.2828  0.0922
 2632TIP3    H129387   4.471   3.645  -0.026 -0.4730  1.9513 -1.5159
 2632TIP3    H229388   4.379   3.712   0.074 -0.0591  0.2240  0.0591
 2633TIP3   OH229389   1.907   5.621   1.663  0.0906 -0.3901 -0.2475
 2633TIP3    H129390   1.917   5.538   1.710 -0.1934 -0.5688 -0.5030
 2633TIP3    H229391   1.992   5.664   1.673 -0.4882  0.3682  1.9385
 2634TIP3   OH229392   0.967   2.531   1.657 -0.2924 -0.1718 -0.2294
 2634TIP3    H129393   0.898   2.581   1.700  0.5113  1.7649 -1.0881
 2634TIP3    H229394   1.043   2.542   1.714 -0.2817 -1.0556 -0.0573
 2635TIP3   OH229395   5.191   6.061  14.554 -0.2548 -0.2255 -0.3973
 2635TIP3    H129396   5.107   6.022  14.577  0.5688 -2.4315 -0.9149
 2635TIP3    H229397   5.176   6.155  14.560 -2.1125 -0.5813  1.7329
 2636TIP3   OH229398   0.970   4.107  10.763 -0.0608  0.0382  0.0669
 2636TIP3    H129399   1.044   4.123  10.705  0.5567 -1.0533  0.5347
 2636TIP3    H229400   0.956   4.190  10.808 -0.2316  0.7519 -1.2677
 2637TIP3   OH229401   0.726   1.725  15.922 -0.2411  0.2144 -0.0496
 2637TIP3    H129402   0.793   1.730  15.990 -0.2684 -0.3953  0.0277
 2637TIP3    H229403   0.775   1.728  15.840  0.1642 -2.9026 -0.0307
 2638TIP3   OH229404   4.260   1.724  15.692 -0.1675 -0.0223  0.1465
 2638TIP3    H129405   4.343   1.712  15.644 -0.7244 -0.2846 -0.7846
 2638TIP3    H229406   4.244   1.638  15.732 -0.8223 -0.4845 -1.0637
 2639TIP3   OH229407   1.303   0.727   1.459 -0.5848 -0.1992 -0.5349
 2639TIP3    H129408   1.345   0.767   1.535  0.7704 -0.9192 -0.8756
 2639TIP3    H229409   1.320   0.634   1.469  0.0357 -0.2563 -1.9625
 2640TIP3   OH229410   3.362   1.945   3.196  0.0781 -0.6824  0.0365
 2640TIP3    H129411   3.363   1.909   3.285 -1.6747  1.5935  1.1009
 2640TIP3    H229412   3.443   1.913   3.156  1.5140 -0.8948  2.8486
 2641TIP3   OH229413   5.418   3.049   0.269 -0.7589 -0.2174 -0.2400
 2641TIP3    H129414   5.399   2.956   0.259 -1.7398 -0.2073  1.2384
 2641TIP3    H229415   5.335   3.088   0.296 -0.0385  0.8503  0.5416
 2642TIP3   OH229416   1.188   6.622   1.919  0.0851 -0.5892 -0.0013
 2642TIP3    H129417   1.124   6.625   1.848  0.7266 -0.7682 -0.5953
 2642TIP3    H229418   1.173   6.538   1.962 -2.2877  0.6805  1.9871
 2643TIP3   OH229419   1.491   2.950   3.240 -0.0124 -0.0821  0.2864
 2643TIP3    H129420   1.558   3.018   3.234  0.2026 -0.3505 -0.5319
 2643TIP3    H229421   1.408   2.997   3.226  0.0440  0.1712  0.7850
 2644TIP3   OH229422   3.659   6.127  11.880  0.6292 -0.4522  0.3015
 2644TIP3    H129423   3.690   6.204  11.926 -2.3621 -0.4994  2.7384
 2644TIP3    H229424   3.698   6.053  11.927 -0.6848 -0.4413  1.4990
 2645TIP3   OH229425   5.480   1.179   0.738  0.3725  0.5636 -0.1313
 2645TIP3    H129426   5.438   1.253   0.693 -0.1163  1.2582  1.3769
 2645TIP3    H229427   5.414   1.109   0.735  1.0346 -0.0251 -2.0155
 2646TIP3   OH229428   5.802   0.278  14.866 -0.7699  0.4224  0.0167
 2646TIP3    H129429   5.847   0.326  14.796 -0.4387  0.4748  0.2620
 2646TIP3    H229430   5.710   0.280  14.841 -0.4611 -1.2370 -1.4429
 2647TIP3   OH229431   6.008   4.722  12.222 -0.4558  0.0125  0.1281
 2647TIP3    H129432   6.093   4.733  12.179 -0.6325  0.3332 -0.1408
 2647TIP3    H229433   5.998   4.800  12.276 -1.0518  0.4917 -0.6557
 2648TIP3   OH229434   5.197   4.133  10.716  0.7481  0.1488 -0.0036
 2648TIP3    H129435   5.109   4.151  10.682 -0.6307  0.3098  3.2453
 2648TIP3    H229436   5.207   4.038  10.709  0.1810  0.0984 -0.1587
 2649TIP3   OH229437   1.000   5.246  13.543 -0.6825 -0.5996 -0.0899
 2649TIP3    H129438   0.994   5.342  13.546  0.4165 -0.4320 -1.8902
 2649TIP3    H229439   0.919   5.219  13.500 -0.1015 -0.3025 -1.4053
 2650TIP3   OH229440   2.147   1.485  13.948 -0.0442 -0.4940  0.1855
 2650TIP3    H129441   2.241   1.493  13.931  0.2406 -0.4249  1.6553
 2650TIP3    H229442   2.116   1.575  13.954 -0.4852 -0.4859 -1.5085
 2651TIP3   OH229443   0.806   3.520  15.059 -0.1348  0.2185 -0.2901
 2651TIP3    H129444   0.876   3.459  15.036  0.0735  0.2383  0.2553
 2651TIP3    H229445   0.843   3.607  15.044 -0.1626  0.2227 -0.3345
 2652TIP3   OH229446   4.802   2.344   3.804  0.0005 -0.1624 -0.3782
 2652TIP3    H129447   4.824   2.262   3.761 -0.0185 -0.7519  0.6919
 2652TIP3    H229448   4.752   2.318   3.882 -2.6099  1.0084 -1.5519
 2653TIP3   OH229449   1.568   1.410   1.218 -0.1987 -0.1376 -0.2630
 2653TIP3    H129450   1.530   1.349   1.155 -0.8843  2.1223 -2.2099
 2653TIP3    H229451   1.492   1.448   1.263  0.2474 -1.0978  1.3561
 2654TIP3   OH229452   0.659   6.368   3.585  0.2609 -0.0128 -0.5243
 2654TIP3    H129453   0.720   6.326   3.646 -0.8717 -1.2063 -0.1703
 2654TIP3    H229454   0.573   6.332   3.607 -0.5994  1.6037 -1.0277
 2655TIP3   OH229455   5.015   0.201  15.151  0.2360  0.5037  0.1794
 2655TIP3    H129456   5.028   0.111  15.182 -0.9356 -0.4843 -1.9510
 2655TIP3    H229457   4.931   0.227  15.189  0.4572  0.6029  0.6018
 2656TIP3   OH229458   5.819   4.699  16.400 -0.0280  0.0339 -0.2871
 2656TIP3    H129459   5.866   4.749  16.466 -1.2951 -0.8266  1.3362
 2656TIP3    H229460   5.850   4.609  16.412 -1.6478 -0.4482  0.4436
 2657TIP3   OH229461   3.993   1.567   5.852  0.4135  0.2414 -0.0987
 2657TIP3    H129462   3.988   1.631   5.780  0.8680  2.2333  1.5307
 2657TIP3    H229463   3.923   1.594   5.912  2.2427  0.9004  1.8554
 2658TIP3   OH229464   5.882   0.318   3.420  1.3104 -0.6778  0.7066
 2658TIP3    H129465   5.954   0.332   3.358 -0.2009  0.0210 -0.9638
 2658TIP3    H229466   5.803   0.318   3.366 -0.3327  2.3937  2.7797
 2659TIP3   OH229467   1.523   5.455   5.260  0.4571 -0.1163 -0.1458
 2659TIP3    H129468   1.480   5.394   5.199 -0.1809 -1.4132  1.5321
 2659TIP3    H229469   1.616   5.431   5.256  0.6491  0.7427 -1.5946
 2660TIP3   OH229470   6.177   4.479  13.632 -0.2130  0.4970 -0.3600
 2660TIP3    H129471   6.233   4.553  13.609 -0.0529  0.6687  0.5560
 2660TIP3    H229472   6.167   4.485  13.727 -0.6745 -0.3224 -0.3488
 2661TIP3   OH229473   3.226   4.082   1.898 -0.0576  0.4642  0.4696
 2661TIP3    H129474   3.169   4.074   1.974  2.1850 -1.4551  2.1079
 2661TIP3    H229475   3.315   4.079   1.935  1.1556 -1.9071 -2.2714
 2662TIP3   OH229476   4.624   5.066   3.888 -1.0364 -0.2430 -0.1804
 2662TIP3    H129477   4.612   5.003   3.817  0.1996 -0.3896 -0.2898
 2662TIP3    H229478   4.577   5.144   3.859 -1.9462 -0.8522 -0.3875
 2663TIP3   OH229479   2.241   6.211   2.465  0.5520  0.5477  0.1232
 2663TIP3    H129480   2.302   6.145   2.498 -0.2433 -0.4766 -0.3965
 2663TIP3    H229481   2.168   6.209   2.527 -0.4578 -0.6252 -1.0662
 2664TIP3   OH229482   3.343   5.239   2.626 -0.2214 -0.1258  0.1389
 2664TIP3    H129483   3.292   5.217   2.548 -0.8229 -1.1535  0.8064
 2664TIP3    H229484   3.279   5.237   2.698  0.6624 -0.9577  0.9201
 2665TIP3   OH229485   3.403   5.725   0.237  0.3800 -0.9455 -0.1727
 2665TIP3    H129486   3.406   5.645   0.184  0.7325 -2.6977  2.3007
 2665TIP3    H229487   3.323   5.716   0.289  0.3337  0.4248  0.0290
 2666TIP3   OH229488   5.704   4.719   1.319  0.2115 -0.8320 -0.0283
 2666TIP3    H129489   5.741   4.677   1.396  1.6329  0.6424  0.1610
 2666TIP3    H229490   5.668   4.802   1.352  2.9567  0.9585 -1.1780
 2667TIP3   OH229491   2.833   1.401  13.115 -0.5189  0.1984 -0.2842
 2667TIP3    H129492   2.880   1.366  13.039 -0.8108  1.6562 -1.1807
 2667TIP3    H229493   2.888   1.472  13.147 -0.7877  0.1169  0.3805
 2668TIP3   OH229494   0.589   0.983  11.167  0.0014 -0.6761 -0.3209
 2668TIP3    H129495   0.593   0.997  11.072  0.3241 -0.2220 -0.2440
 2668TIP3    H229496   0.624   1.064  11.204  4.2120 -2.4672  0.1344
 2669TIP3   OH229497   5.153   4.017  13.844  0.6023  0.4811 -0.1043
 2669TIP3    H129498   5.066   4.028  13.806 -0.7163 -1.3367  2.2078
 2669TIP3    H229499   5.158   4.084  13.912  0.1075 -0.7975  1.2215
 2670TIP3   OH229500   0.638   1.839  12.764  0.0345  0.3868  0.0679
 2670TIP3    H129501   0.722   1.843  12.718  0.1603  0.7014  0.3227
 2670TIP3    H229502   0.662   1.823  12.855 -0.2119 -0.1804  0.0358
 2671TIP3   OH229503   3.441   2.196  13.356 -0.4352 -0.0663  0.5509
 2671TIP3    H129504   3.371   2.210  13.419 -1.9164 -1.9681 -0.5776
 2671TIP3    H229505   3.471   2.107  13.372  0.6135  0.1586 -0.0575
 2672TIP3   OH229506   2.876   1.584   4.849 -0.0193 -0.1982  0.0609
 2672TIP3    H129507   2.840   1.665   4.814  0.6311  0.4457  0.8664
 2672TIP3    H229508   2.853   1.517   4.784  0.4966  0.8302 -1.2100
 2673TIP3   OH229509   2.151   4.603   2.245 -0.3152 -0.1495  0.3084
 2673TIP3    H129510   2.135   4.652   2.325  1.3840 -0.2019  0.7142
 2673TIP3    H229511   2.222   4.543   2.267  0.8202  0.4635 -1.4686
 2674TIP3   OH229512   4.631   4.572   3.247  0.0287 -0.3863  0.0668
 2674TIP3    H129513   4.617   4.535   3.334  0.0609 -0.4023  0.0655
 2674TIP3    H229514   4.544   4.581   3.210 -0.0629  0.5570  0.4842
 2675TIP3   OH229515   3.697   3.770  14.642 -0.4569 -0.0681  0.2987
 2675TIP3    H129516   3.749   3.851  14.634 -0.9542  0.2515  0.2498
 2675TIP3    H229517   3.762   3.700  14.638 -0.0931  0.2991 -0.4916
 2676TIP3   OH229518   2.996   4.269  14.622 -0.5051  0.0302  0.3807
 2676TIP3    H129519   2.947   4.349  14.602 -1.5028 -0.9183 -1.1517
 2676TIP3    H229520   2.939   4.220  14.681 -0.5050 -0.1770  0.2077
 2677TIP3   OH229521   2.635   1.439   3.106  0.3700  0.0932 -0.7174
 2677TIP3    H129522   2.582   1.362   3.125 -0.7021  0.8268 -0.6161
 2677TIP3    H229523   2.713   1.429   3.160  0.7830 -1.4480 -1.5325
 2678TIP3   OH229524   1.009   0.330   1.282 -0.5098 -0.5960  0.2222
 2678TIP3    H129525   0.937   0.391   1.261  0.8827  1.8877  2.1208
 2678TIP3    H229526   1.020   0.338   1.376  3.0301  0.1562 -0.1142
 2679TIP3   OH229527   0.818   4.965   0.006  0.9356 -0.0806  0.1696
 2679TIP3    H129528   0.808   4.875  -0.027  0.0503  0.5328 -1.3025
 2679TIP3    H229529   0.728   4.995   0.021  1.2562  0.2171  1.7471
 2680TIP3   OH229530   1.262   5.351  13.789 -0.4659 -0.0542  0.2993
 2680TIP3    H129531   1.298   5.291  13.855 -1.1235 -2.7232 -1.5835
 2680TIP3    H229532   1.274   5.305  13.706 -2.7205  1.6202 -1.0710
 2681TIP3   OH229533   6.670   6.398  14.405 -0.8640  0.4382  0.1178
 2681TIP3    H129534   6.730   6.441  14.466  0.4247  0.5961 -1.1900
 2681TIP3    H229535   6.692   6.305  14.411  0.5220  0.6282 -1.3351
 2682TIP3   OH229536   0.680   0.146   3.278  0.1852 -0.2954  0.7260
 2682TIP3    H129537   0.694   0.116   3.188 -0.6328  0.6149  0.2751
 2682TIP3    H229538   0.665   0.066   3.328 -1.7150 -0.7095 -0.3923
 2683TIP3   OH229539   4.552   3.652   5.091  0.3687 -0.3767  0.5149
 2683TIP3    H129540   4.642   3.648   5.123  0.6186  0.2915 -0.0911
 2683TIP3    H229541   4.499   3.624   5.166  1.1320 -1.7901  0.5473
 2684TIP3   OH229542   0.265   2.900  14.211 -0.1426 -0.0108 -0.2134
 2684TIP3    H129543   0.215   2.915  14.290 -0.8725 -0.2307 -0.6260
 2684TIP3    H229544   0.228   2.960  14.146 -0.1517 -0.4536 -0.6310
 2685TIP3   OH229545   3.259   6.199  12.425 -0.4315  0.1106 -0.0650
 2685TIP3    H129546   3.261   6.275  12.483 -1.6727  0.6124 -0.6415
 2685TIP3    H229547   3.202   6.136  12.471  0.7417 -0.5829  0.5033
 2686TIP3   OH229548   6.057   6.583  16.913 -0.2153  0.3951  0.0762
 2686TIP3    H129549   6.069   6.488  16.918 -0.4987  0.2752 -1.1304
 2686TIP3    H229550   6.147   6.617  16.910 -0.0659 -0.0184 -1.7373
 2687TIP3   OH229551   5.493   0.907   5.759  0.0750 -0.1259  0.6355
 2687TIP3    H129552   5.578   0.950   5.774 -0.8931  1.5196  1.6112
 2687TIP3    H229553   5.509   0.852   5.682  1.4955  1.7271 -0.5039
 2688TIP3   OH229554   2.547   4.803   1.146  0.3538 -0.1838 -0.7719
 2688TIP3    H129555   2.550   4.735   1.078  0.4324  1.0771 -2.0705
 2688TIP3    H229556   2.454   4.812   1.166  0.4204 -1.4559  0.2658
 2689TIP3   OH229557   4.505   1.577  15.635  0.0810 -0.5045  0.2193
 2689TIP3    H129558   4.547   1.508  15.583  1.3808  0.5492 -0.2023
 2689TIP3    H229559   4.570   1.599  15.701  0.1362  1.0245 -0.3048
 2690TIP3   OH229560   6.300   1.818  16.718 -0.6571  0.6188 -0.4524
 2690TIP3    H129561   6.326   1.838  16.808 -0.0825  0.7782 -0.6535
 2690TIP3    H229562   6.331   1.892  16.666  0.9935 -0.4880 -1.1218
 2691TIP3   OH229563   2.527   1.087   1.834 -0.0294  0.0449  0.4418
 2691TIP3    H129564   2.608   1.046   1.863  0.7988  0.9215 -0.5753
 2691TIP3    H229565   2.554   1.170   1.794 -1.5100  0.8058  0.9294
 2692TIP3   OH229566   2.880   4.893  11.641 -0.5957  0.2784  0.5164
 2692TIP3    H129567   2.878   4.948  11.719 -0.9296 -0.3797  0.9893
 2692TIP3    H229568   2.965   4.849  11.643 -0.9754 -0.4622  1.0448
 2693TIP3   OH229569   6.001   5.024  10.615 -0.0917  0.1202 -0.1258
 2693TIP3    H129570   6.053   5.059  10.687 -2.7930  2.8732  0.7097
 2693TIP3    H229571   6.033   5.071  10.538 -0.1661  0.5161  0.0812
 2694TIP3   OH229572   2.875   0.437   2.438  0.1979 -0.1215  0.4093
 2694TIP3    H129573   2.873   0.528   2.466  0.0875 -0.4255  1.4024
 2694TIP3    H229574   2.851   0.441   2.345 -2.6546  0.6388  1.0621
 2695TIP3   OH229575   5.376   3.951   3.965 -0.0196  0.0950  0.5734
 2695TIP3    H129576   5.352   3.877   4.021  0.1325  0.6786  1.4450
 2695TIP3    H229577   5.307   4.015   3.980  0.0458  0.2734  0.1146
 2696TIP3   OH229578   2.673   2.152  12.903  0.3215 -0.4469  0.4578
 2696TIP3    H129579   2.700   2.167  12.812  2.8057 -0.9472  1.0547
 2696TIP3    H229580   2.577   2.144  12.898  0.4697 -1.6710 -2.2696
 2697TIP3   OH229581   0.901   4.420   2.465 -0.6278 -0.2863 -0.0460
 2697TIP3    H129582   0.986   4.395   2.430 -0.3521 -0.1446  0.5066
 2697TIP3    H229583   0.845   4.432   2.388 -0.8471 -2.8010 -0.3479
 2698TIP3   OH229584   2.480   0.762  15.471 -0.0907 -0.2281  0.1075
 2698TIP3    H129585   2.455   0.725  15.556 -2.0488  0.0890 -0.2708
 2698TIP3    H229586   2.536   0.836  15.492  0.6476 -1.0286  1.0467
 2699TIP3   OH229587   5.408   3.998  13.414  0.6982 -0.7323 -0.3046
 2699TIP3    H129588   5.387   4.026  13.503  0.5643  0.0684 -0.5760
 2699TIP3    H229589   5.343   3.931  13.393  0.8363 -1.0475  0.2570
 2700TIP3   OH229590   6.770   5.678   0.463  0.1744  1.3725  0.1397
 2700TIP3    H129591   6.708   5.746   0.487  0.2071  0.8135  1.9706
 2700TIP3    H229592   6.717   5.599   0.455  0.3790  1.2736 -0.2855
 2701TIP3   OH229593   2.771   4.979   3.329  0.3640  0.2692  0.2886
 2701TIP3    H129594   2.816   5.062   3.339  0.3308  0.2648  0.4816
 2701TIP3    H229595   2.678   5.002   3.324  0.5051  0.7940 -5.2280
 2702TIP3   OH229596   1.855   5.355   5.510 -0.2562  0.0135  0.8511
 2702TIP3    H129597   1.821   5.354   5.421 -1.4827 -0.8625  1.3051
 2702TIP3    H229598   1.810   5.427   5.553  1.5770  1.5305  0.3378
 2703TIP3   OH229599   3.903   3.532  16.853 -0.0879  0.1894  0.0525
 2703TIP3    H129600   3.934   3.578  16.931  0.9837 -1.2945  0.5286
 2703TIP3    H229601   3.979   3.484  16.821 -0.5995  0.4711 -1.7197
 2704TIP3   OH229602   6.720   0.747  17.026  0.1741  0.2793  0.5797
 2704TIP3    H129603   6.711   0.654  17.007 -0.2547  0.6550 -1.2216
 2704TIP3    H229604   6.752   0.750  17.116 -0.6102 -1.5821  0.9715
 2705TIP3   OH229605   4.594   5.936   3.650 -0.0440 -0.0284 -0.5675
 2705TIP3    H129606   4.616   5.904   3.562  0.1851  0.0925 -0.5545
 2705TIP3    H229607   4.498   5.931   3.654 -0.0326 -0.3777 -0.6928
 2706TIP3   OH229608   4.978   1.752  15.214  0.4184 -0.0248 -0.1945
 2706TIP3    H129609   4.984   1.781  15.123 -0.2168 -0.8947 -0.5242
 2706TIP3    H229610   4.946   1.662  15.209  1.8915 -0.6602  0.8143
 2707TIP3   OH229611   3.214   4.379  11.417 -0.4289  0.0175 -0.1373
 2707TIP3    H129612   3.182   4.293  11.442  1.4519 -0.1831  1.8003
 2707TIP3    H229613   3.134   4.431  11.406 -1.5398 -1.0435  2.2112
 2708TIP3   OH229614   4.577   2.896  15.294  0.1342 -0.4357 -0.3152
 2708TIP3    H129615   4.598   2.902  15.201 -1.5045  1.5364 -0.6186
 2708TIP3    H229616   4.484   2.874  15.297 -0.1280  0.6835  0.7992
 2709TIP3   OH229617   5.699   3.101  16.147  0.0743  0.2193 -0.2448
 2709TIP3    H129618   5.651   3.025  16.179 -0.8186  0.8613  0.0032
 2709TIP3    H229619   5.649   3.131  16.071  1.6414 -0.7145 -1.6953
 2710TIP3   OH229620   2.041   4.980   1.162 -0.2924  0.1378  0.1710
 2710TIP3    H129621   1.978   5.027   1.216  0.2201 -0.2081  1.0937
 2710TIP3    H229622   2.061   5.041   1.090 -3.3828 -0.6045 -1.5117
 2711TIP3   OH229623   3.670   4.686  16.068 -0.7288  0.1342  0.2045
 2711TIP3    H129624   3.640   4.718  16.153  0.0337  1.4395  0.0109
 2711TIP3    H229625   3.691   4.766  16.019  0.7836 -0.6389 -0.4756
 2712TIP3   OH229626   4.968   0.539   3.619 -1.1300  0.0463  0.1956
 2712TIP3    H129627   4.956   0.630   3.595 -0.1165  0.0431 -0.3484
 2712TIP3    H229628   5.027   0.541   3.694 -2.3971 -0.0867  1.2438
 2713TIP3   OH229629   4.034   0.656  13.486 -0.0543  0.1500  0.3251
 2713TIP3    H129630   4.011   0.573  13.444  0.1063  0.7917 -1.1063
 2713TIP3    H229631   4.073   0.631  13.570 -0.1489 -1.2108 -0.0145
 2714TIP3   OH229632   3.215   5.249  14.572  0.3026  0.6446 -0.1290
 2714TIP3    H129633   3.188   5.221  14.659  0.8570 -2.2814 -0.7673
 2714TIP3    H229634   3.146   5.217  14.514  0.6576  1.2463 -0.9107
 2715TIP3   OH229635   4.140   2.119   1.680 -0.0375 -0.0456 -0.4364
 2715TIP3    H129636   4.189   2.052   1.632  0.5943  0.3887 -0.4093
 2715TIP3    H229637   4.099   2.071   1.752 -0.7610 -0.6562 -1.2186
 2716TIP3   OH229638   1.025   1.812   3.691 -0.4370  0.0342  0.4591
 2716TIP3    H129639   1.009   1.896   3.732 -0.0698 -0.0663  0.8106
 2716TIP3    H229640   0.945   1.793   3.642 -0.5411  0.5558  0.4303
 2717TIP3   OH229641   6.422   3.754  15.678 -0.1688 -0.2059 -0.2703
 2717TIP3    H129642   6.369   3.683  15.714 -0.8312 -0.3890 -1.5555
 2717TIP3    H229643   6.437   3.813  15.752 -0.9877 -0.8591  0.4376
 2718TIP3   OH229644   3.946   5.471  14.751  0.2060 -0.2387  0.3311
 2718TIP3    H129645   3.916   5.419  14.825 -0.2580 -0.2125  0.1659
 2718TIP3    H229646   3.967   5.557  14.788  0.3865 -0.3546  0.4998
 2719TIP3   OH229647   0.423   1.426  16.633  0.2689  0.5467  0.0613
 2719TIP3    H129648   0.359   1.391  16.695 -1.0747  1.3437 -0.8218
 2719TIP3    H229649   0.374   1.491  16.582  1.6214  0.7181 -1.0771
 2720TIP3   OH229650   3.626   1.816   3.182 -0.0626  0.0356  0.4126
 2720TIP3    H129651   3.625   1.739   3.238  2.0723 -0.7393 -0.5125
 2720TIP3    H229652   3.667   1.884   3.235  1.5730 -0.5802 -0.0087
 2721TIP3   OH229653   4.646   3.923  14.271  0.2320  0.6161  0.5063
 2721TIP3    H129654   4.565   3.904  14.223  0.5556  0.7516 -0.0981
 2721TIP3    H229655   4.697   3.842  14.266  0.2995  0.6557  0.5504
 2722TIP3   OH229656   1.139   6.623  14.896  0.3307 -0.4806  0.1950
 2722TIP3    H129657   1.163   6.634  14.804  1.4297  0.9800  0.6207
 2722TIP3    H229658   1.218   6.584  14.935  0.3235  0.0426  0.7375
 2723TIP3   OH229659   1.514   5.952   4.103 -0.4849  0.0395 -0.4567
 2723TIP3    H129660   1.544   5.947   4.193  0.6725 -1.1906 -0.8732
 2723TIP3    H229661   1.504   5.861   4.075  0.8599  0.3082 -2.0607
 2724TIP3   OH229662   4.949   4.728   2.334  0.1055  0.2888  0.5967
 2724TIP3    H129663   4.918   4.695   2.249  0.1281 -0.8033  0.9970
 2724TIP3    H229664   4.869   4.747   2.383  0.0616 -1.1152  1.0931
 2725TIP3   OH229665   0.407   5.292   6.200 -0.2025  0.5890 -0.0246
 2725TIP3    H129666   0.427   5.303   6.107  0.9217 -2.0089 -0.1728
 2725TIP3    H229667   0.380   5.379   6.229  1.2707  1.9245 -2.3285
 2726TIP3   OH229668   0.556   6.508  16.213 -0.0454 -0.3099  0.0247
 2726TIP3    H129669   0.632   6.563  16.232  0.3833 -1.2204  1.0393
 2726TIP3    H229670   0.527   6.477  16.299 -0.0427 -1.9461 -0.5320
 2727TIP3   OH229671   0.237   2.183   0.413  0.4872 -0.2760 -0.4475
 2727TIP3    H129672   0.198   2.109   0.458  1.5402 -2.2652 -2.5756
 2727TIP3    H229673   0.166   2.219   0.360  0.2517 -0.4933 -0.2806
 2728TIP3   OH229674   6.278   5.733  10.915 -0.0636  0.3339  0.0705
 2728TIP3    H129675   6.187   5.704  10.901 -0.4271  0.9981  0.9756
 2728TIP3    H229676   6.292   5.800  10.849 -0.6368  1.0685  0.6785
 2729TIP3   OH229677   3.686   0.812  13.335 -0.0629 -0.4365  0.2809
 2729TIP3    H129678   3.767   0.860  13.322 -1.8623  2.8778  0.0853
 2729TIP3    H229679   3.703   0.726  13.298  2.9416  0.5319 -0.8964
 2730TIP3   OH229680   4.058   2.165   0.376 -0.8547 -0.1555  0.1094
 2730TIP3    H129681   4.114   2.156   0.453 -0.6685 -1.7513 -0.1867
 2730TIP3    H229682   4.085   2.248   0.337 -1.6796  1.2516  2.3063
 2731TIP3   OH229683   1.463   5.083   3.188  0.2162 -0.5006  0.3258
 2731TIP3    H129684   1.402   5.131   3.244 -0.1109  1.0342 -1.2534
 2731TIP3    H229685   1.550   5.108   3.221  0.0210  0.1446  0.3719
 2732TIP3   OH229686   5.119   4.987  13.991 -0.4357  0.2569 -0.5468
 2732TIP3    H129687   5.069   4.968  13.911  0.3675 -0.8419 -0.8039
 2732TIP3    H229688   5.142   5.080  13.982 -1.1300  0.3935 -1.1433
 2733TIP3   OH229689   4.676   1.022  16.231 -0.4427  0.0756 -0.2021
 2733TIP3    H129690   4.685   1.096  16.291 -1.3325  0.4334 -0.4943
 2733TIP3    H229691   4.755   1.024  16.177 -0.0286  0.2504  0.4037
 2734TIP3   OH229692   4.861   6.510   4.973 -0.8882 -1.2476  0.1623
 2734TIP3    H129693   4.849   6.529   5.066  1.2305 -2.3398  0.7320
 2734TIP3    H229694   4.952   6.480   4.966 -1.0086 -1.2769 -2.2576
 2735TIP3   OH229695   0.369   4.374  13.353  0.1961  0.5436 -0.6820
 2735TIP3    H129696   0.462   4.359  13.337  0.6600  1.3472  1.0408
 2735TIP3    H229697   0.358   4.469  13.348 -0.1100  0.6222  1.1047
 2736TIP3   OH229698   1.976   1.201   0.774 -0.3954  0.2938  0.0807
 2736TIP3    H129699   2.051   1.197   0.715  0.1917 -1.4170  0.8666
 2736TIP3    H229700   1.957   1.294   0.783  0.0305  0.6313 -2.1029
 2737TIP3   OH229701   5.817   3.406  17.138 -0.2310 -0.3205  0.0990
 2737TIP3    H129702   5.904   3.414  17.176 -0.4006 -1.5120  0.7834
 2737TIP3    H229703   5.767   3.478  17.178  0.5807  0.7628 -0.7875
 2738TIP3   OH229704   0.809   6.502  13.526 -0.6828  0.2384  0.6232
 2738TIP3    H129705   0.794   6.550  13.445  0.1546  0.3948  0.5557
 2738TIP3    H229706   0.868   6.557  13.577 -0.6741 -0.1629  1.0605
 2739TIP3   OH229707   0.862   2.090  11.171  0.1578 -0.4436  0.0952
 2739TIP3    H129708   0.954   2.113  11.164  0.5563 -1.1725  2.3216
 2739TIP3    H229709   0.858   1.999  11.143  0.1918 -0.5441  0.4144
 2740TIP3   OH229710   5.360   0.803   6.796  0.0452  0.2745 -0.3071
 2740TIP3    H129711   5.324   0.868   6.856 -0.7840  1.0800 -1.6434
 2740TIP3    H229712   5.284   0.756   6.762  0.6027 -1.1455  0.3077
 2741TIP3   OH229713   2.189   0.988   2.743  0.6910  0.0998 -0.4271
 2741TIP3    H129714   2.117   1.045   2.770 -0.6358  0.0803 -3.5366
 2741TIP3    H229715   2.267   1.042   2.754 -0.0299  0.9607  0.7562
 2742TIP3   OH229716   3.167   5.667   4.124 -0.3488 -0.0674 -0.1567
 2742TIP3    H129717   3.082   5.671   4.079 -0.2138  0.0802 -0.4002
 2742TIP3    H229718   3.151   5.612   4.201 -0.7322  0.1836 -0.0563
 2743TIP3   OH229719   0.652   6.344   2.074 -0.0589 -0.2799 -0.2979
 2743TIP3    H129720   0.672   6.257   2.039  0.1216  0.0110 -0.9391
 2743TIP3    H229721   0.614   6.391   1.999 -1.4156 -0.2280  0.3789
 2744TIP3   OH229722   3.217   2.264  15.569 -0.0391  0.0722 -0.1139
 2744TIP3    H129723   3.288   2.200  15.580 -0.2227 -0.0725  0.2655
 2744TIP3    H229724   3.192   2.257  15.477  1.3163  1.0561 -0.5862
 2745TIP3   OH229725   0.423   4.713   4.371  0.0770  0.3761 -0.3567
 2745TIP3    H129726   0.350   4.654   4.391 -0.0530 -0.5580 -3.2423
 2745TIP3    H229727   0.493   4.656   4.339  1.3369  1.4750  0.3276
 2746TIP3   OH229728   2.990   4.727  17.144 -0.0185  0.1075  0.1112
 2746TIP3    H129729   3.082   4.733  17.170  0.2113 -0.8769 -0.4380
 2746TIP3    H229730   2.948   4.681  17.216  0.1931 -0.6563 -0.2420
 2747TIP3   OH229731   0.542   1.286  14.556  0.5372  0.2455 -0.4398
 2747TIP3    H129732   0.490   1.353  14.511  1.4112  0.4015 -1.2602
 2747TIP3    H229733   0.552   1.319  14.645  2.7814  2.3697 -1.3591
 2748TIP3   OH229734   4.888   2.068   3.183 -0.2067  0.5160  0.7896
 2748TIP3    H129735   4.942   2.000   3.222 -0.1635 -1.0738 -1.8011
 2748TIP3    H229736   4.892   2.051   3.089 -2.0337  2.7564  0.2112
 2749TIP3   OH229737   0.584   3.717   3.952  0.3392 -0.3815 -0.1089
 2749TIP3    H129738   0.507   3.742   3.902 -0.1541 -1.8845 -0.1294
 2749TIP3    H229739   0.653   3.776   3.920 -1.2381  2.6001  1.5347
 2750TIP3   OH229740   6.785   2.515  11.994  0.2274  0.2011  0.2247
 2750TIP3    H129741   6.824   2.458  11.927 -1.0090 -0.8242  0.3435
 2750TIP3    H229742   6.691   2.508  11.981  0.0060  1.2325  1.0773
 2751TIP3   OH229743   6.434   1.528   6.146  0.2912 -0.3740  0.4358
 2751TIP3    H129744   6.490   1.455   6.119  0.6376  0.0147  0.0891
 2751TIP3    H229745   6.464   1.550   6.234 -0.1854 -1.0077  0.7621
 2752TIP3   OH229746   1.595   2.981   3.672 -0.3007  0.4050  0.4150
 2752TIP3    H129747   1.541   2.953   3.598 -1.7126  1.9628  0.7947
 2752TIP3    H229748   1.673   3.020   3.632  0.0302 -0.8012 -0.1675
 2753TIP3   OH229749   2.009   5.544   4.335  0.2086 -0.4328 -0.1478
 2753TIP3    H129750   1.947   5.598   4.286  0.4611 -0.2333 -0.2504
 2753TIP3    H229751   1.986   5.454   4.312 -1.2876 -0.4693  1.2970
 2754TIP3   OH229752   4.954   6.159  16.397  0.5152  0.2791 -0.7499
 2754TIP3    H129753   5.028   6.112  16.434  1.0494  1.2362 -0.5663
 2754TIP3    H229754   4.965   6.249  16.427 -0.9476  0.3681 -0.3741
 2755TIP3   OH229755   1.676   1.891  14.504  0.1644  0.3443  0.1904
 2755TIP3    H129756   1.725   1.820  14.546 -0.4549 -0.0478  0.2680
 2755TIP3    H229757   1.660   1.953  14.575  1.4267  0.9737 -0.0577
 2756TIP3   OH229758   3.536   6.621   0.205 -0.1183  0.0492  0.2878
 2756TIP3    H129759   3.542   6.634   0.110 -1.5680 -1.5131 -0.0734
 2756TIP3    H229760   3.626   6.629   0.237  0.8536 -2.1360 -1.6299
 2757TIP3   OH229761   0.345   6.547  15.851  0.0280 -0.0877  0.3354
 2757TIP3    H129762   0.338   6.486  15.924  1.0138 -0.5547  0.0576
 2757TIP3    H229763   0.256   6.578  15.837 -0.3943 -1.0346  0.8452
 2758TIP3   OH229764   3.166   1.536  14.415 -0.0591 -0.0262 -0.7334
 2758TIP3    H129765   3.244   1.576  14.375  1.5295 -1.4141  0.7571
 2758TIP3    H229766   3.101   1.533  14.345  1.3769  0.7738 -2.1775
 2759TIP3   OH229767   6.162   4.086  14.453 -0.3526  0.1416  0.0494
 2759TIP3    H129768   6.251   4.103  14.482 -0.3541  0.3955 -0.0915
 2759TIP3    H229769   6.113   4.070  14.533 -0.5299  1.6284  0.2648
 2760TIP3   OH229770   5.457   5.336   5.297 -0.1093 -0.1016 -0.6561
 2760TIP3    H129771   5.510   5.336   5.377  1.8183  0.3143 -1.8795
 2760TIP3    H229772   5.472   5.422   5.259 -1.8906  0.1195 -0.9450
 2761TIP3   OH229773   5.413   2.487   1.332  0.3253 -0.2300 -0.1282
 2761TIP3    H129774   5.507   2.484   1.346  0.4934  0.2129 -1.0437
 2761TIP3    H229775   5.399   2.435   1.252 -0.2415 -0.5265  0.1579
 2762TIP3   OH229776   1.591   2.757  17.096  0.4834 -0.6620  0.3693
 2762TIP3    H129777   1.669   2.733  17.145 -0.0554 -1.4613  0.8477
 2762TIP3    H229778   1.528   2.688  17.115 -1.7174  1.8438  3.1275
 2763TIP3   OH229779   4.888   3.404  14.575  0.2466  0.0407 -0.1417
 2763TIP3    H129780   4.888   3.387  14.480  0.7322 -0.7042 -0.0156
 2763TIP3    H229781   4.898   3.499  14.582 -1.9606  0.3863 -0.8604
 2764TIP3   OH229782   3.333   0.148   0.907 -0.0665 -0.0938  0.2289
 2764TIP3    H129783   3.344   0.130   0.814  0.1083 -0.1926  0.2678
 2764TIP3    H229784   3.278   0.076   0.939  0.3093 -0.3509  0.3060
 2765TIP3   OH229785   5.557   6.513  15.812  0.5953  0.1991 -0.4369
 2765TIP3    H129786   5.474   6.502  15.766  0.8982 -2.1504 -0.5255
 2765TIP3    H229787   5.548   6.597  15.857 -2.2402 -0.4228  0.3934
 2766TIP3   OH229788   5.657   3.656  15.067 -0.1583 -0.1951 -0.1603
 2766TIP3    H129789   5.595   3.584  15.055  0.5620 -0.6169 -1.5957
 2766TIP3    H229790   5.675   3.658  15.161 -1.6797 -0.6043  0.1611
 2767TIP3   OH229791   0.443   1.807   1.558  0.3595  0.9534 -0.7229
 2767TIP3    H129792   0.470   1.848   1.475  3.4274  0.7607  0.0720
 2767TIP3    H229793   0.433   1.714   1.537  3.8184  0.3936 -0.4743
 2768TIP3   OH229794   0.969   6.200   5.503 -0.3343 -0.4579 -0.2698
 2768TIP3    H129795   0.937   6.116   5.469  0.6956 -0.9062 -0.1736
 2768TIP3    H229796   0.980   6.185   5.597  1.7796 -0.8816 -0.5428
 2769TIP3   OH229797   5.748   3.594  14.165 -0.0464  0.3336  0.2272
 2769TIP3    H129798   5.709   3.677  14.192  1.1338  2.1444 -3.0888
 2769TIP3    H229799   5.842   3.608  14.172  0.1750 -1.3557  1.1447
 2770TIP3   OH229800   3.798   6.245  17.031 -0.1369  0.0224 -0.5266
 2770TIP3    H129801   3.782   6.317  16.970 -1.4548 -0.5228 -0.8489
 2770TIP3    H229802   3.892   6.249  17.048 -0.3953  3.1386  1.1001
 2771TIP3   OH229803   3.977   3.301  11.089  0.3329 -0.8276 -0.0487
 2771TIP3    H129804   3.898   3.273  11.135  1.3140 -0.8743  1.6844
 2771TIP3    H229805   4.019   3.363  11.149  2.3941 -1.9623 -0.2097
 2772TIP3   OH229806   5.561   6.669  11.572  0.7560  0.4688 -0.4228
 2772TIP3    H129807   5.530   6.636  11.488 -0.5957  1.9124 -0.5431
 2772TIP3    H229808   5.505   6.624  11.636 -2.0179  3.2429 -0.6524
 2773TIP3   OH229809   5.418   1.376   4.067  0.0815  0.0922 -0.7871
 2773TIP3    H129810   5.379   1.289   4.064  1.9002 -0.8497  0.6712
 2773TIP3    H229811   5.503   1.363   4.109  0.2154  2.6492 -0.0731
 2774TIP3   OH229812   3.341   1.062   0.620  0.3655  0.1166  0.0474
 2774TIP3    H129813   3.344   0.987   0.679 -0.1646 -1.3308 -1.6737
 2774TIP3    H229814   3.364   1.026   0.534  0.3859  1.9912 -0.7827
 2775TIP3   OH229815   3.346   6.160   0.738  0.6607  0.0405  0.3522
 2775TIP3    H129816   3.432   6.187   0.705  0.8744 -0.2698  0.6505
 2775TIP3    H229817   3.366   6.103   0.812  0.1938  0.1054  0.5293
 2776TIP3   OH229818   3.286   1.874  12.981 -0.3394 -0.2728  0.3186
 2776TIP3    H129819   3.361   1.824  12.950 -0.9436 -1.2213  0.3276
 2776TIP3    H229820   3.246   1.910  12.902 -0.2147 -0.2675  0.2580
 2777TIP3   OH229821   3.625   5.201   3.904  0.1819 -0.1108  0.1089
 2777TIP3    H129822   3.628   5.152   3.822  0.0276  0.7853 -0.4482
 2777TIP3    H229823   3.717   5.223   3.922  0.6917 -3.2674  2.0588
 2778TIP3   OH229824   0.417   2.599  15.817 -0.4352  0.1399  0.1449
 2778TIP3    H129825   0.481   2.564  15.755 -0.3037 -1.7474  1.2634
 2778TIP3    H229826   0.425   2.694  15.809  1.8835 -0.0310 -0.4086
 2779TIP3   OH229827   6.287   1.671   1.325  0.7459  0.3951  0.3678
 2779TIP3    H129828   6.192   1.673   1.322  0.6236 -1.4253  1.6524
 2779TIP3    H229829   6.312   1.609   1.256  1.0153  0.9052  0.0012
 2780TIP3   OH229830   6.010   6.572  12.873 -0.1424 -0.4718  0.4152
 2780TIP3    H129831   5.945   6.590  12.940  0.1026  1.0161  0.2722
 2780TIP3    H229832   6.067   6.649  12.872  1.3729 -1.5473  0.2413
 2781TIP3   OH229833   3.636   0.345   1.303 -0.3150 -0.2241 -0.1257
 2781TIP3    H129834   3.567   0.352   1.237 -2.5032  1.0487  2.1338
 2781TIP3    H229835   3.649   0.434   1.334  1.0741 -0.6992  0.7656
 2782TIP3   OH229836   4.756   6.728   1.359 -0.3206  0.5642  0.2931
 2782TIP3    H129837   4.770   6.707   1.451 -0.4166 -1.6059 -0.1168
 2782TIP3    H229838   4.680   6.675   1.334  1.4311 -1.2179 -1.6825
 2783TIP3   OH229839   2.921   3.984   4.802  0.3381 -0.0013  0.4394
 2783TIP3    H129840   2.890   4.020   4.886 -0.9686  0.3407 -0.1691
 2783TIP3    H229841   2.936   3.891   4.820 -3.0956 -0.7107  0.3201
 2784TIP3   OH229842   5.747   5.295  16.524  0.1693  0.1607  0.2078
 2784TIP3    H129843   5.658   5.273  16.552  0.3316 -1.2738 -0.3354
 2784TIP3    H229844   5.757   5.253  16.439  2.0159 -1.3896  1.1189
 2785TIP3   OH229845   1.412   5.505   4.976 -0.0887 -0.1271 -0.3942
 2785TIP3    H129846   1.441   5.438   4.914 -0.0050  0.4544 -0.9981
 2785TIP3    H229847   1.328   5.474   5.009 -0.6456  0.0565 -1.6017
 2786TIP3   OH229848   5.686   3.107  14.447  0.5572 -0.1281  0.3681
 2786TIP3    H129849   5.613   3.110  14.509  1.8773  0.7043  1.9717
 2786TIP3    H229850   5.730   3.192  14.458  1.8749 -0.6801 -0.3911
 2787TIP3   OH229851   1.119   2.377  15.466 -0.0791  0.1599 -0.1886
 2787TIP3    H129852   1.136   2.347  15.555 -0.6692  0.3308 -0.0128
 2787TIP3    H229853   1.205   2.379  15.424 -0.1329 -3.7235 -0.8633
 2788TIP3   OH229854   6.134   4.365   6.608  0.0910 -0.2361 -0.0238
 2788TIP3    H129855   6.146   4.460   6.598  1.3367 -0.4198 -0.3996
 2788TIP3    H229856   6.143   4.330   6.520  0.5224 -0.7974  0.2417
 2789TIP3   OH229857   6.272   6.079   3.331  0.5560 -0.2911 -0.7691
 2789TIP3    H129858   6.238   5.989   3.329 -1.3391  0.3863 -0.9324
 2789TIP3    H229859   6.246   6.112   3.417 -0.2498  0.6141 -1.3358
 2790TIP3   OH229860   6.829   4.125   5.787  0.2613 -0.1340 -0.1037
 2790TIP3    H129861   6.859   4.127   5.878  0.3446  0.9681 -0.1378
 2790TIP3    H229862   6.735   4.107   5.793  0.2113  0.2151  0.2292
 2791TIP3   OH229863   1.323   6.522  16.497  0.2107 -0.1300 -0.2506
 2791TIP3    H129864   1.281   6.442  16.465  1.6173 -0.8021 -0.4558
 2791TIP3    H229865   1.310   6.520  16.592 -1.2184  0.2762 -0.4106
 2792TIP3   OH229866   0.907   3.327  15.878  0.4551  0.1684  0.0436
 2792TIP3    H129867   0.936   3.251  15.827  2.1473  0.1932  0.9116
 2792TIP3    H229868   0.920   3.302  15.969 -1.8913  0.3861  0.5053
 2793TIP3   OH229869   5.942   5.861   2.458 -0.6476  0.1292  0.2495
 2793TIP3    H129870   5.863   5.876   2.509 -0.2363  1.3396  0.5617
 2793TIP3    H229871   5.959   5.945   2.414  1.3319  0.4176  1.4310
 2794TIP3   OH229872   3.885   5.972   1.065 -0.4499  0.5931  0.2235
 2794TIP3    H129873   3.868   6.003   1.154 -0.4078 -0.6033  0.6706
 2794TIP3    H229874   3.802   5.936   1.036 -0.9744  2.6044 -0.9510
 2795TIP3   OH229875   6.484   3.169   3.742  1.2288 -0.5991  0.4124
 2795TIP3    H129876   6.394   3.154   3.711  1.0990 -1.0953  1.0090
 2795TIP3    H229877   6.517   3.240   3.686 -0.0932  0.7277  1.2356
 2796TIP3   OH229878   2.596   5.912  16.142 -0.4320  0.3859 -0.4235
 2796TIP3    H129879   2.658   5.872  16.203  0.7911 -0.3931 -2.0919
 2796TIP3    H229880   2.636   5.996  16.120 -0.2656  0.1542 -1.0293
 2797TIP3   OH229881   1.574   5.758  17.152  0.0823 -0.2757 -0.1289
 2797TIP3    H129882   1.652   5.762  17.208  1.1594  0.3079 -1.5949
 2797TIP3    H229883   1.586   5.678  17.101 -1.2714 -1.2129  0.9565
 2798TIP3   OH229884   4.462   3.457  16.419 -0.3288 -0.3980  0.6629
 2798TIP3    H129885   4.459   3.368  16.453 -2.3603 -1.1090 -1.1307
 2798TIP3    H229886   4.429   3.450  16.329  1.6329  1.8406 -0.3530
 2799TIP3   OH229887   4.555   3.065   2.579  0.2992  0.3190  0.6253
 2799TIP3    H129888   4.612   2.988   2.572  1.7715  1.4782 -0.8855
 2799TIP3    H229889   4.466   3.030   2.575  0.9234 -1.3356  0.5424
 2800TIP3   OH229890   6.659   6.659  14.546 -0.3112 -0.3243  0.5526
 2800TIP3    H129891   6.616   6.744  14.536  0.4012  0.4280  2.9723
 2800TIP3    H229892   6.607   6.599  14.493 -1.0287  1.5518 -0.9693
 2801TIP3   OH229893   3.596   1.446  15.763 -0.5365  0.5466  0.0352
 2801TIP3    H129894   3.513   1.460  15.810 -0.7420 -0.1466 -0.1105
 2801TIP3    H229895   3.642   1.529  15.772 -1.2858  0.9772  0.0449
 2802TIP3   OH229896   4.378   0.111  12.624 -0.0462 -0.1198  0.8644
 2802TIP3    H129897   4.326   0.098  12.704  0.8657  1.8362  1.8478
 2802TIP3    H229898   4.468   0.120  12.656  0.3069  0.9224 -0.3521
 2803TIP3   OH229899   6.658   3.827   6.453 -0.0789 -0.2594  0.2950
 2803TIP3    H129900   6.713   3.856   6.526 -0.0030  2.3526 -0.6744
 2803TIP3    H229901   6.570   3.856   6.476 -0.4839 -1.4733  0.3430
 2804TIP3   OH229902   4.753   1.727  11.345 -0.4557  0.5897 -0.2043
 2804TIP3    H129903   4.786   1.733  11.256 -1.2184  2.0793 -0.4310
 2804TIP3    H229904   4.707   1.810  11.359 -2.0245 -0.3955  0.8937
 2805TIP3   OH229905   4.257   4.661   1.754 -0.4781 -0.4851 -0.5481
 2805TIP3    H129906   4.267   4.566   1.756  1.1521 -0.4144 -2.1221
 2805TIP3    H229907   4.257   4.683   1.661  0.0622  1.1166 -0.2054
 2806TIP3   OH229908   5.934   1.648   3.107 -0.0301  0.4152 -0.4123
 2806TIP3    H129909   5.885   1.651   3.026  0.5853 -0.2978 -0.8260
 2806TIP3    H229910   5.891   1.711   3.164 -1.1742  0.0873 -0.8921
 2807TIP3   OH229911   4.893   4.044   5.826 -0.4479  0.6470  0.1529
 2807TIP3    H129912   4.841   4.122   5.806  0.3467  1.3327  0.6848
 2807TIP3    H229913   4.954   4.073   5.893  0.3133 -0.2744 -0.1247
 2808TIP3   OH229914   0.128   3.129   4.461 -0.1706  0.0533  0.3618
 2808TIP3    H129915   0.180   3.186   4.404  2.0948 -2.5282 -0.3419
 2808TIP3    H229916   0.187   3.107   4.533 -2.1601  1.2166  2.5171
 2809TIP3   OH229917   0.235   2.406  14.097  0.1155 -0.2552 -0.0880
 2809TIP3    H129918   0.264   2.497  14.106 -0.5164  0.0118 -0.7134
 2809TIP3    H229919   0.233   2.372  14.187  1.4921 -0.0175  0.0583
 2810TIP3   OH229920   4.793   2.454   6.474  0.2005  0.3720  0.4531
 2810TIP3    H129921   4.809   2.547   6.458  0.6597  0.5399  1.7144
 2810TIP3    H229922   4.789   2.447   6.570 -3.3371 -0.3397  0.4082
 2811TIP3   OH229923   2.592   2.555  11.869  0.2628  0.5876 -0.5179
 2811TIP3    H129924   2.641   2.518  11.942 -0.5200  1.2100  0.3487
 2811TIP3    H229925   2.637   2.523  11.791  2.3958  1.6237  0.2251
 2812TIP3   OH229926   5.626   3.168   1.797 -0.3016 -0.4061  0.2442
 2812TIP3    H129927   5.658   3.249   1.756 -0.7833 -1.0173 -1.4428
 2812TIP3    H229928   5.571   3.197   1.869 -0.3549  0.7633 -0.2441
 2813TIP3   OH229929   4.310   1.047   2.393 -0.3532 -0.2847  0.0331
 2813TIP3    H129930   4.262   1.117   2.348  1.5875  0.3252 -1.2048
 2813TIP3    H229931   4.399   1.081   2.404 -0.0992 -1.4408  2.0966
 2814TIP3   OH229932   0.404   2.441   1.320  0.1234 -0.0405  0.1011
 2814TIP3    H129933   0.347   2.364   1.325 -0.1094  0.1968  2.0832
 2814TIP3    H229934   0.449   2.432   1.236 -1.9140 -0.8711 -0.9751
 2815TIP3   OH229935   0.156   0.838  11.769  0.0701  0.0865 -0.3827
 2815TIP3    H129936   0.181   0.847  11.861  1.9860  0.2160 -0.8678
 2815TIP3    H229937   0.182   0.749  11.746 -1.8398 -0.4998 -0.4265
 2816TIP3   OH229938   3.175   1.725   3.133  0.1149 -0.2675  0.5312
 2816TIP3    H129939   3.210   1.663   3.197 -2.9238 -1.7531  0.9128
 2816TIP3    H229940   3.232   1.802   3.141  2.1879 -1.8546  2.1972
 2817TIP3   OH229941   6.158   2.034   0.359 -0.3259  0.2000  0.5206
 2817TIP3    H129942   6.181   2.044   0.266 -0.4334  1.1777  0.5869
 2817TIP3    H229943   6.083   1.974   0.358  1.8922 -2.8434  0.2834
 2818TIP3   OH229944   5.110   5.511  10.895 -0.0869  0.9425 -0.2072
 2818TIP3    H129945   5.103   5.449  10.968  0.5954 -0.6011 -1.4009
 2818TIP3    H229946   5.177   5.573  10.924  0.9601 -0.2683  0.0887
 2819TIP3   OH229947   1.432   1.957  12.838 -0.0578 -0.4855  0.2713
 2819TIP3    H129948   1.478   2.036  12.809 -0.1930 -0.7284 -0.6197
 2819TIP3    H229949   1.377   1.987  12.910 -0.2698  0.2784 -0.2001
 2820TIP3   OH229950   3.853   3.999   5.481 -0.5184  0.3359  0.2641
 2820TIP3    H129951   3.806   4.025   5.401 -0.8443  0.3517  0.4589
 2820TIP3    H229952   3.882   3.910   5.464  1.1694  1.0154 -0.6712
 2821TIP3   OH229953   6.780   5.265   5.132  0.3281 -0.6115 -0.1823
 2821TIP3    H129954   6.739   5.321   5.198 -2.0889 -1.3557 -0.9381
 2821TIP3    H229955   6.854   5.225   5.177  0.1708  0.7372  1.3364
 2822TIP3   OH229956   4.110   6.245  16.130  0.2284 -0.1175 -0.2070
 2822TIP3    H129957   4.116   6.243  16.225  0.8059  0.5477 -0.2199
 2822TIP3    H229958   4.094   6.337  16.109 -0.9204 -0.4081 -0.7108
 2823TIP3   OH229959   0.704   1.532  13.578  0.3963  0.1885  0.0890
 2823TIP3    H129960   0.720   1.625  13.594  1.0337  0.1180 -0.1083
 2823TIP3    H229961   0.714   1.491  13.664  1.2558  0.1523 -0.0218
 2824TIP3   OH229962   4.207   1.656   0.672 -0.0003 -0.1551  0.4046
 2824TIP3    H129963   4.266   1.711   0.724 -0.6841  0.6890  0.3061
 2824TIP3    H229964   4.136   1.714   0.646  0.0516 -0.6911 -1.0371
 2825TIP3   OH229965   0.721   0.482   5.394  0.3338  0.2628 -0.3739
 2825TIP3    H129966   0.749   0.570   5.372 -2.2497  0.9752 -1.1885
 2825TIP3    H229967   0.683   0.490   5.482  0.9522 -0.2744 -0.0447
 2826TIP3   OH229968   2.163   1.277  12.108  0.7853 -0.0170  0.3380
 2826TIP3    H129969   2.252   1.263  12.141 -0.0726 -2.5019  1.9076
 2826TIP3    H229970   2.170   1.264  12.014  1.9667 -0.9497  0.5248
 2827TIP3   OH229971   6.468   1.308   0.130  0.0541 -0.0353  0.5980
 2827TIP3    H129972   6.485   1.215   0.145  0.0406  0.1449  1.8011
 2827TIP3    H229973   6.453   1.345   0.217  1.2514  1.3328  0.2772
 2828TIP3   OH229974   6.219   3.103  14.070  0.2622  0.2140  0.1011
 2828TIP3    H129975   6.135   3.122  14.028 -0.3138 -0.3748  0.9467
 2828TIP3    H229976   6.205   3.125  14.162  1.2134  0.6240  0.1631
 2829TIP3   OH229977   0.409   4.039  15.564 -0.0043  0.6772  0.0626
 2829TIP3    H129978   0.410   3.967  15.502  0.7549  0.7858 -0.0576
 2829TIP3    H229979   0.500   4.049  15.592 -0.1345  1.4287  0.2557
 2830TIP3   OH229980   6.775   2.368   3.202  0.3064 -0.1379  0.2290
 2830TIP3    H129981   6.852   2.375   3.259  0.2399  0.3104  0.2663
 2830TIP3    H229982   6.805   2.400   3.117  0.8123 -2.1376 -0.4051
 2831TIP3   OH229983   5.376   1.691   4.988  0.1879  0.3902  0.5613
 2831TIP3    H129984   5.447   1.635   5.020 -0.9817 -1.1665  0.5689
 2831TIP3    H229985   5.300   1.632   4.981 -0.7884  1.7130 -0.6324
 2832TIP3   OH229986   2.782   0.442   2.189  0.1267 -0.1781 -0.4225
 2832TIP3    H129987   2.859   0.473   2.142  1.3513  0.1432  1.6258
 2832TIP3    H229988   2.769   0.352   2.160  0.2495  0.2787 -1.9769
 2833TIP3   OH229989   2.121   4.617   3.912  0.6610 -0.3538  0.3966
 2833TIP3    H129990   2.159   4.531   3.934  1.7236  0.3041  1.2430
 2833TIP3    H229991   2.118   4.663   3.996  4.4326  2.1178 -0.5948
 2834TIP3   OH229992   4.982   2.184  14.788  0.4961 -0.4437  0.1849
 2834TIP3    H129993   5.046   2.196  14.858 -1.5324  2.3077  1.7921
 2834TIP3    H229994   4.900   2.165  14.833 -0.6102  0.1038 -1.4960
 2835TIP3   OH229995   3.545   0.949  16.902  0.1514  0.2656 -0.0551
 2835TIP3    H129996   3.528   0.910  16.988 -0.6111  0.0104 -0.3079
 2835TIP3    H229997   3.574   0.876  16.848  1.6665  0.6158  0.2446
 2836TIP3   OH229998   3.334   1.602  14.183  0.1236  0.3363  0.4291
 2836TIP3    H129999   3.292   1.538  14.126 -3.9007  2.0846  1.1037
 2836TIP3    H230000   3.377   1.663  14.123  1.4178 -1.2554 -0.3356
 2837TIP3   OH230001   1.229   5.934  12.599 -0.0244  0.2292 -0.0160
 2837TIP3    H130002   1.202   5.989  12.525  0.5567  0.7489  0.1572
 2837TIP3    H230003   1.159   5.869  12.606 -0.1552  0.2511 -0.9436
 2838TIP3   OH230004   2.977   3.705   4.785 -0.1241  0.1931  0.2533
 2838TIP3    H130005   2.980   3.654   4.866 -1.5848 -0.5231 -0.1156
 2838TIP3    H230006   2.906   3.666   4.734  0.2624  1.1206 -1.0495
 2839TIP3   OH230007   1.172   4.078  15.090  0.4007  0.0520  0.2128
 2839TIP3    H130008   1.230   4.152  15.073  2.3411 -1.2710  0.6821
 2839TIP3    H230009   1.215   4.004  15.047  0.5564 -1.5334  2.8536
 2840TIP3   OH230010   0.984   0.792  11.197  1.0337  0.3009  0.6842
 2840TIP3    H130011   0.937   0.806  11.279  0.0349 -0.2029  0.2219
 2840TIP3    H230012   0.930   0.835  11.131  1.2442 -0.2426  0.1430
 2841TIP3   OH230013   6.129   4.497  13.926 -0.0892  0.2409 -0.0905
 2841TIP3    H130014   6.158   4.471  14.014  1.0916  0.0704 -0.5175
 2841TIP3    H230015   6.033   4.500  13.933 -0.1393 -1.6598  0.6934
 2842TIP3   OH230016   2.816   1.735   6.208 -0.2441  0.6127  0.5584
 2842TIP3    H130017   2.883   1.744   6.277 -0.4262  1.2611  0.6586
 2842TIP3    H230018   2.733   1.732   6.256 -0.4918  2.5129  0.3292
 2843TIP3   OH230019   2.351   4.063   1.237  0.2492 -0.1707  0.3070
 2843TIP3    H130020   2.310   4.006   1.303  0.5998  0.1469  0.8087
 2843TIP3    H230021   2.315   4.033   1.154  0.7591 -1.4112  0.5128
 2844TIP3   OH230022   2.275   3.753  12.542  0.6555 -0.5947 -0.3640
 2844TIP3    H130023   2.349   3.812  12.527  0.2996  0.1276  0.6176
 2844TIP3    H230024   2.300   3.703  12.620  1.8361 -3.2428 -2.2687
 2845TIP3   OH230025   1.693   3.576  15.470 -0.0111  0.8469  0.7362
 2845TIP3    H130026   1.759   3.515  15.438 -1.2111 -1.0448  1.6579
 2845TIP3    H230027   1.664   3.539  15.554 -1.1893  2.4047  1.0748
 2846TIP3   OH230028   3.650   3.304   3.977 -0.0558  0.0398  0.1843
 2846TIP3    H130029   3.565   3.349   3.981 -0.9647 -1.6693  1.3907
 2846TIP3    H230030   3.639   3.228   4.034  2.6736  0.3676  1.2840
 2847TIP3   OH230031   2.865   6.635  16.680 -0.6043 -0.2220  0.0007
 2847TIP3    H130032   2.831   6.604  16.597  1.2227 -0.2007 -0.8003
 2847TIP3    H230033   2.807   6.597  16.746 -1.0302 -1.6934 -1.1857
 2848TIP3   OH230034   3.394   6.386   0.906  0.0743 -0.2041  0.0732
 2848TIP3    H130035   3.425   6.420   0.821  1.0571 -2.9367 -0.7684
 2848TIP3    H230036   3.357   6.300   0.885 -2.0471  0.1185  2.1045
 2849TIP3   OH230037   0.094   5.374   1.233 -0.7245 -0.5259  0.0015
 2849TIP3    H130038   0.179   5.376   1.277 -0.6125  0.6548 -0.2366
 2849TIP3    H230039   0.035   5.422   1.292 -1.7448 -3.0031  1.1336
 2850TIP3   OH230040   0.151   0.293   3.964 -0.0976  0.1166  0.1513
 2850TIP3    H130041   0.100   0.331   3.892  2.3978  1.1503 -1.1801
 2850TIP3    H230042   0.139   0.355   4.037  0.6146  1.2869 -0.6993
 2851TIP3   OH230043   5.121   1.057   0.136  0.4066  0.4688 -0.6712
 2851TIP3    H130044   5.067   1.117   0.085  1.2898  0.6049 -1.4773
 2851TIP3    H230045   5.098   0.970   0.103 -1.3202  0.2475  0.9156
 2852TIP3   OH230046   5.619   5.830  17.074  0.2811  0.1071  0.2755
 2852TIP3    H130047   5.597   5.922  17.081  0.7609  0.4541 -1.9455
 2852TIP3    H230048   5.576   5.801  16.993  0.9087 -1.3647  0.4237
 2853TIP3   OH230049   1.260   1.821   5.111  0.1359  0.3419 -0.5738
 2853TIP3    H130050   1.290   1.837   5.200  0.5842 -2.1269 -0.2159
 2853TIP3    H230051   1.339   1.826   5.057  0.1767 -0.0500 -0.5504
 2854TIP3   OH230052   4.395   0.931   0.003 -0.2009  0.1077 -0.2916
 2854TIP3    H130053   4.300   0.939  -0.009 -0.0257  0.8729 -1.3532
 2854TIP3    H230054   4.415   0.990   0.075 -0.5519 -0.1998  0.0637
 2855TIP3   OH230055   4.291   4.435  16.737  0.5593 -0.1382 -0.1746
 2855TIP3    H130056   4.330   4.496  16.800 -1.4612  1.3926 -0.3091
 2855TIP3    H230057   4.323   4.465  16.652  0.5034 -0.0069 -0.1491
 2856TIP3   OH230058   6.289   1.048  11.130 -0.1526 -0.0364  0.0144
 2856TIP3    H130059   6.363   1.022  11.075  0.8067  2.0692  0.2342
 2856TIP3    H230060   6.252   1.124  11.086 -0.5812  0.5060  1.2726
 2857TIP3   OH230061   5.167   3.962   4.327 -0.6653 -0.5574  1.0552
 2857TIP3    H130062   5.198   3.943   4.238  0.2863  2.1614  0.7003
 2857TIP3    H230063   5.121   4.045   4.318 -0.4525 -0.1679  3.1397
 2858TIP3   OH230064   6.831   0.420   2.426 -0.0949 -0.2729 -0.1614
 2858TIP3    H130065   6.774   0.496   2.416  0.2174  0.2953  1.9659
 2858TIP3    H230066   6.891   0.444   2.497  0.0705 -2.4439  0.5015
 2859TIP3   OH230067   6.161   0.910   2.866  0.2529  0.0401  0.4345
 2859TIP3    H130068   6.066   0.911   2.849  0.0895 -0.7487  1.2189
 2859TIP3    H230069   6.168   0.937   2.957  0.7512 -0.3816  0.5213
 2860TIP3   OH230070   4.636   5.149   5.967  0.1781 -0.2674 -0.6729
 2860TIP3    H130071   4.623   5.057   5.990 -1.0436 -0.3066 -1.4341
 2860TIP3    H230072   4.601   5.198   6.041  1.4278 -0.3934  0.0304
 2861TIP3   OH230073   1.157   6.447   0.465 -0.5971  0.6753  0.0191
 2861TIP3    H130074   1.086   6.458   0.530 -1.0360  0.1952 -0.3734
 2861TIP3    H230075   1.111   6.431   0.383 -0.0454  1.5388 -0.4735
 2862TIP3   OH230076   3.362   5.565   5.446 -0.2352  0.4099 -0.0536
 2862TIP3    H130077   3.294   5.570   5.513 -0.4918  0.9962 -0.3476
 2862TIP3    H230078   3.401   5.478   5.457 -0.1171  0.5809  1.0083
 2863TIP3   OH230079   2.338   1.285   5.743  0.0482  0.2173 -0.4770
 2863TIP3    H130080   2.421   1.284   5.694  1.1749 -0.4376  1.3137
 2863TIP3    H230081   2.324   1.377   5.765  0.0092  0.3997 -1.2344
 2864TIP3   OH230082   5.424   2.332  15.025  0.1517  0.1223  0.0822
 2864TIP3    H130083   5.335   2.342  14.989 -0.3334  0.7768  1.4220
 2864TIP3    H230084   5.416   2.358  15.116  1.9621  1.2817 -0.0449
 2865TIP3   OH230085   1.303   0.933   0.990 -0.0424  0.2165  0.7016
 2865TIP3    H130086   1.260   0.889   1.063  0.9340 -0.0676  1.1223
 2865TIP3    H230087   1.250   0.909   0.913 -0.9838  0.3889  1.2782
 2866TIP3   OH230088   4.200   2.702  13.405 -0.2684 -0.7431 -0.2028
 2866TIP3    H130089   4.221   2.638  13.337 -1.7415 -0.3115 -1.1265
 2866TIP3    H230090   4.138   2.762  13.363  0.0648  0.5303  1.0316
 2867TIP3   OH230091   0.507   1.047  12.505  0.0460 -0.8238 -0.1010
 2867TIP3    H130092   0.552   1.092  12.576  0.7245 -2.8542  0.8070
 2867TIP3    H230093   0.559   1.067  12.427 -0.3839  0.9534  0.0290
 2868TIP3   OH230094   2.563   2.964   2.381  0.1449 -0.3008  0.0445
 2868TIP3    H130095   2.598   2.986   2.294  0.2050 -1.5818 -0.2767
 2868TIP3    H230096   2.496   2.898   2.363 -0.5535  0.1564  0.9014
 2869TIP3   OH230097   1.325   2.124   0.545 -0.5640 -0.3648 -0.0599
 2869TIP3    H130098   1.362   2.116   0.633  0.4207  3.2922  0.0171
 2869TIP3    H230099   1.400   2.137   0.488 -1.3454  1.4179 -0.7686
 2870TIP3   OH230100   4.846   4.158  12.915  0.5035  0.2193 -0.0891
 2870TIP3    H130101   4.787   4.175  12.842 -1.0907 -0.0324  1.0825
 2870TIP3    H230102   4.860   4.063  12.914 -1.1781 -0.0689  1.1142
 2871TIP3   OH230103   6.789   4.627  15.643 -0.1562  0.0841  0.1762
 2871TIP3    H130104   6.846   4.704  15.632 -1.6191  1.0933 -0.8416
 2871TIP3    H230105   6.780   4.617  15.738  0.8145  0.5750  0.3353
 2872TIP3   OH230106   2.760   0.515   4.677  0.5074  0.1773 -0.6338
 2872TIP3    H130107   2.768   0.608   4.694 -1.3663  0.5761 -1.6538
 2872TIP3    H230108   2.714   0.480   4.753  0.5266  0.2186 -0.6032
 2873TIP3   OH230109   0.706   6.798   2.108 -0.2789 -0.1242  0.8616
 2873TIP3    H130110   0.795   6.767   2.087 -0.8201 -0.6094 -0.9181
 2873TIP3    H230111   0.649   6.746   2.051 -1.5595  1.4359  0.6705
 2874TIP3   OH230112   5.820   1.304  16.474  0.2589  0.2913  0.1243
 2874TIP3    H130113   5.744   1.353  16.443 -1.1160 -2.0366 -0.4881
 2874TIP3    H230114   5.883   1.370  16.501 -1.9264  2.3270  0.4965
 2875TIP3   OH230115   4.646   0.084  14.400  0.0911 -0.8705  0.4620
 2875TIP3    H130116   4.620   0.126  14.318  1.3230 -1.7260 -0.4160
 2875TIP3    H230117   4.567   0.040  14.431 -0.4621 -0.3077 -0.1271
 2876TIP3   OH230118   1.766   0.805   4.885 -0.1588  0.8611 -0.1918
 2876TIP3    H130119   1.856   0.822   4.912 -0.4211 -0.1692  1.4961
 2876TIP3    H230120   1.769   0.801   4.790  1.5641  0.8717 -0.1615
 2877TIP3   OH230121   4.647   2.332  12.702 -0.6214  0.6402  0.7994
 2877TIP3    H130122   4.573   2.300  12.650 -0.7646  1.2315  0.6279
 2877TIP3    H230123   4.656   2.424  12.677  1.1187  0.2239 -0.3208
 2878TIP3   OH230124   0.069   4.076  10.693 -0.0069 -0.4371 -0.2792
 2878TIP3    H130125   0.046   4.150  10.637 -2.6387 -0.4555  0.6333
 2878TIP3    H230126   0.021   4.002  10.655  0.9970 -1.2472 -0.0112
 2879TIP3   OH230127   6.650   0.033   1.384  0.4123 -0.0275  0.0576
 2879TIP3    H130128   6.651  -0.053   1.424  0.1487  0.5875  1.4192
 2879TIP3    H230129   6.592   0.024   1.308  0.9929 -1.2218 -0.2625
 2880TIP3   OH230130   0.252   1.004  16.209  0.0948  0.1256  0.0313
 2880TIP3    H130131   0.181   1.064  16.189  0.7031  1.0115  0.4851
 2880TIP3    H230132   0.263   1.011  16.304  1.4546  0.7760 -0.1565
 2881TIP3   OH230133   0.312   5.051  15.346  0.1901 -0.7630 -0.2852
 2881TIP3    H130134   0.344   4.996  15.275 -0.3047 -0.7740 -0.5090
 2881TIP3    H230135   0.217   5.037  15.345  0.2348 -1.2002  0.7363
 2882TIP3   OH230136   1.033   4.839   4.874 -0.5037 -0.0157 -0.0341
 2882TIP3    H130137   1.047   4.754   4.832  0.5477  0.0518  0.1377
 2882TIP3    H230138   1.079   4.832   4.958 -2.1547  0.0314  0.8961
 2883TIP3   OH230139   6.032   5.768   4.089  0.6148  0.0285 -0.5352
 2883TIP3    H130140   6.076   5.716   4.022 -0.1008  1.0474 -1.8457
 2883TIP3    H230141   5.939   5.755   4.073  0.4222  1.2806 -0.5818
 2884TIP3   OH230142   5.898   3.174   0.242  0.2690 -0.1503  0.3862
 2884TIP3    H130143   5.855   3.248   0.285  0.0943  1.2701 -1.9967
 2884TIP3    H230144   5.835   3.146   0.175  0.9256 -1.5255  0.3161
 2885TIP3   OH230145   0.157   4.604   4.467 -0.0341 -0.3603 -0.2517
 2885TIP3    H130146   0.076   4.634   4.509 -0.3792 -0.0276 -1.1158
 2885TIP3    H230147   0.165   4.512   4.494 -1.5816 -0.8906 -1.4041
 2886TIP3   OH230148   2.336   3.345   0.130 -0.0434  0.2379  0.1151
 2886TIP3    H130149   2.294   3.365   0.046  0.8522 -0.0527 -0.4195
 2886TIP3    H230150   2.264   3.335   0.191 -0.9347 -2.2584 -1.1814
 2887TIP3   OH230151   3.124   6.089  11.246 -0.7584  0.0198  0.0642
 2887TIP3    H130152   3.186   6.076  11.318 -1.4670  1.3421  0.9538
 2887TIP3    H230153   3.178   6.127  11.176 -0.6860  2.2401  1.2209
 2888TIP3   OH230154   4.354   1.336  12.126 -0.5292 -0.4087  0.9231
 2888TIP3    H130155   4.375   1.266  12.187  0.3207  0.1598  1.2888
 2888TIP3    H230156   4.431   1.344  12.070 -1.1805 -0.7282 -0.0604
 2889TIP3   OH230157   0.491   4.230  14.385  0.4564  0.1722  0.1426
 2889TIP3    H130158   0.435   4.264  14.315  2.0003  0.6856 -0.9160
 2889TIP3    H230159   0.517   4.307  14.435  2.2314  0.3589 -0.9532
 2890TIP3   OH230160   6.383   4.024   1.010  0.3345  0.4311  0.0254
 2890TIP3    H130161   6.455   4.038   1.072  1.4124 -1.7924 -0.6098
 2890TIP3    H230162   6.423   3.976   0.938 -1.3618  1.0286 -1.3787
 2891TIP3   OH230163   6.310   0.812  14.098 -0.0793 -0.7652 -0.3869
 2891TIP3    H130164   6.352   0.727  14.107 -0.4043 -0.8421  0.4600
 2891TIP3    H230165   6.360   0.870  14.154 -1.6135 -1.0595  1.3806
 2892TIP3   OH230166   5.369   1.039   3.758 -0.2144  0.2890  0.2117
 2892TIP3    H130167   5.335   1.108   3.815 -0.2638 -0.3300  0.9448
 2892TIP3    H230168   5.401   1.086   3.681 -0.8405  1.0731  0.4085
 2893TIP3   OH230169   1.280   0.720  14.761  0.6769  0.5022 -0.0730
 2893TIP3    H130170   1.357   0.767  14.793 -0.2086  1.0092  1.4162
 2893TIP3    H230171   1.222   0.714  14.837 -0.3084 -0.8200 -0.8765
 2894TIP3   OH230172   6.402   2.659   6.163  0.2687 -0.7024  0.1019
 2894TIP3    H130173   6.392   2.650   6.258  2.3611 -1.0412  0.3598
 2894TIP3    H230174   6.336   2.723   6.137  1.1724  1.2443  2.2007
 2895TIP3   OH230175   6.235   2.012   1.040 -0.1798 -0.6217  0.3999
 2895TIP3    H130176   6.193   1.932   1.071 -1.1712 -0.7918 -1.2455
 2895TIP3    H230177   6.190   2.083   1.085 -2.5541 -0.7744 -1.5104
 2896TIP3   OH230178   0.151   6.798   0.039 -0.4379  0.3368  0.1730
 2896TIP3    H130179   0.145   6.737   0.113  3.3625 -1.0788 -0.4651
 2896TIP3    H230180   0.161   6.742  -0.038 -1.8513  1.8191 -1.1809
 2897TIP3   OH230181   0.621   6.246   4.904 -0.7590 -0.3152 -0.3125
 2897TIP3    H130182   0.701   6.277   4.946 -0.4807  1.4244 -1.9713
 2897TIP3    H230183   0.636   6.262   4.810 -1.7259 -3.0757 -1.0520
 2898TIP3   OH230184   6.001   1.808   0.431  0.1107 -0.0944  0.3388
 2898TIP3    H130185   5.907   1.823   0.436 -0.1620 -1.6355  0.5442
 2898TIP3    H230186   6.013   1.761   0.348  0.7248  0.2587  0.2193
 2899TIP3   OH230187   1.326   3.762  15.726  0.0259 -0.6918 -0.2591
 2899TIP3    H130188   1.346   3.844  15.771 -1.6837 -0.8675  0.9245
 2899TIP3    H230189   1.248   3.781  15.674 -0.7976 -1.7127  0.5556
 2900TIP3   OH230190   3.503   4.617  11.719  0.0946 -0.3494 -0.3539
 2900TIP3    H130191   3.569   4.570  11.668 -1.1372 -1.2170 -1.1944
 2900TIP3    H230192   3.463   4.678  11.656  1.2540  1.4404  0.5733
 2901TIP3   OH230193   2.922   1.291  12.409  0.4561 -0.8208  0.0413
 2901TIP3    H130194   2.864   1.238  12.463  0.2793  0.2888  0.9864
 2901TIP3    H230195   2.934   1.372  12.459 -1.1883  1.0753 -2.3576
 2902TIP3   OH230196   5.957   2.191   5.391 -0.6012 -0.5109  0.3878
 2902TIP3    H130197   6.009   2.243   5.452  0.1251 -2.2505  1.3162
 2902TIP3    H230198   5.884   2.248   5.367  1.4626  1.9406 -0.7128
 2903TIP3   OH230199   1.372   1.041  15.424  0.0415 -0.3237 -0.2476
 2903TIP3    H130200   1.336   1.117  15.378  0.2308 -0.6943 -1.0235
 2903TIP3    H230201   1.361   1.062  15.517  1.2288  1.1944 -0.4167
 2904TIP3   OH230202   3.601   2.568  16.402  0.2380  0.1674  0.3404
 2904TIP3    H130203   3.521   2.607  16.366  0.1201  0.0655  0.4939
 2904TIP3    H230204   3.589   2.474  16.390  0.4397  0.1634  0.1467
 2905TIP3   OH230205   4.880   1.081  11.312  0.0597 -0.7593 -0.0599
 2905TIP3    H130206   4.894   0.997  11.270 -2.7479 -1.6027  0.4545
 2905TIP3    H230207   4.912   1.145  11.248 -0.3334 -2.1258 -1.7103
 2906TIP3   OH230208   5.825   0.323  11.982 -0.5383  0.1159  0.2505
 2906TIP3    H130209   5.809   0.365  12.066 -1.1629  1.9212 -0.7177
 2906TIP3    H230210   5.739   0.291  11.954 -0.4816  0.2203 -0.0541
 2907TIP3   OH230211   3.259   1.329  11.584  0.6354  0.7238 -0.6725
 2907TIP3    H130212   3.225   1.418  11.575  1.4378  1.1129 -0.0677
 2907TIP3    H230213   3.271   1.317  11.678 -0.0622 -0.2646 -0.7027
 2908TIP3   OH230214   0.156   2.583   0.537  0.2929  0.5844 -0.3480
 2908TIP3    H130215   0.143   2.667   0.581  0.9728  0.1310  0.7512
 2908TIP3    H230216   0.199   2.606   0.454 -0.2845  1.3854 -0.4299
 2909TIP3   OH230217   3.756   0.269  13.661 -0.0220 -0.2893  0.5672
 2909TIP3    H130218   3.755   0.337  13.729  1.0324  1.6011 -1.1977
 2909TIP3    H230219   3.846   0.266  13.631 -0.2949 -1.6758 -0.1980
 2910TIP3   OH230220   4.697   2.380  14.804 -0.3068  0.3102  0.5763
 2910TIP3    H130221   4.769   2.346  14.751  0.4136 -1.1830  2.4189
 2910TIP3    H230222   4.737   2.446  14.860 -0.8425  1.0664  0.0953
 2911TIP3   OH230223   2.252   2.418   4.885  0.0425  0.8639  0.0082
 2911TIP3    H130224   2.237   2.329   4.918 -1.1170  2.5694  4.8595
 2911TIP3    H230225   2.347   2.429   4.889 -0.0018  0.7133  2.2457
 2912TIP3   OH230226   5.665   4.722  12.276  0.1411 -0.0042  0.0592
 2912TIP3    H130227   5.723   4.704  12.202  0.0272  0.2290 -0.0871
 2912TIP3    H230228   5.693   4.660  12.344  0.1525 -0.3149 -0.2267
 2913TIP3   OH230229   2.738   0.769  14.446 -0.3195  0.4393 -0.1724
 2913TIP3    H130230   2.813   0.827  14.461  0.7659 -0.9008 -0.2193
 2913TIP3    H230231   2.716   0.735  14.533  0.3981 -0.6537 -0.3967
 2914TIP3   OH230232   1.086   4.636   4.715  0.2233 -0.3105 -0.3158
 2914TIP3    H130233   1.050   4.606   4.632  0.6820 -1.6202 -0.0778
 2914TIP3    H230234   1.158   4.575   4.733  0.6426  0.4365  0.6475
 2915TIP3   OH230235   5.298   4.744  11.819  0.3263  0.0131 -1.2249
 2915TIP3    H130236   5.249   4.826  11.831 -0.1952  0.2160 -4.0549
 2915TIP3    H230237   5.378   4.756  11.870 -0.6612  1.3976  0.1052
 2916TIP3   OH230238   4.974   1.460  13.193 -0.3207 -0.1294 -0.3447
 2916TIP3    H130239   4.937   1.547  13.206 -1.3225 -0.2857 -1.9909
 2916TIP3    H230240   4.954   1.414  13.275  0.1797  1.1417  0.5317
 2917TIP3   OH230241   1.583   3.876  17.183 -0.3591 -0.4375 -0.3618
 2917TIP3    H130242   1.581   3.923  17.267  2.7053  2.7840 -1.8331
 2917TIP3    H230243   1.498   3.895  17.143 -0.6559  0.6342  0.7240
 2918TIP3   OH230244   5.570   2.152   1.141  0.0210  0.0894  0.3758
 2918TIP3    H130245   5.625   2.086   1.099 -2.0255  0.0728 -2.5997
 2918TIP3    H230246   5.623   2.232   1.141  0.9644 -0.5292  0.0095
 2919TIP3   OH230247   2.559   5.794   2.739 -0.3473  0.3501 -0.1071
 2919TIP3    H130248   2.484   5.740   2.766 -0.6338  0.5564 -0.4787
 2919TIP3    H230249   2.619   5.791   2.813 -0.7839  0.2915  0.2469
 2920TIP3   OH230250   0.733   4.800   3.056  0.2130  0.0007  0.0640
 2920TIP3    H130251   0.712   4.767   2.969  0.0022 -1.6859  0.6933
 2920TIP3    H230252   0.783   4.728   3.097  0.8291  0.9949  1.1166
 2921TIP3   OH230253   5.463   5.580   4.548  0.9621 -0.3302  0.3363
 2921TIP3    H130254   5.528   5.534   4.495  0.7588 -1.2356  0.8518
 2921TIP3    H230255   5.382   5.576   4.497  1.6134  2.1902 -1.0572
 2922TIP3   OH230256   2.138   2.110   4.236 -0.0072 -0.1894  0.0126
 2922TIP3    H130257   2.224   2.090   4.198  0.2614 -1.4380  1.1757
 2922TIP3    H230258   2.098   2.171   4.175  1.1072 -0.7499 -1.3357
 2923TIP3   OH230259   4.769   0.842   5.765  0.7651  0.2427 -0.1002
 2923TIP3    H130260   4.855   0.881   5.783  1.8281 -1.9661 -0.0109
 2923TIP3    H230261   4.753   0.784   5.839 -1.2842  1.2793  0.3335
 2924TIP3   OH230262   3.302   4.180  12.679  0.3969  0.6187 -0.5184
 2924TIP3    H130263   3.289   4.086  12.689  0.7851  0.4510 -1.4956
 2924TIP3    H230264   3.349   4.206  12.758  0.9022 -0.1377 -0.5600
 2925TIP3   OH230265   3.182   0.277  12.852 -0.2566 -0.0702 -0.4511
 2925TIP3    H130266   3.224   0.328  12.783 -1.8582  0.0860 -1.3628
 2925TIP3    H230267   3.111   0.334  12.883  0.0044 -0.4242  0.8431
 2926TIP3   OH230268   3.344   1.365   6.368 -0.3096 -0.0840 -0.0948
 2926TIP3    H130269   3.348   1.316   6.450 -1.1715 -1.0202 -0.5763
 2926TIP3    H230270   3.374   1.302   6.302  0.9156  0.8331 -0.4371
 2927TIP3   OH230271   5.156   6.439   3.125  0.4012  0.4350 -0.5154
 2927TIP3    H130272   5.145   6.513   3.185 -2.0861  0.1047 -0.4753
 2927TIP3    H230273   5.217   6.381   3.170  2.1116  2.2190 -0.3719
 2928TIP3   OH230274   3.408   6.750  10.617  0.7711  0.3194  0.2909
 2928TIP3    H130275   3.350   6.814  10.577  0.0622 -0.0106  0.7652
 2928TIP3    H230276   3.493   6.765  10.576  0.1812  0.2936 -0.9988
 2929TIP3   OH230277   1.927   1.558  12.748 -0.4249  0.8537  0.2938
 2929TIP3    H130278   2.000   1.560  12.810  0.3407  1.8779 -0.6075
 2929TIP3    H230279   1.929   1.644  12.706 -1.2282  0.3510 -0.8101
 2930TIP3   OH230280   4.413   3.775   3.759 -0.6290 -0.1981 -0.0855
 2930TIP3    H130281   4.322   3.773   3.728 -0.5232  1.2799 -0.5739
 2930TIP3    H230282   4.464   3.799   3.682 -0.1295  1.4336  0.7036
 2931TIP3   OH230283   4.050   3.291  13.356  0.4136  0.4670 -0.6985
 2931TIP3    H130284   3.966   3.260  13.321 -0.6720  1.8837  0.4935
 2931TIP3    H230285   4.041   3.387  13.357  2.8192  0.8025 -2.3247
 2932TIP3   OH230286   2.925   0.552  14.255  0.6309 -0.2077 -0.2979
 2932TIP3    H130287   2.955   0.625  14.200 -0.3579 -0.8707 -1.7939
 2932TIP3    H230288   2.830   0.559  14.254  0.4450 -2.1574 -1.4759
 2933TIP3   OH230289   0.151   5.727  12.194  0.6191 -0.6696 -0.3966
 2933TIP3    H130290   0.245   5.715  12.202  1.4208  2.9078 -2.1514
 2933TIP3    H230291   0.136   5.748  12.102 -1.4350  1.4060  0.2890
 2934TIP3   OH230292   0.990   2.684  11.427  0.4255 -0.0677 -0.3265
 2934TIP3    H130293   1.026   2.730  11.351  0.2779  0.3669 -0.1347
 2934TIP3    H230294   1.004   2.591  11.407 -2.0569 -0.1379 -2.1440
 2935TIP3   OH230295   5.692   4.874  15.406  0.3571  0.2176 -0.3994
 2935TIP3    H130296   5.776   4.908  15.437  0.1442 -0.8706  1.5592
 2935TIP3    H230297   5.667   4.809  15.472 -2.2797  0.8991 -0.6008
 2936TIP3   OH230298   1.769   5.372   4.018 -0.4418 -0.2175 -0.1759
 2936TIP3    H130299   1.735   5.420   3.942  1.1544  1.3402  0.0332
 2936TIP3    H230300   1.814   5.297   3.980 -0.3508  0.1073 -0.7284
 2937TIP3   OH230301   4.474   6.311  13.137  0.0583 -0.0096 -0.4015
 2937TIP3    H130302   4.383   6.339  13.147  0.3556  0.6580  0.5906
 2937TIP3    H230303   4.471   6.246  13.067 -1.2968 -0.5582  0.1162
 2938TIP3   OH230304   0.563   6.730   1.874 -0.9348  0.1509 -0.0130
 2938TIP3    H130305   0.474   6.723   1.909 -1.2659  2.5856 -0.1652
 2938TIP3    H230306   0.551   6.755   1.783 -0.0452 -1.8976 -0.7628
 2939TIP3   OH230307   2.925   6.332   3.137 -0.4001  1.0825 -0.1997
 2939TIP3    H130308   2.978   6.254   3.119  0.1465  0.7313  2.5495
 2939TIP3    H230309   2.904   6.367   3.050  1.5863 -0.6094 -1.4560
 2940TIP3   OH230310   4.502   3.686   4.496  0.0182  0.2095 -0.3846
 2940TIP3    H130311   4.454   3.729   4.425  1.9681  0.7272 -1.4780
 2940TIP3    H230312   4.513   3.755   4.561 -0.1041  0.2942 -0.4523
 2941TIP3   OH230313   4.024   2.586  12.107 -0.3864 -0.7056 -0.0581
 2941TIP3    H130314   4.104   2.553  12.147 -1.3580 -0.5034  2.2133
 2941TIP3    H230315   4.030   2.682  12.116  0.0331 -0.5327 -1.8126
 2942TIP3   OH230316   2.737   5.495   2.169  0.0567 -0.7317 -0.1708
 2942TIP3    H130317   2.797   5.432   2.208 -0.1600 -0.6835  0.2414
 2942TIP3    H230318   2.684   5.444   2.108  1.8812 -0.4495 -2.1430
 2943TIP3   OH230319   4.191   1.469   6.293  0.3265 -0.4165 -0.1767
 2943TIP3    H130320   4.243   1.547   6.312 -0.5264  0.2505 -0.5362
 2943TIP3    H230321   4.186   1.465   6.197 -0.8051 -0.1134 -0.1408
 2944TIP3   OH230322   4.630   4.372   1.545 -0.1901  0.0916 -0.0467
 2944TIP3    H130323   4.661   4.458   1.575 -0.7211 -0.2209  1.4792
 2944TIP3    H230324   4.543   4.389   1.510  0.4673  0.4740 -1.5846
 2945TIP3   OH230325   5.112   2.578  13.713 -0.2936  0.8909 -0.8951
 2945TIP3    H130326   5.029   2.539  13.739  0.1568 -0.6207 -1.6541
 2945TIP3    H230327   5.129   2.645  13.780 -0.3797 -1.1927  1.3337
 2946TIP3   OH230328   1.954   1.840   2.600  0.8754 -0.8702 -0.7462
 2946TIP3    H130329   1.886   1.773   2.605 -0.1166  0.2107  3.2752
 2946TIP3    H230330   1.912   1.913   2.555  0.6232 -1.4254 -1.4468
 2947TIP3   OH230331   0.105   4.954  11.557  0.5749  0.1713 -0.2205
 2947TIP3    H130332   0.144   5.006  11.487  1.5160  0.8193  0.7618
 2947TIP3    H230333   0.045   5.013  11.600 -1.5997 -0.8165 -1.7127
 2948TIP3   OH230334   1.462   2.596  15.484  0.2752  0.5690  0.0491
 2948TIP3    H130335   1.385   2.651  15.470  0.5039  1.0675  0.6913
 2948TIP3    H230336   1.450   2.521  15.425 -0.4496  0.8929 -0.2190
 2949TIP3   OH230337   2.383   1.349   3.405  0.5879 -0.9522 -0.8512
 2949TIP3    H130338   2.440   1.313   3.337  2.0891  0.7452 -0.5560
 2949TIP3    H230339   2.331   1.416   3.360  1.0001 -0.3931 -0.4976
 2950TIP3   OH230340   4.536   6.129  11.578 -0.7878 -0.0601  0.6477
 2950TIP3    H130341   4.514   6.177  11.498 -1.1925 -0.8169  0.3004
 2950TIP3    H230342   4.589   6.191  11.629 -1.0627  0.6511  0.0819
 2951TIP3   OH230343   5.367   4.586  14.849  0.0750 -0.0057 -0.5236
 2951TIP3    H130344   5.400   4.519  14.789  0.6604  0.9321 -1.2766
 2951TIP3    H230345   5.272   4.587  14.833  0.2278  0.2655 -1.4961
 2952TIP3   OH230346   2.819   2.856  11.646 -0.1361  0.1140  1.0066
 2952TIP3    H130347   2.865   2.935  11.619  2.0071 -1.1164  0.8585
 2952TIP3    H230348   2.806   2.867  11.740  0.3994  0.5191  1.0377
 2953TIP3   OH230349   0.062   5.469   4.214 -0.0789  0.1026 -0.2592
 2953TIP3    H130350   0.116   5.394   4.192 -0.9464 -0.4972 -0.4028
 2953TIP3    H230351   0.092   5.495   4.301 -1.7083 -2.2955  1.1524
 2954TIP3   OH230352   0.904   6.301  13.357 -0.0729  0.0692  0.3078
 2954TIP3    H130353   0.877   6.365  13.422 -0.3906  0.2676 -0.0168
 2954TIP3    H230354   0.825   6.249  13.341 -0.9478  1.9862 -2.2101
 2955TIP3   OH230355   0.477   4.569   2.602  0.4247  0.0060  0.0853
 2955TIP3    H130356   0.451   4.644   2.547 -1.0360  0.1772  0.9535
 2955TIP3    H230357   0.403   4.556   2.661  1.4776 -0.9028  1.2618
 2956TIP3   OH230358   4.348   5.500  14.623  0.3379 -0.1479  0.6752
 2956TIP3    H130359   4.376   5.516  14.713  2.2490  2.6604 -0.3006
 2956TIP3    H230360   4.388   5.416  14.601 -0.0136 -0.8043  2.3189
 2957TIP3   OH230361   0.615   5.030  12.885 -0.1174  0.1088 -0.0271
 2957TIP3    H130362   0.660   5.111  12.860 -0.0838  0.2955  0.6154
 2957TIP3    H230363   0.543   5.059  12.941  0.9185 -0.3978  1.6479
 2958TIP3   OH230364   3.856   3.501  12.154  0.7352  0.3781 -0.4613
 2958TIP3    H130365   3.839   3.485  12.246 -0.9050  2.3996 -0.3499
 2958TIP3    H230366   3.930   3.443  12.133 -0.2609 -1.7859  1.5067
 2959TIP3   OH230367   1.910   5.261  14.620 -0.3429  0.1350  0.2449
 2959TIP3    H130368   1.988   5.238  14.671  0.6061  0.0411 -1.2137
 2959TIP3    H230369   1.850   5.188  14.634 -0.0326  0.0271  1.0777
 2960TIP3   OH230370   3.570   3.660   0.821  0.4471  0.0229 -0.2716
 2960TIP3    H130371   3.498   3.718   0.795  0.7077  0.7979  0.6462
 2960TIP3    H230372   3.532   3.601   0.886  1.0056  1.6952  1.7126
 2961TIP3   OH230373   1.680   4.148  12.178  0.1883  0.3695  0.4001
 2961TIP3    H130374   1.620   4.140  12.104 -0.9756  1.8292  1.1302
 2961TIP3    H230375   1.677   4.241  12.201  0.7794  0.0107  2.0635
 2962TIP3   OH230376   2.349   0.480  14.578 -0.2128 -0.6924 -0.2317
 2962TIP3    H130377   2.386   0.559  14.617 -0.0992 -0.7229 -0.2756
 2962TIP3    H230378   2.318   0.507  14.492 -1.2736 -0.4236  0.2182
 2963TIP3   OH230379   3.201   6.326  16.077  0.2082  0.3689  0.8346
 2963TIP3    H130380   3.173   6.391  16.142  1.2551  2.2030 -0.4489
 2963TIP3    H230381   3.150   6.348  15.999 -1.2385 -1.9711  1.0268
 2964TIP3   OH230382   4.367   3.249   3.444 -0.2590 -0.1425  0.4515
 2964TIP3    H130383   4.420   3.288   3.513 -0.3173 -1.2211  1.1192
 2964TIP3    H230384   4.284   3.297   3.447  0.4162  1.1286 -0.1858
 2965TIP3   OH230385   2.763   3.768  13.453  0.8050  0.4480 -0.3428
 2965TIP3    H130386   2.834   3.704  13.444 -0.1433 -0.4246 -2.0524
 2965TIP3    H230387   2.735   3.760  13.544  2.8411  0.7915  0.3766
 2966TIP3   OH230388   4.338   5.129  11.326 -0.0531  0.0986 -0.3848
 2966TIP3    H130389   4.263   5.118  11.384  0.4198 -1.0916  0.0408
 2966TIP3    H230390   4.358   5.040  11.295  0.4108  0.5581 -1.4800
 2967TIP3   OH230391   2.684   2.577  16.225 -0.1699 -0.8095 -0.1437
 2967TIP3    H130392   2.689   2.523  16.145 -2.4872  0.1527 -0.9940
 2967TIP3    H230393   2.655   2.516  16.293 -1.7612 -0.8900 -0.8702
 2968TIP3   OH230394   4.147   1.016  14.410  0.2917  0.4439  0.0752
 2968TIP3    H130395   4.229   0.973  14.435  2.8095  2.6964 -3.3754
 2968TIP3    H230396   4.156   1.106  14.441 -1.6511  0.3911  0.9416
 2969TIP3   OH230397   6.615   6.632  12.744 -0.4013 -0.1048 -0.3480
 2969TIP3    H130398   6.615   6.720  12.706 -0.2657  0.5838  1.1826
 2969TIP3    H230399   6.684   6.586  12.696  0.0142  0.8336 -0.6796
 2970TIP3   OH230400   6.515   4.819   1.107 -0.4434  0.2947 -0.0783
 2970TIP3    H130401   6.421   4.810   1.088 -0.2028 -0.3401 -1.0695
 2970TIP3    H230402   6.547   4.729   1.114  0.2751  0.4829 -0.7711
 2971TIP3   OH230403   0.186   2.569   4.076  0.0935 -0.0851 -0.1095
 2971TIP3    H130404   0.191   2.529   3.989  1.8038 -1.0590  0.3849
 2971TIP3    H230405   0.247   2.642   4.071 -0.7930  0.6609 -0.1092
 2972TIP3   OH230406   5.117   3.757   1.024 -0.3929 -0.0597  0.3897
 2972TIP3    H130407   5.193   3.738   0.969  0.3953 -1.0077  1.7253
 2972TIP3    H230408   5.137   3.715   1.108 -2.3065 -0.1745  0.8543
 2973TIP3   OH230409   3.599   2.473  13.969  0.1832  0.2217 -0.9698
 2973TIP3    H130410   3.549   2.535  13.915  1.6257  1.3769 -1.0471
 2973TIP3    H230411   3.552   2.471  14.053 -0.5344  0.5260 -1.3535
 2974TIP3   OH230412   4.469   1.773   1.166  0.3483 -0.2314  0.1958
 2974TIP3    H130413   4.505   1.730   1.088  1.8850  2.4180 -0.6732
 2974TIP3    H230414   4.376   1.785   1.146  0.4473 -0.7957 -0.6463
 2975TIP3   OH230415   4.579   5.829   5.601 -0.1973 -0.3481 -0.0581
 2975TIP3    H130416   4.508   5.773   5.631 -1.5238  1.8793  1.1888
 2975TIP3    H230417   4.551   5.861   5.515 -0.2391 -0.2128  0.0066
 2976TIP3   OH230418   5.419   1.045  15.718 -0.0446  0.0540 -0.7399
 2976TIP3    H130419   5.506   1.006  15.717  0.5494  1.1902  1.3344
 2976TIP3    H230420   5.362   0.980  15.677  1.1876 -2.2442  1.0221
 2977TIP3   OH230421   2.187   4.210  16.357  0.0522 -0.1219 -0.8691
 2977TIP3    H130422   2.228   4.293  16.383 -0.7270  0.0968 -0.3105
 2977TIP3    H230423   2.191   4.156  16.436  0.9668 -0.8037 -1.3577
 2978TIP3   OH230424   2.538   4.622   3.656  0.0958  0.0548 -0.0314
 2978TIP3    H130425   2.584   4.654   3.733 -1.4101  0.2512  0.8285
 2978TIP3    H230426   2.552   4.690   3.590  1.8892 -0.3962 -0.1493
 2979TIP3   OH230427   2.561   0.177   3.279  0.4184 -0.0004  0.5520
 2979TIP3    H130428   2.484   0.212   3.234 -0.7000 -3.2902 -0.3573
 2979TIP3    H230429   2.629   0.172   3.212  0.2835 -0.3835  0.4404
 2980TIP3   OH230430   1.952   3.311   3.194 -0.4153  0.0502 -0.0553
 2980TIP3    H130431   1.871   3.310   3.144  0.3494  2.2609 -1.4518
 2980TIP3    H230432   2.018   3.279   3.133  0.2876  1.3205  0.0256
 2981TIP3   OH230433   2.478   4.546   2.284 -0.1928  0.0072  0.4553
 2981TIP3    H130434   2.431   4.593   2.353  2.0579 -0.4623  2.4450
 2981TIP3    H230435   2.522   4.615   2.234 -3.7680  0.5854 -2.3030
 2982TIP3   OH230436   6.010   6.348  12.022  0.4236 -0.4113 -0.8912
 2982TIP3    H130437   6.095   6.304  12.024  0.1507 -1.0158 -1.9494
 2982TIP3    H230438   5.947   6.277  12.009 -0.3595 -0.0912  0.9399
 2983TIP3   OH230439   3.823   6.481  12.516  0.1367  0.6537 -0.3112
 2983TIP3    H130440   3.732   6.451  12.514  0.2081  0.3870 -2.2851
 2983TIP3    H230441   3.819   6.568  12.556 -1.3236  1.5205 -2.1883
 2984TIP3   OH230442   5.488   4.845  15.724 -0.7605  0.0676  0.2851
 2984TIP3    H130443   5.508   4.885  15.809 -1.1975 -1.0782  0.9418
 2984TIP3    H230444   5.455   4.917  15.671 -1.6906  0.5596  1.4979
 2985TIP3   OH230445   1.454   5.608   4.381  0.2396  0.0914  0.3917
 2985TIP3    H130446   1.508   5.559   4.442  1.4947  0.8375 -0.0829
 2985TIP3    H230447   1.419   5.542   4.321 -0.2968 -0.5310  1.3727
 2986TIP3   OH230448   3.814   4.198  17.038 -0.2378 -0.7313 -0.1092
 2986TIP3    H130449   3.724   4.209  17.069 -0.3479 -1.0282 -0.3173
 2986TIP3    H230450   3.808   4.210  16.943 -0.3765 -2.5931 -0.3614
 2987TIP3   OH230451   6.199   2.709  11.974  0.3282 -0.2619  0.4795
 2987TIP3    H130452   6.238   2.755  12.049 -0.6642  1.5946 -0.0723
 2987TIP3    H230453   6.256   2.732  11.901 -0.0089 -0.1397  0.2526
 2988TIP3   OH230454   6.252   0.919  16.855 -0.4510 -0.1808 -0.3655
 2988TIP3    H130455   6.347   0.920  16.859 -0.4318 -1.3677 -0.0738
 2988TIP3    H230456   6.228   1.008  16.827  0.7010  0.2944  0.0936
 2989TIP3   OH230457   4.740   5.041  12.309  0.0341 -0.5009  0.3130
 2989TIP3    H130458   4.743   5.100  12.384 -0.9465  0.4022 -0.3123
 2989TIP3    H230459   4.740   4.953  12.347  1.5962 -0.1316  1.2635
 2990TIP3   OH230460   6.009   3.766  11.450 -0.6749 -0.8545 -0.6165
 2990TIP3    H130461   5.953   3.822  11.396 -0.3153 -1.0801 -1.2335
 2990TIP3    H230462   5.974   3.678  11.439 -0.5824 -0.9076 -0.5011
 2991TIP3   OH230463   4.499   5.649   0.983 -0.2599 -0.5082 -0.3479
 2991TIP3    H130464   4.574   5.633   1.040 -1.9874 -1.0866  1.8921
 2991TIP3    H230465   4.477   5.741   0.997 -2.0245 -1.1710  1.7618
 2992TIP3   OH230466   0.151   5.007   4.604  0.3828  0.4008 -0.0974
 2992TIP3    H130467   0.241   5.009   4.572  0.8125 -1.4728  0.9026
 2992TIP3    H230468   0.152   5.062   4.683  0.1196  2.0887 -1.1991
 2993TIP3   OH230469   1.589   6.056  12.951  0.2352  1.0614 -0.6247
 2993TIP3    H130470   1.623   6.144  12.936  0.4685  0.9517 -0.7592
 2993TIP3    H230471   1.543   6.062  13.034  0.1056  1.3506 -0.7157
 2994TIP3   OH230472   6.145   3.562   5.442 -0.2215  0.5538 -0.2022
 2994TIP3    H130473   6.102   3.578   5.358  3.0289  0.8172 -1.9737
 2994TIP3    H230474   6.193   3.480   5.430 -1.8880 -0.9683  2.4618
 2995TIP3   OH230475   2.204   6.322  15.180 -0.3551 -0.2088  0.3704
 2995TIP3    H130476   2.111   6.345  15.176 -1.1250 -3.0120 -0.1147
 2995TIP3    H230477   2.220   6.304  15.272 -0.4176 -0.1772  0.3871
 2996TIP3   OH230478   0.415   0.723   5.252  0.1455  0.8658  0.5184
 2996TIP3    H130479   0.379   0.806   5.222  2.6180  2.5024  1.7404
 2996TIP3    H230480   0.338   0.669   5.272 -1.5652  1.8830 -2.5686
 2997TIP3   OH230481   4.365   2.124  15.796  0.1168  0.0327 -0.2082
 2997TIP3    H130482   4.382   2.040  15.754  0.5663 -0.1505  0.3341
 2997TIP3    H230483   4.443   2.142  15.848  0.0853  0.8563 -0.4197
 2998TIP3   OH230484   0.307   4.881   5.176  0.1465 -0.6133  0.5555
 2998TIP3    H130485   0.370   4.835   5.121 -0.1596 -0.0311 -0.3020
 2998TIP3    H230486   0.223   4.839   5.157 -0.3304  0.9258 -1.0544
 2999TIP3   OH230487   6.112   1.626   1.750 -0.0557  0.0238 -0.2153
 2999TIP3    H130488   6.135   1.694   1.687  0.8614 -2.4006 -2.7765
 2999TIP3    H230489   6.057   1.565   1.700  1.2118 -2.3528  1.0678
 3000TIP3   OH230490   4.331   0.834  12.386  0.3086 -0.0319 -0.8359
 3000TIP3    H130491   4.321   0.851  12.293 -0.8872  1.5335 -0.4660
 3000TIP3    H230492   4.338   0.920  12.426 -2.6643 -0.4370  0.8366
 3001TIP3   OH230493   3.989   4.501  13.056  0.1022  0.0707  0.7308
 3001TIP3    H130494   3.956   4.428  13.003  1.0563 -0.4021  0.7623
 3001TIP3    H230495   4.026   4.562  12.993  0.5034 -0.1108  0.7833
 3002TIP3   OH230496   6.730   5.764  12.631 -0.8574 -0.1153 -0.6609
 3002TIP3    H130497   6.673   5.830  12.593  1.8216  3.1049  0.4067
 3002TIP3    H230498   6.776   5.726  12.556 -0.3188  1.4333 -1.1522
 3003TIP3   OH230499   0.364   2.003  15.760  0.4685 -0.5469 -0.2718
 3003TIP3    H130500   0.328   1.935  15.818  0.0650 -0.3581 -0.2939
 3003TIP3    H230501   0.387   1.956  15.680  1.4349 -0.8880  0.1870
 3004TIP3   OH230502   3.144   1.901  16.413  0.0021 -0.5449  0.2038
 3004TIP3    H130503   3.219   1.912  16.354 -1.2236 -1.2392 -1.5438
 3004TIP3    H230504   3.185   1.882  16.498  1.8162  0.6198 -0.3291
 3005TIP3   OH230505   5.715   5.593   2.467  0.0925  0.4774  0.1253
 3005TIP3    H130506   5.707   5.663   2.532 -1.3590 -0.4384  0.9954
 3005TIP3    H230507   5.636   5.602   2.413  0.0999 -0.2233 -0.0075
 3006TIP3   OH230508   2.269   6.697   4.194 -0.5884 -0.0418 -0.1467
 3006TIP3    H130509   2.284   6.673   4.102  0.5178 -1.9530  0.4731
 3006TIP3    H230510   2.329   6.770   4.209  0.5395 -0.8477 -0.5282
 3007TIP3   OH230511   6.302   2.735  15.148 -0.4112  0.5224 -0.4123
 3007TIP3    H130512   6.351   2.742  15.066 -0.9438 -0.4065 -0.8188
 3007TIP3    H230513   6.367   2.755  15.216  0.0702  1.1593 -1.0402
 3008TIP3   OH230514   1.487   3.200  14.930 -0.2609 -0.1930  0.4472
 3008TIP3    H130515   1.517   3.201  14.840  0.5128  0.5462  0.6950
 3008TIP3    H230516   1.530   3.124  14.969  0.5998  0.3343  0.5614
 3009TIP3   OH230517   5.575   0.478   3.703  0.4402  0.1419  0.8586
 3009TIP3    H130518   5.526   0.492   3.622  2.6536  0.0928 -0.5895
 3009TIP3    H230519   5.594   0.384   3.702  2.7670  0.5542 -0.0536
 3010TIP3   OH230520   2.814   0.410  17.007  0.2383 -0.2113 -0.7928
 3010TIP3    H130521   2.808   0.451  17.094 -1.0572  3.1183 -2.2492
 3010TIP3    H230522   2.904   0.381  17.001  1.0662  1.7177  0.8219
 3011TIP3   OH230523   3.979   5.749   4.029 -0.0506  0.6628 -0.2701
 3011TIP3    H130524   4.040   5.815   3.997  0.9730 -1.0307 -1.9751
 3011TIP3    H230525   3.967   5.689   3.956 -1.6153 -0.5975  0.9303
 3012TIP3   OH230526   1.259   4.422   2.736 -0.2197  0.0062  0.3960
 3012TIP3    H130527   1.200   4.478   2.686  2.1363  2.5126  0.1140
 3012TIP3    H230528   1.208   4.395   2.812 -2.0425  1.1235 -0.3569
 3013TIP3   OH230529   3.119   1.208  15.080  0.2818 -0.3293 -0.1863
 3013TIP3    H130530   3.088   1.262  15.007  0.1214 -0.4502 -0.2058
 3013TIP3    H230531   3.113   1.118  15.048 -0.5720 -0.4416  0.2740
 3014TIP3   OH230532   3.097   2.675  17.140  0.2289  0.3636  0.2359
 3014TIP3    H130533   3.160   2.645  17.075  0.4896  2.0929 -0.3397
 3014TIP3    H230534   3.126   2.633  17.222  1.4060  0.1899 -0.2521
 3015TIP3   OH230535   5.167   4.225  11.328  0.5494  0.2261  0.0837
 3015TIP3    H130536   5.191   4.158  11.263 -2.0556 -0.8454  0.1272
 3015TIP3    H230537   5.231   4.213  11.399  0.2607 -2.1524  0.0287
 3016TIP3   OH230538   3.503   3.580  11.524 -0.2879 -0.0356  0.1041
 3016TIP3    H130539   3.534   3.540  11.606 -2.1595  0.2493  1.0066
 3016TIP3    H230540   3.412   3.602  11.542 -0.5466  0.6401 -1.8680
 3017TIP3   OH230541   0.864   4.787  12.129  0.5752 -0.3999  0.2526
 3017TIP3    H130542   0.929   4.771  12.197  2.9299 -1.3522 -2.0202
 3017TIP3    H230543   0.836   4.699  12.102 -1.8253 -0.0093  1.2330
 3018TIP3   OH230544   6.120   2.453  14.537 -0.2669  0.0854  0.5004
 3018TIP3    H130545   6.046   2.508  14.564 -0.7160  0.0524 -0.5978
 3018TIP3    H230546   6.158   2.500  14.463  0.2930 -0.3311  0.5233
 3019TIP3   OH230547   6.196   4.053  15.743  0.7566  0.0763 -0.0995
 3019TIP3    H130548   6.181   3.964  15.713  1.1435  0.3859 -1.2676
 3019TIP3    H230549   6.119   4.075  15.795  1.3334 -1.4532  1.4882
 3020TIP3   OH230550   6.481   2.217  15.381 -0.3069 -0.2944  0.0503
 3020TIP3    H130551   6.388   2.207  15.401  0.0293 -2.4336  0.8006
 3020TIP3    H230552   6.486   2.213  15.286 -0.9931  0.1297 -0.0118
 3021TIP3   OH230553   1.659   6.141  14.061  0.2320  0.2842  0.5529
 3021TIP3    H130554   1.594   6.186  14.116 -0.4895  0.7137 -0.6313
 3021TIP3    H230555   1.675   6.202  13.989  1.2861 -0.2123  0.3575
 3022TIP3   OH230556   0.243   4.791  14.853  0.6766 -0.2028  0.0863
 3022TIP3    H130557   0.192   4.805  14.774  2.4741  0.4498 -1.0229
 3022TIP3    H230558   0.185   4.741  14.911 -0.6889 -0.6992 -1.6258
 3023TIP3   OH230559   2.665   2.855   0.906  0.1285  0.9350 -0.6930
 3023TIP3    H130560   2.663   2.910   0.984 -0.6883  0.9348 -0.6989
 3023TIP3    H230561   2.573   2.833   0.891  0.4745 -0.9823 -0.2901
 3024TIP3   OH230562   2.941   4.392  15.142  0.5975  0.4377  0.0871
 3024TIP3    H130563   2.876   4.427  15.203  0.1045 -0.5323  0.1376
 3024TIP3    H230564   3.010   4.458  15.141 -0.1204  1.2147  0.4736
 3025TIP3   OH230565   2.985   5.365   3.773 -0.6153  0.0914  0.4477
 3025TIP3    H130566   3.073   5.397   3.795 -0.2955  0.9268 -1.7859
 3025TIP3    H230567   2.941   5.442   3.736 -1.4512 -0.9287 -0.7165
 3026TIP3   OH230568   3.087   1.630   0.794  0.0918  0.8259 -0.6414
 3026TIP3    H130569   3.168   1.580   0.781  0.2607  0.7708  0.5342
 3026TIP3    H230570   3.114   1.721   0.790  0.0505  0.8191 -1.1684
 3027TIP3   OH230571   3.801   6.413  14.289 -0.1223 -0.2943  0.6829
 3027TIP3    H130572   3.881   6.456  14.258  0.3661 -0.8607  1.1242
 3027TIP3    H230573   3.805   6.421  14.384 -0.5802 -0.3482  0.7096
 3028TIP3   OH230574   4.529   6.585  13.084  0.2542 -0.2309  0.6512
 3028TIP3    H130575   4.616   6.603  13.118 -0.6680  0.6265  2.7756
 3028TIP3    H230576   4.520   6.490  13.091  1.2315 -0.4002 -0.2092
 3029TIP3   OH230577   1.705   0.829  13.445  0.2601 -0.8744  0.0611
 3029TIP3    H130578   1.741   0.857  13.360 -1.1826  0.8429 -0.0331
 3029TIP3    H230579   1.775   0.847  13.507  0.6834 -0.4478 -0.5223
 3030TIP3   OH230580   5.812   5.707  12.942  0.0583 -0.1715 -0.4579
 3030TIP3    H130581   5.850   5.697  13.029 -2.2910 -1.2516  0.5482
 3030TIP3    H230582   5.840   5.630  12.894  0.0952 -0.3636 -0.1283
 3031TIP3   OH230583   3.852   0.101  14.914  0.1411  0.3559  0.5455
 3031TIP3    H130584   3.910   0.129  14.984  0.6603  1.1254 -0.1735
 3031TIP3    H230585   3.783   0.052  14.959  0.7114  0.4236  1.5353
 3032TIP3   OH230586   1.248   1.745   2.119 -0.3292 -0.1093 -0.0515
 3032TIP3    H130587   1.206   1.705   2.194  0.4972 -1.5109 -0.2906
 3032TIP3    H230588   1.240   1.840   2.134  2.3396 -0.2238  3.3240
 3033TIP3   OH230589   2.998   1.579  11.464 -0.6920 -0.0958  0.5007
 3033TIP3    H130590   2.930   1.609  11.525 -1.1280 -0.2511  0.1032
 3033TIP3    H230591   2.955   1.581  11.378 -0.3832 -0.7987  0.3264
 3034TIP3   OH230592   2.334   5.628   2.548 -0.3616  0.2648 -0.1358
 3034TIP3    H130593   2.390   5.612   2.472 -0.0330 -0.5172  0.2657
 3034TIP3    H230594   2.329   5.544   2.593 -0.8571  0.6288  0.5140
 3035TIP3   OH230595   2.174   4.230  11.064 -0.0157 -0.1018 -0.4819
 3035TIP3    H130596   2.269   4.238  11.078 -0.2532  0.3723  1.0152
 3035TIP3    H230597   2.163   4.145  11.021  1.1442  0.1514 -1.3136
 3036TIP3   OH230598   5.189   5.818  13.954 -0.2228 -0.1458 -0.3070
 3036TIP3    H130599   5.243   5.761  14.009  2.3101  1.7229 -0.6261
 3036TIP3    H230600   5.115   5.842  14.008  0.7970 -0.5050  1.3163
 3037TIP3   OH230601   5.188   4.634  12.630 -0.6058 -0.4040  0.0438
 3037TIP3    H130602   5.281   4.613  12.633 -0.8411 -1.4069  0.9713
 3037TIP3    H230603   5.168   4.642  12.537  0.5637  0.6337 -0.1522
 3038TIP3   OH230604   6.477   3.489  14.821  0.2623  0.5103 -0.4407
 3038TIP3    H130605   6.464   3.576  14.784  1.8291  1.4421  1.0665
 3038TIP3    H230606   6.571   3.484  14.838 -0.1207 -0.5716  1.6423
 3039TIP3   OH230607   2.307   0.773   5.664 -0.2102  0.0263  0.1303
 3039TIP3    H130608   2.306   0.678   5.665 -1.4577  0.0231  1.1304
 3039TIP3    H230609   2.230   0.799   5.715 -0.7836  1.5712 -1.4267
 3040TIP3   OH230610   3.849   5.295  17.175 -0.3167 -0.1985 -0.0589
 3040TIP3    H130611   3.897   5.261  17.251 -1.6404 -0.9601  0.4651
 3040TIP3    H230612   3.889   5.381  17.159  2.1799 -1.3445 -0.5443
 3041TIP3   OH230613   0.265   1.079  13.177  0.1280  0.0320  0.4062
 3041TIP3    H130614   0.219   1.161  13.192 -1.0868 -0.5475 -0.0906
 3041TIP3    H230615   0.320   1.069  13.255  0.5173  1.4400  0.3457
 3042TIP3   OH230616   4.270   0.305   5.220  0.3442 -0.4263 -0.3005
 3042TIP3    H130617   4.282   0.346   5.305  2.2778  0.1309 -0.7892
 3042TIP3    H230618   4.235   0.374   5.164  1.0317 -0.1906 -0.4507
 3043TIP3   OH230619   3.446   5.445  11.568 -0.0753  0.0584 -0.3787
 3043TIP3    H130620   3.496   5.452  11.649 -0.1221  1.2908 -0.4334
 3043TIP3    H230621   3.357   5.470  11.593 -0.4086 -0.9001 -0.5431
 3044TIP3   OH230622   1.006   3.500   0.484 -0.3352  0.5463  0.3435
 3044TIP3    H130623   0.933   3.469   0.430 -1.0524  0.2805  1.4369
 3044TIP3    H230624   1.055   3.421   0.505 -0.5400  0.5378  0.7844
 3045TIP3   OH230625   5.163   5.680   2.278  0.8760 -0.2024  0.3160
 3045TIP3    H130626   5.137   5.588   2.270  0.2693  0.0536 -0.7450
 3045TIP3    H230627   5.256   5.680   2.255  0.6413 -0.4162 -0.6879
 3046TIP3   OH230628   2.431   4.670   3.960 -0.2442 -0.0894  0.4388
 3046TIP3    H130629   2.516   4.711   3.943 -0.7648  0.4174 -1.1348
 3046TIP3    H230630   2.367   4.736   3.933 -1.1328 -0.7772  0.8165
 3047TIP3   OH230631   0.663   1.623   4.756 -0.2145 -0.3993  0.2271
 3047TIP3    H130632   0.624   1.676   4.826 -1.8380 -1.3898  0.1205
 3047TIP3    H230633   0.676   1.537   4.797  0.9637 -0.3612 -0.0447
 3048TIP3   OH230634   4.404   5.407   6.358 -0.1993 -0.3215  0.0481
 3048TIP3    H130635   4.402   5.484   6.414  2.4797  1.3291 -1.8784
 3048TIP3    H230636   4.413   5.333   6.418  1.1145  1.2183  1.8462
 3049TIP3   OH230637   0.442   0.377  13.632 -0.2691 -0.6243  0.2676
 3049TIP3    H130638   0.443   0.285  13.606  1.1997 -0.8262  0.9338
 3049TIP3    H230639   0.520   0.415  13.591 -1.2211  0.5232 -0.5793
 3050TIP3   OH230640   0.309   4.884  16.351 -0.8359  0.1341  0.5319
 3050TIP3    H130641   0.332   4.792  16.365  0.7406  0.6287  1.4705
 3050TIP3    H230642   0.282   4.915  16.437 -1.2743  0.5878  0.2358
 3051TIP3   OH230643   4.364   4.915  16.669 -0.0653 -0.4347 -0.1728
 3051TIP3    H130644   4.430   4.888  16.734  0.7719  1.5672 -0.1071
 3051TIP3    H230645   4.287   4.937  16.722  0.2514  0.1292  0.0737
 3052TIP3   OH230646   3.126   2.574   4.668  0.2982  0.4603  0.4121
 3052TIP3    H130647   3.156   2.549   4.755  1.2173 -0.5343 -0.1741
 3052TIP3    H230648   3.043   2.619   4.684 -0.1534 -0.7566  1.7233
 3053TIP3   OH230649   4.291   2.188   1.333  0.3134 -0.1640 -0.4865
 3053TIP3    H130650   4.237   2.118   1.294  1.7916 -0.6867 -1.7271
 3053TIP3    H230651   4.375   2.145   1.351  0.5743  0.8045  0.7033
 3054TIP3   OH230652   0.628   5.927  14.298  0.3586 -0.4630  0.1348
 3054TIP3    H130653   0.535   5.929  14.322  0.2703  0.8425 -0.1958
 3054TIP3    H230654   0.638   5.848  14.246 -0.5229 -0.7339  0.3586
 3055TIP3   OH230655   4.021   6.446   0.001 -0.0805  0.3484 -0.0699
 3055TIP3    H130656   3.929   6.419   0.009  0.7677 -2.6137  0.8018
 3055TIP3    H230657   4.049   6.460   0.091  0.4840  0.7088 -0.2986
 3056TIP3   OH230658   2.813   5.195  11.984 -0.1226  0.6507 -0.3029
 3056TIP3    H130659   2.742   5.179  12.046 -0.1808  0.2693 -0.4685
 3056TIP3    H230660   2.889   5.216  12.039 -0.3871  1.1832 -0.1276
 3057TIP3   OH230661   3.854   6.171   4.748 -0.2830  0.2267 -0.2399
 3057TIP3    H130662   3.893   6.221   4.820  1.9776 -1.3510 -0.2771
 3057TIP3    H230663   3.906   6.195   4.671 -1.0310 -0.0367 -0.8430
 3058TIP3   OH230664   2.945   3.555  11.861 -0.0668 -0.1157  0.2966
 3058TIP3    H130665   2.996   3.496  11.917  0.6091  2.1488  2.2328
 3058TIP3    H230666   2.861   3.563  11.906 -0.9915 -1.2881 -1.1507
 3059TIP3   OH230667   2.184   4.712   4.642  0.6874 -0.2980 -0.0142
 3059TIP3    H130668   2.199   4.700   4.736  2.0588  1.0431 -0.0224
 3059TIP3    H230669   2.260   4.671   4.601  0.4994 -0.1671 -0.4905
 3060TIP3   OH230670   4.732   5.439   0.993  0.3359  0.0010 -0.1384
 3060TIP3    H130671   4.642   5.427   0.965  0.9026  2.8988 -4.0267
 3060TIP3    H230672   4.782   5.375   0.942  0.7868  1.1025 -1.1263
 3061TIP3   OH230673   5.182   0.980  11.954 -0.0520 -0.2089 -0.8619
 3061TIP3    H130674   5.201   0.889  11.979  3.8542  0.6627 -0.0495
 3061TIP3    H230675   5.100   1.000  11.999  0.3899 -2.5227  1.1944
 3062TIP3   OH230676   3.176   2.472   1.723 -0.0113 -0.3861 -0.3148
 3062TIP3    H130677   3.261   2.488   1.763 -0.0974 -0.2650 -0.1775
 3062TIP3    H230678   3.125   2.429   1.791 -0.2240  0.0023 -0.2235
 3063TIP3   OH230679   5.965   2.369   3.362 -0.1829 -0.0026  0.0779
 3063TIP3    H130680   5.973   2.403   3.451  1.5335 -0.6692  0.2209
 3063TIP3    H230681   6.055   2.350   3.335 -0.7758 -1.0795 -1.2960
 3064TIP3   OH230682   1.673   0.425  11.380  0.0218  0.1406  0.0974
 3064TIP3    H130683   1.594   0.374  11.399 -0.8919  1.0826 -1.0251
 3064TIP3    H230684   1.653   0.468  11.297  2.2331 -0.6336 -0.8932
 3065TIP3   OH230685   2.891   3.215   0.525 -0.5691  0.0251 -0.8902
 3065TIP3    H130686   2.927   3.300   0.499 -0.9524  0.2374 -0.7249
 3065TIP3    H230687   2.891   3.218   0.621  0.3046 -0.5340 -0.8549
 3066TIP3   OH230688   2.087   4.026  10.120  0.0627  0.3758  0.1331
 3066TIP3    H130689   2.066   4.092  10.188  0.9597  1.7153 -0.8417
 3066TIP3    H230690   2.085   4.075  10.038 -1.4594 -1.3146 -0.9086
 3067TIP3   OH230691   6.675   5.437   5.887  0.6245  0.5418 -0.5073
 3067TIP3    H130692   6.732   5.499   5.933 -0.1404  0.5168  0.5312
 3067TIP3    H230693   6.609   5.413   5.953 -1.0604  1.1810 -1.8762
 3068TIP3   OH230694   2.213   5.750   0.211  0.0735 -0.6917 -0.5473
 3068TIP3    H130695   2.139   5.716   0.261  1.1850 -2.4298  0.0365
 3068TIP3    H230696   2.210   5.704   0.128 -0.3542  0.3768 -1.1462
 3069TIP3   OH230697   5.146   4.680  13.239  0.7075  0.0297 -0.2411
 3069TIP3    H130698   5.160   4.769  13.272  1.4806 -0.5788  1.2203
 3069TIP3    H230699   5.059   4.657  13.269 -0.3340  0.9575 -2.3515
 3070TIP3   OH230700   3.687   3.942  17.041 -0.5469 -0.0028  0.4199
 3070TIP3    H130701   3.744   3.966  17.114 -1.3399  0.4277  0.9083
 3070TIP3    H230702   3.601   3.978  17.064 -0.6568  0.7833 -1.0541
 3071TIP3   OH230703   2.553   5.612   4.971 -0.4772  0.5157  0.1243
 3071TIP3    H130704   2.636   5.618   4.924 -0.6387  0.5680 -0.1602
 3071TIP3    H230705   2.576   5.573   5.055 -0.2299  0.0799 -0.1373
 3072TIP3   OH230706   0.489   2.165  15.963  0.1690 -0.2797 -0.3058
 3072TIP3    H130707   0.419   2.163  16.028 -0.3710  1.4686 -0.7791
 3072TIP3    H230708   0.459   2.105  15.894  0.2358 -1.2960  0.5317
 3073TIP3   OH230709   3.468   1.024   2.819  0.0646 -0.1249 -0.2054
 3073TIP3    H130710   3.461   0.995   2.910  0.9342 -1.2142 -0.4590
 3073TIP3    H230711   3.410   0.966   2.770 -0.2657  0.3425 -0.3764
 3074TIP3   OH230712   0.254   1.000  14.301 -0.7293  0.2122  0.0212
 3074TIP3    H130713   0.264   0.956  14.217  1.7720 -1.2057  0.9425
 3074TIP3    H230714   0.161   1.019  14.308 -1.0975 -0.2008 -2.7442
 3075TIP3   OH230715   1.222   5.392  16.184 -0.0417  0.2161  0.5004
 3075TIP3    H130716   1.148   5.344  16.145  2.0310 -0.2616 -3.3330
 3075TIP3    H230717   1.284   5.324  16.210 -0.2350  0.6672  2.2646
 3076TIP3   OH230718   3.235   2.879  11.967  0.4703 -0.2823  0.5151
 3076TIP3    H130719   3.294   2.859  12.039  1.6661 -0.2409 -0.4153
 3076TIP3    H230720   3.289   2.870  11.888 -0.0280  2.3655 -0.2497
 3077TIP3   OH230721   2.466   3.311   3.072  0.2788  0.4235 -0.9776
 3077TIP3    H130722   2.510   3.385   3.030 -0.0367  0.4869 -1.2037
 3077TIP3    H230723   2.463   3.243   3.005 -1.1029  0.8666 -1.4144
 3078TIP3   OH230724   0.539   3.873  13.146  0.5590 -0.3804  0.1829
 3078TIP3    H130725   0.608   3.914  13.094 -0.5236  0.0714 -0.9325
 3078TIP3    H230726   0.478   3.837  13.082  0.3823 -1.9107  1.1463
 3079TIP3   OH230727   3.047   1.318  13.434  0.3558 -0.1176 -0.0682
 3079TIP3    H130728   3.033   1.336  13.527  1.5052 -0.6708  0.2336
 3079TIP3    H230729   2.999   1.387  13.389  0.4275  0.6319  0.9541
 3080TIP3   OH230730   2.178   6.050  15.099 -0.3408  0.2248  0.3638
 3080TIP3    H130731   2.191   6.136  15.138  1.0776  0.3068 -0.2533
 3080TIP3    H230732   2.220   6.055  15.013  0.8461 -1.4515  0.8046
 3081TIP3   OH230733   2.255   4.139  15.046 -0.9829 -0.4277 -0.3748
 3081TIP3    H130734   2.207   4.059  15.069  1.6440 -1.4606  2.0845
 3081TIP3    H230735   2.213   4.208  15.096 -0.4003 -1.1990  1.2416
 3082TIP3   OH230736   1.486   1.126   1.131 -0.5105 -0.0816 -0.7167
 3082TIP3    H130737   1.419   1.155   1.193 -0.6800 -0.8694 -0.5152
 3082TIP3    H230738   1.441   1.065   1.073  0.0318 -0.6447 -0.5618
 3083TIP3   OH230739   2.584   6.581   3.817 -0.3171  0.0474  0.2542
 3083TIP3    H130740   2.651   6.629   3.768  1.5555 -2.8525 -0.3131
 3083TIP3    H230741   2.633   6.517   3.869 -2.5780 -1.0812  1.1455
 3084TIP3   OH230742   3.783   3.722  13.111 -0.0296  0.4746  0.6572
 3084TIP3    H130743   3.710   3.725  13.049  0.6377  2.4420 -0.1200
 3084TIP3    H230744   3.828   3.806  13.099  1.7706 -0.2620  1.8314
 3085TIP3   OH230745   5.455   5.195   6.798  0.0968  0.8764 -0.0995
 3085TIP3    H130746   5.541   5.180   6.838  0.3540 -0.6386 -1.1546
 3085TIP3    H230747   5.403   5.119   6.824 -1.6176  2.6162  2.0971
 3086TIP3   OH230748   0.768   1.002  14.377  0.4757 -0.4885 -0.1512
 3086TIP3    H130749   0.846   1.052  14.353 -0.1292  0.7023  0.2700
 3086TIP3    H230750   0.727   1.054  14.446  1.2865 -2.9341  2.3800
 3087TIP3   OH230751   1.203   6.765   2.327 -0.9209 -0.2867 -0.5872
 3087TIP3    H130752   1.146   6.811   2.388 -0.0438  0.2369 -0.1402
 3087TIP3    H230753   1.276   6.825   2.312 -0.2000 -1.1620 -0.6957
 3088TIP3   OH230754   5.583   6.579  11.034 -0.3467 -0.3076 -0.4645
 3088TIP3    H130755   5.561   6.672  11.026  0.7312 -0.0396 -0.5304
 3088TIP3    H230756   5.560   6.557  11.125 -0.8596 -0.0502 -0.5300
 3089TIP3   OH230757   4.838   4.214   1.938 -0.5695  0.3617  0.3215
 3089TIP3    H130758   4.767   4.279   1.939 -0.5668  0.3884 -0.5465
 3089TIP3    H230759   4.809   4.148   1.875 -0.8254 -0.7893  1.6177
 3090TIP3   OH230760   5.628   4.033   4.072 -0.8647  0.0499 -0.4356
 3090TIP3    H130761   5.558   3.993   4.019 -2.7243 -0.0075  1.8822
 3090TIP3    H230762   5.698   3.967   4.073 -2.4298 -1.7020  0.4067
 3091TIP3   OH230763   1.824   2.233  16.618  0.0942 -0.0193  0.1175
 3091TIP3    H130764   1.873   2.246  16.699 -1.3725 -0.9018  1.1999
 3091TIP3    H230765   1.799   2.322  16.591  0.6255  0.2855  0.6003
 3092TIP3   OH230766   6.130   1.963  11.175  0.0028 -0.1693 -0.1512
 3092TIP3    H130767   6.115   1.957  11.269  1.3318  0.0015  0.0881
 3092TIP3    H230768   6.132   2.057  11.157 -0.3416 -0.2021 -0.3701
 3093TIP3   OH230769   4.256   1.963   2.301  0.0093  0.2413  0.0767
 3093TIP3    H130770   4.272   2.032   2.365  1.7152 -1.1134  1.2077
 3093TIP3    H230771   4.215   1.892   2.352 -0.4494 -0.1145 -0.7630
 3094TIP3   OH230772   1.356   1.563  14.427 -0.7976  0.8135  0.0637
 3094TIP3    H130773   1.354   1.470  14.447 -1.4839  0.9024  0.4450
 3094TIP3    H230774   1.306   1.571  14.346 -1.4182  0.9379  0.4496
 3095TIP3   OH230775   2.219   1.802  14.872  0.5522 -0.0105  0.0986
 3095TIP3    H130776   2.313   1.820  14.863  0.6770  0.0230  1.3058
 3095TIP3    H230777   2.206   1.719  14.826  1.2987 -0.3475  0.4782
 3096TIP3   OH230778   5.146   3.236  16.870  0.3781 -0.2146 -0.2643
 3096TIP3    H130779   5.181   3.292  16.800 -0.1396  1.7609  0.9578
 3096TIP3    H230780   5.056   3.267  16.883  0.5486 -0.3259  1.4371
 3097TIP3   OH230781   3.552   4.957   4.168  0.9751 -0.2092 -0.1796
 3097TIP3    H130782   3.563   5.050   4.188 -0.1148 -0.0534 -0.2668
 3097TIP3    H230783   3.620   4.914   4.219  1.6325  0.6485 -0.2959
 3098TIP3   OH230784   5.297   4.021   0.657  0.1930  0.1607 -0.2443
 3098TIP3    H130785   5.307   4.004   0.751  0.5949  1.2076 -0.0738
 3098TIP3    H230786   5.219   3.973   0.631  1.2673 -1.8960  0.1490
 3099TIP3   OH230787   0.440   4.224  16.805  0.3920 -0.2674 -0.1781
 3099TIP3    H130788   0.533   4.204  16.805  0.2824 -0.8047  0.6565
 3099TIP3    H230789   0.407   4.190  16.888 -1.0284 -2.4516 -1.5227
 3100TIP3   OH230790   1.196   3.029  14.754  0.2841  0.2692 -0.3623
 3100TIP3    H130791   1.258   3.062  14.819 -0.3657 -0.8138  0.8415
 3100TIP3    H230792   1.111   3.035  14.796  0.1644 -3.5009  0.2654
 3101TIP3   OH230793   4.601   0.703  12.509 -0.0223 -0.0464 -0.2347
 3101TIP3    H130794   4.594   0.741  12.597 -0.3428 -1.2700  0.2991
 3101TIP3    H230795   4.566   0.769  12.451  0.9473  1.1253  0.4668
 3102TIP3   OH230796   5.070   0.548   4.922  0.3383 -0.3022 -0.3837
 3102TIP3    H130797   5.018   0.535   4.842  0.2293  1.8287 -0.7159
 3102TIP3    H230798   5.009   0.531   4.994  0.3673 -1.9884 -0.7023
 3103TIP3   OH230799   1.762   0.078   3.899  0.3751 -0.5583 -0.3716
 3103TIP3    H130800   1.717   0.082   3.984  0.1946  0.2890 -0.4994
 3103TIP3    H230801   1.811  -0.005   3.902 -0.8455 -1.2946 -0.0553
 3104TIP3   OH230802   4.383   0.973   5.805  0.2710  0.0285 -0.7102
 3104TIP3    H130803   4.299   1.019   5.806 -0.1183 -0.4508  3.3333
 3104TIP3    H230804   4.366   0.892   5.852  2.8453 -0.4385 -0.4774
 3105TIP3   OH230805   4.106   0.068   2.091 -0.6459  0.4194 -0.0020
 3105TIP3    H130806   4.062  -0.006   2.133 -3.1978  1.3881 -0.7693
 3105TIP3    H230807   4.189   0.077   2.138 -1.9113 -0.5583  2.6197
 3106TIP3   OH230808   0.610   4.463  11.876  0.8356 -0.2351 -0.5079
 3106TIP3    H130809   0.572   4.395  11.820 -0.1433  0.1264 -0.3014
 3106TIP3    H230810   0.598   4.544  11.826  2.2595 -0.2323 -0.8847
 3107TIP3   OH230811   0.908   5.209  12.396 -0.1115  0.7060  0.4749
 3107TIP3    H130812   0.846   5.166  12.455 -2.5958  3.4445  0.1253
 3107TIP3    H230813   0.938   5.286  12.444  3.2110 -0.5608  0.6325
 3108TIP3   OH230814   6.039   5.760  16.957  0.7888 -0.6520  0.1176
 3108TIP3    H130815   6.028   5.727  16.868  1.2507 -0.9106  0.1527
 3108TIP3    H230816   5.991   5.698  17.012  1.1853 -0.9565  0.1269
 3109TIP3   OH230817   5.574   2.594   0.016  0.2830  0.1347  0.3366
 3109TIP3    H130818   5.658   2.627  -0.017  0.2910 -0.3863 -0.1833
 3109TIP3    H230819   5.597   2.522   0.074  0.1580 -0.8369 -0.7898
 3110TIP3   OH230820   4.133   4.302  12.720  0.3552  0.3857  0.1977
 3110TIP3    H130821   4.147   4.385  12.676 -0.9221 -1.0657 -3.2928
 3110TIP3    H230822   4.039   4.300  12.739  0.0412 -0.8598 -1.2913
 3111TIP3   OH230823   4.386   2.475   5.148 -0.1948 -0.0643  0.3360
 3111TIP3    H130824   4.443   2.451   5.076  0.8231  0.5507  0.9060
 3111TIP3    H230825   4.356   2.392   5.185 -0.0779 -0.3878 -0.2959
 3112TIP3   OH230826   2.203   1.855  16.627  0.1952 -0.3729  0.9184
 3112TIP3    H130827   2.116   1.896  16.620  0.6433  0.8924  2.1541
 3112TIP3    H230828   2.216   1.812  16.543 -1.6978 -0.7357  0.7515
 3113TIP3   OH230829   2.189   4.194   2.532 -0.3290 -0.1426 -0.1161
 3113TIP3    H130830   2.229   4.121   2.486 -2.1746 -0.8508 -0.7046
 3113TIP3    H230831   2.222   4.187   2.622  1.4076 -0.2089 -0.7377
 3114TIP3   OH230832   6.458   2.319   2.287  0.6700  0.7256 -0.4407
 3114TIP3    H130833   6.450   2.414   2.294  0.6250  0.6643  0.4320
 3114TIP3    H230834   6.526   2.296   2.350 -0.0624  0.0755  0.1320
 3115TIP3   OH230835   6.791   5.779  16.081  0.0820  0.2272 -0.6875
 3115TIP3    H130836   6.836   5.722  16.144 -0.6601  0.2742 -0.1052
 3115TIP3    H230837   6.861   5.831  16.042  1.0064 -2.0769 -2.3282
 3116TIP3   OH230838   5.494   3.058   1.330  0.5368  0.0617  1.0791
 3116TIP3    H130839   5.406   3.028   1.353  0.0136  1.0634  0.4338
 3116TIP3    H230840   5.539   3.065   1.414 -0.4381  0.8981  1.5524
 3117TIP3   OH230841   5.823   5.162   0.215  0.0101  0.0070  0.0098
 3117TIP3    H130842   5.769   5.209   0.151 -1.3951 -1.0490  0.3810
 3117TIP3    H230843   5.836   5.225   0.286 -0.2448  0.4576 -0.3322
 3118TIP3   OH230844   5.220   4.318   4.289 -0.7175  0.1789 -0.4441
 3118TIP3    H130845   5.289   4.253   4.298 -1.2643 -0.3361  0.1366
 3118TIP3    H230846   5.141   4.274   4.322 -0.6489  1.9012  2.3636
 3119TIP3   OH230847   3.585   4.313  13.968 -0.0179  0.1890 -0.8675
 3119TIP3    H130848   3.656   4.319  14.032 -0.3552  0.7915 -0.5437
 3119TIP3    H230849   3.629   4.299  13.884  0.5600  1.8246 -0.8718
 3120TIP3   OH230850   2.123   5.868   5.824 -0.5036  0.2396 -0.1323
 3120TIP3    H130851   2.193   5.926   5.855 -1.1518  1.9434 -1.6482
 3120TIP3    H230852   2.153   5.838   5.738 -1.0189 -0.1491 -0.1802
 3121TIP3   OH230853   3.004   1.349   2.970  0.1425  0.2672 -0.1234
 3121TIP3    H130854   2.921   1.344   3.017 -0.0865 -3.2516 -0.6746
 3121TIP3    H230855   3.070   1.364   3.038 -0.4458 -2.2266  1.0794
 3122TIP3   OH230856   5.082   0.034   5.577 -0.2614 -0.0830 -0.0199
 3122TIP3    H130857   5.059   0.126   5.565 -0.7729 -0.4417 -2.0491
 3122TIP3    H230858   5.164   0.036   5.626 -0.9685  1.3843  1.2170
 3123TIP3   OH230859   2.816   0.701   2.520 -0.2004 -0.4478 -0.1677
 3123TIP3    H130860   2.868   0.781   2.526  2.3430 -1.8207 -1.7930
 3123TIP3    H230861   2.732   0.724   2.559  0.7086  2.7167  0.2453
 3124TIP3   OH230862   1.235   0.178   4.261 -0.6136  0.0067 -0.2366
 3124TIP3    H130863   1.145   0.148   4.270 -0.5850  0.2368  1.0247
 3124TIP3    H230864   1.287   0.098   4.255 -1.0577 -0.1526 -3.3609
 3125TIP3   OH230865   3.954   6.731  13.755  0.2290  0.2386 -0.2012
 3125TIP3    H130866   4.001   6.810  13.726  0.0600 -0.3100 -2.1389
 3125TIP3    H230867   3.886   6.764  13.813  1.6277  1.2561  0.9637
 3126TIP3   OH230868   4.167   4.352   1.528  0.1986  0.5340 -0.1609
 3126TIP3    H130869   4.234   4.387   1.469 -1.2459  1.6199 -1.2259
 3126TIP3    H230870   4.098   4.320   1.470 -0.4895  0.0105  0.9206
 3127TIP3   OH230871   5.405   3.776   4.219  0.0938 -0.1716 -0.1521
 3127TIP3    H130872   5.382   3.783   4.311  0.7044 -0.8977  0.0665
 3127TIP3    H230873   5.394   3.683   4.198  0.1291 -0.0453 -0.7573
 3128TIP3   OH230874   6.057   6.697  15.566  0.4174 -0.3832  0.7993
 3128TIP3    H130875   6.063   6.645  15.486 -1.0992  0.6039 -0.0000
 3128TIP3    H230876   5.969   6.680  15.599 -0.2118  1.7648  0.3967
 3129TIP3   OH230877   2.916   2.982   0.174  0.2292 -0.4655  0.3217
 3129TIP3    H130878   2.912   2.907   0.114  1.2435 -1.8759  1.9422
 3129TIP3    H230879   2.914   3.058   0.116 -1.0814 -1.7028 -1.3777
 3130TIP3   OH230880   1.730   2.553  11.956 -0.6695 -0.3396  0.1512
 3130TIP3    H130881   1.818   2.554  11.918  0.4121 -2.0584  2.3767
 3130TIP3    H230882   1.672   2.565  11.881  1.3819 -1.3935 -1.7362
 3131TIP3   OH230883   1.048   1.994  14.260  0.3690 -0.7390  0.4512
 3131TIP3    H130884   1.118   2.060  14.267 -0.6429  0.2897  1.1412
 3131TIP3    H230885   1.045   1.953  14.346 -1.0269  0.4551  1.0145
 3132TIP3   OH230886   3.413   5.397  14.104  0.1290 -0.3377 -0.7922
 3132TIP3    H130887   3.504   5.423  14.107 -0.2529  0.9252  1.2659
 3132TIP3    H230888   3.401   5.364  14.015  2.0568  1.3916 -1.7738
 3133TIP3   OH230889   1.248   6.487   2.392  0.4642  0.1193  0.1659
 3133TIP3    H130890   1.269   6.500   2.485  1.6029  0.6803 -0.1507
 3133TIP3    H230891   1.236   6.575   2.358  0.8937 -0.0406 -0.4059
 3134TIP3   OH230892   5.044   1.843   4.122 -0.4061 -0.3476  0.0093
 3134TIP3    H130893   4.983   1.793   4.176  0.4873  1.1042  2.5014
 3134TIP3    H230894   5.043   1.931   4.159 -0.5667  1.1102 -3.0845
 3135TIP3   OH230895   2.761   6.161  11.442  0.3848  0.0719 -0.3225
 3135TIP3    H130896   2.834   6.220  11.422  0.0116  0.5033 -0.4389
 3135TIP3    H230897   2.686   6.219  11.452  0.6804  0.0868  3.3805
 3136TIP3   OH230898   3.707   3.789   1.722  0.1424 -0.0780 -0.0100
 3136TIP3    H130899   3.769   3.718   1.736  0.4830  0.3716  0.8219
 3136TIP3    H230900   3.756   3.855   1.673  0.2658  0.1962  0.4803
 3137TIP3   OH230901   3.183   6.178  14.173  0.2259 -0.4905 -0.1330
 3137TIP3    H130902   3.120   6.170  14.102  0.8022 -0.6204 -0.6473
 3137TIP3    H230903   3.263   6.139  14.138  0.3551 -1.1013  0.8099
 3138TIP3   OH230904   5.418   2.968   3.986  0.0065 -0.8288 -0.3896
 3138TIP3    H130905   5.491   2.962   3.924  0.1508  0.2011 -0.3368
 3138TIP3    H230906   5.458   2.951   4.071  0.1369 -0.5121 -0.3872
 3139TIP3   OH230907   2.320   4.658   2.501  0.2784 -0.1846  0.7955
 3139TIP3    H130908   2.327   4.740   2.551  2.2696  0.2076 -0.0347
 3139TIP3    H230909   2.317   4.590   2.567 -0.4807  0.4887  1.4844
 3140TIP3   OH230910   2.392   5.996  13.880 -0.1640 -0.0284  0.2183
 3140TIP3    H130911   2.329   6.052  13.836 -0.1670  0.0878  0.3693
 3140TIP3    H230912   2.466   5.992  13.820  1.2929  2.8979  1.5683
 3141TIP3   OH230913   6.347   6.770  11.273 -0.3570 -0.2669 -0.0786
 3141TIP3    H130914   6.365   6.676  11.279 -2.5072 -0.7251  0.3743
 3141TIP3    H230915   6.263   6.775  11.227 -2.1913  1.1046  3.0693
 3142TIP3   OH230916   4.138   2.241   2.831 -0.0168  0.1186  0.7096
 3142TIP3    H130917   4.084   2.176   2.876  0.9546 -1.2613 -0.0475
 3142TIP3    H230918   4.227   2.210   2.842  0.4261  1.0683 -0.0969
 3143TIP3   OH230919   4.980   3.480  10.922  0.1911 -0.0769  0.3194
 3143TIP3    H130920   4.990   3.452  11.013  0.4814  0.2288  0.3816
 3143TIP3    H230921   5.035   3.420  10.872  0.4188  0.0692  0.3981
 3144TIP3   OH230922   2.393   1.943   5.670 -0.4919 -0.0730 -0.0822
 3144TIP3    H130923   2.322   1.887   5.638 -0.0986 -1.1131  0.8235
 3144TIP3    H230924   2.451   1.884   5.716  1.2094  0.6934 -1.1534
 3145TIP3   OH230925   1.864   3.403  16.189 -0.4760  0.3091 -0.2591
 3145TIP3    H130926   1.898   3.490  16.169  1.4554 -0.2718  0.2241
 3145TIP3    H230927   1.777   3.401  16.149  0.3053  1.6895 -2.2124
 3146TIP3   OH230928   5.618   5.846   1.078 -0.0984  0.8407  0.0239
 3146TIP3    H130929   5.543   5.803   1.037  0.3319 -1.3482  1.3798
 3146TIP3    H230930   5.675   5.774   1.106  1.3221  2.3477  1.2192
 3147TIP3   OH230931   6.547   6.335   5.294  0.3427  0.2335  0.0410
 3147TIP3    H130932   6.516   6.341   5.204 -0.2061 -2.4050 -0.0173
 3147TIP3    H230933   6.472   6.365   5.346  0.2279  0.5967 -0.3241
 3148TIP3   OH230934   4.920   5.996   5.674  0.7618  0.2890  0.1945
 3148TIP3    H130935   5.013   5.984   5.694  1.1677  0.3455 -1.5276
 3148TIP3    H230936   4.894   6.072   5.726  1.3269 -0.4752  1.6640
 3149TIP3   OH230937   1.934   3.064  11.612  0.0723  0.1474 -0.1476
 3149TIP3    H130938   2.006   3.023  11.660  1.0784  0.3040 -1.4796
 3149TIP3    H230939   1.975   3.131  11.557 -1.4227  2.2789  1.1783
 3150TIP3   OH230940   2.687   1.122   0.138  0.1399 -0.2253 -0.0589
 3150TIP3    H130941   2.713   1.036   0.104  0.1677 -0.3115  0.1763
 3150TIP3    H230942   2.599   1.136   0.104  0.1527 -0.3276 -0.1349
 3151TIP3   OH230943   6.738   6.097   0.858  0.4643 -0.0144  0.1391
 3151TIP3    H130944   6.808   6.155   0.888  1.3931 -0.5571 -0.8837
 3151TIP3    H230945   6.660   6.126   0.905  0.8204  2.2687 -0.5893
 3152TIP3   OH230946   4.786   5.039  15.707  0.5753 -0.3348 -0.1044
 3152TIP3    H130947   4.813   4.981  15.636  0.6215 -0.2296 -0.1726
 3152TIP3    H230948   4.722   4.988  15.757 -1.5162  0.5145 -1.7606
 3153TIP3   OH230949   4.879   0.928   4.326 -0.9448  0.0353  0.2511
 3153TIP3    H130950   4.791   0.925   4.363 -1.2843  3.1562 -0.0141
 3153TIP3    H230951   4.936   0.942   4.401 -1.3596  3.6518  0.0527
 3154TIP3   OH230952   3.439   0.900  13.641 -0.0883 -0.3267  0.4495
 3154TIP3    H130953   3.433   0.854  13.557  1.8349  0.1271  0.0017
 3154TIP3    H230954   3.533   0.897  13.663 -0.4862 -0.0774  2.3852
 3155TIP3   OH230955   5.915   1.131   2.275  0.2445 -0.0574 -0.3488
 3155TIP3    H130956   5.825   1.148   2.305  1.1882  0.1138  2.8056
 3155TIP3    H230957   5.956   1.217   2.272  0.5190 -0.2048 -1.0718
 3156TIP3   OH230958   0.702   4.567  15.591 -0.0822  0.4024 -0.0630
 3156TIP3    H130959   0.648   4.646  15.592  0.7688  1.0251 -1.0038
 3156TIP3    H230960   0.702   4.538  15.500 -0.3377 -0.6615  0.2631
 3157TIP3   OH230961   1.536   5.958   4.976  0.1480  0.1480  0.3877
 3157TIP3    H130962   1.488   5.940   4.894 -1.2250 -0.6436  1.3117
 3157TIP3    H230963   1.603   6.022   4.951  0.2692 -0.6392 -1.5095
 3158TIP3   OH230964   0.590   5.258  15.734  0.1329 -0.2875 -0.0984
 3158TIP3    H130965   0.547   5.251  15.819 -0.4049 -0.7017 -0.4042
 3158TIP3    H230966   0.585   5.351  15.712  0.2939 -0.1753  0.3297
 3159TIP3   OH230967   4.973   2.364   0.510  0.0764  0.3605  0.1260
 3159TIP3    H130968   4.922   2.309   0.451 -0.8718  0.0302  1.2075
 3159TIP3    H230969   4.978   2.314   0.592  0.4178  1.2678  0.6767
 3160TIP3   OH230970   1.036   4.919  11.215 -0.3830 -0.0154 -0.3389
 3160TIP3    H130971   1.069   5.001  11.252  0.6674 -0.7838  0.5071
 3160TIP3    H230972   0.981   4.882  11.285 -1.7541  0.4791 -1.1322
 3161TIP3   OH230973   1.899   4.336  16.957  0.0796  0.2896  0.3745
 3161TIP3    H130974   1.933   4.424  16.944  0.1316  0.2058 -0.0558
 3161TIP3    H230975   1.928   4.287  16.880 -0.3935  0.0308  0.3594
 3162TIP3   OH230976   4.848   5.629   2.581  0.2415 -0.2848  0.1153
 3162TIP3    H130977   4.935   5.591   2.580 -0.0540 -0.9661 -0.7544
 3162TIP3    H230978   4.856   5.712   2.535  0.4204 -0.3593  0.0157
 3163TIP3   OH230979   1.634   3.135  10.592  0.3903  0.4227 -0.3650
 3163TIP3    H130980   1.667   3.129  10.502  0.7002  0.6876 -0.2725
 3163TIP3    H230981   1.659   3.223  10.621 -1.4738  1.1072 -0.7097
 3164TIP3   OH230982   3.411   6.592  15.810  0.9218  0.4525 -0.1648
 3164TIP3    H130983   3.433   6.684  15.827  1.6468  0.2498  0.0431
 3164TIP3    H230984   3.464   6.568  15.734  0.0362  0.4594 -0.7997
 3165TIP3   OH230985   1.314   3.973   2.916  0.3024  0.9388 -0.4658
 3165TIP3    H130986   1.260   4.052   2.924 -0.7646  0.1177  1.0546
 3165TIP3    H230987   1.272   3.923   2.846 -0.7279  0.4799  0.4515
 3166TIP3   OH230988   2.425   6.059  12.497  0.5466  0.3474 -0.5785
 3166TIP3    H130989   2.406   5.992  12.431 -1.5959  1.9597 -1.7089
 3166TIP3    H230990   2.504   6.103  12.465  0.7107 -0.2007 -0.9487
 3167TIP3   OH230991   3.461   6.106   3.826  0.0230 -0.5438  0.0841
 3167TIP3    H130992   3.380   6.090   3.778  0.0099  0.8770 -0.3998
 3167TIP3    H230993   3.437   6.091   3.918 -0.6458 -0.6723 -0.1053
 3168TIP3   OH230994   4.479   5.773   2.781  0.5857 -0.2484 -0.1771
 3168TIP3    H130995   4.507   5.684   2.803  1.9434  0.2416  0.1584
 3168TIP3    H230996   4.429   5.802   2.858  1.3868 -0.2010  0.3340
 3169TIP3   OH230997   5.939   0.851  14.313  0.2262  0.3591  0.5270
 3169TIP3    H130998   5.877   0.778  14.324 -0.1972  0.7463  0.7571
 3169TIP3    H230999   5.951   0.885  14.401  2.0846 -0.7489  0.7447
 3170TIP3   OH231000   0.335   5.115   3.154 -0.0679  0.0468 -0.0616
 3170TIP3    H131001   0.387   5.035   3.152  1.2502  0.8852 -1.6074
 3170TIP3    H231002   0.272   5.101   3.225 -1.4926 -3.3385 -1.7194
 3171TIP3   OH231003   1.554   1.786  10.848 -0.3718  0.6370  0.1740
 3171TIP3    H131004   1.598   1.701  10.855 -0.3662  0.3639 -2.3153
 3171TIP3    H231005   1.539   1.813  10.938  2.8325 -0.3258  1.1301
 3172TIP3   OH231006   6.306   1.490   2.221 -0.2492 -0.2477  0.0510
 3172TIP3    H131007   6.282   1.527   2.137 -2.2948 -2.7872 -0.6271
 3172TIP3    H231008   6.222   1.468   2.263  0.7487 -1.4830  1.5463
 3173TIP3   OH231009   2.486   4.431   4.750  0.1305 -0.6087  0.1029
 3173TIP3    H131010   2.466   4.338   4.761 -0.3105 -0.4494  0.7397
 3173TIP3    H231011   2.534   4.454   4.830 -1.5698  0.1743  0.9721
 3174TIP3   OH231012   3.505   4.640   5.420 -0.4968 -0.0877  0.2832
 3174TIP3    H131013   3.431   4.662   5.477 -1.0182  0.0603 -0.4339
 3174TIP3    H231014   3.520   4.719   5.368 -0.0920 -0.2536  0.1431
 3175TIP3   OH231015   1.540   6.072  13.741  0.4627 -0.0270  0.2836
 3175TIP3    H131016   1.549   6.145  13.803  1.4101 -0.5445  0.7791
 3175TIP3    H231017   1.447   6.071  13.719  0.3898  1.1932  0.4310
 3176TIP3   OH231018   3.494   2.080   1.075  0.4384 -0.0524  0.0200
 3176TIP3    H131019   3.570   2.023   1.088  2.1711  2.2419  0.6001
 3176TIP3    H231020   3.486   2.089   0.980  0.7188 -0.5043 -0.0465
 3177TIP3   OH231021   5.726   3.418   3.307  0.5319  0.3655  0.0051
 3177TIP3    H131022   5.699   3.387   3.221  0.6265  1.2326 -0.3504
 3177TIP3    H231023   5.706   3.346   3.366  1.0311 -0.4827 -0.8345
 3178TIP3   OH231024   1.505   1.028  12.650 -0.0790  0.0061  0.3385
 3178TIP3    H131025   1.528   0.948  12.697 -0.3892 -0.6299 -0.5693
 3178TIP3    H231026   1.513   1.005  12.557  1.1321  1.4155  0.0559
 3179TIP3   OH231027   6.136   6.625   0.186  0.0336  0.4583 -0.2781
 3179TIP3    H131028   6.188   6.649   0.262  3.5267 -1.0514 -1.9907
 3179TIP3    H231029   6.122   6.708   0.139 -0.9979  1.1814  1.2197
 3180TIP3   OH231030   3.982   3.763   4.992 -0.5024  0.2635  0.0634
 3180TIP3    H131031   3.960   3.853   5.018  2.9081  1.6692 -1.4127
 3180TIP3    H231032   3.941   3.753   4.906 -1.6276  0.0019  0.5997
 3181TIP3   OH231033   2.951   3.179  17.201  0.2051 -0.1429 -0.0663
 3181TIP3    H131034   2.992   3.097  17.173 -0.3947 -0.3681 -0.2811
 3181TIP3    H231035   3.017   3.246  17.183  1.6092 -0.8065  2.1364
 3182TIP3   OH231036   5.257   5.243   3.655 -0.0830 -1.2061  0.0339
 3182TIP3    H131037   5.204   5.166   3.633 -3.1022  0.3212  1.2936
 3182TIP3    H231038   5.248   5.301   3.579 -1.7840 -0.2450  0.9034
 3183TIP3   OH231039   0.802   2.084  15.781  0.3298 -0.1451  0.1850
 3183TIP3    H131040   0.814   2.068  15.875  0.3171 -0.8288  0.0717
 3183TIP3    H231041   0.808   2.179  15.773  1.1736 -0.1377  0.7558
 3184TIP3   OH231042   2.593   2.539  15.866  0.3192  0.1301  0.1206
 3184TIP3    H131043   2.593   2.549  15.771 -0.3524  0.2524  0.1308
 3184TIP3    H231044   2.558   2.452  15.882  0.6374  0.0232  0.2536
 3185TIP3   OH231045   0.441   1.193  12.785  0.1018  0.4237  0.2176
 3185TIP3    H131046   0.483   1.197  12.871  2.0379  1.3649 -0.7146
 3185TIP3    H231047   0.356   1.153  12.802 -0.0463  1.6259  2.7372
 3186TIP3   OH231048   4.472   6.248   5.370 -0.3985 -0.5788 -0.1367
 3186TIP3    H131049   4.423   6.328   5.355  0.7796  0.2546  0.3214
 3186TIP3    H231050   4.516   6.231   5.286 -0.5570 -0.6875 -0.1988
 3187TIP3   OH231051   6.788   6.148  14.373 -0.0112  0.4326 -0.3325
 3187TIP3    H131052   6.882   6.135  14.364 -0.0478  0.0282 -0.1396
 3187TIP3    H231053   6.760   6.081  14.435 -0.5794 -0.0401 -1.0832
 3188TIP3   OH231054   3.272   6.000   3.291  0.2554 -0.2057 -0.2498
 3188TIP3    H131055   3.303   6.082   3.330  1.0532 -0.6312  0.0498
 3188TIP3    H231056   3.321   5.992   3.209  1.7599 -1.3750  0.6990
 3189TIP3   OH231057   2.160   5.235   1.846 -0.0962 -0.1193 -0.1574
 3189TIP3    H131058   2.217   5.309   1.866  0.5122 -0.3941 -0.8235
 3189TIP3    H231059   2.218   5.172   1.803 -0.8963 -0.4295 -0.7827
 3190TIP3   OH231060   0.765   6.694  11.881  0.7471 -0.0469  0.3401
 3190TIP3    H131061   0.686   6.653  11.845  1.0560 -0.2468 -0.1186
 3190TIP3    H231062   0.835   6.631  11.862  1.3182  0.9149 -0.8339
 3191TIP3   OH231063   4.020   5.563   3.515 -0.4785 -0.7685 -0.2607
 3191TIP3    H131064   3.980   5.603   3.438 -3.2678 -3.1709 -0.2404
 3191TIP3    H231065   4.032   5.471   3.491  0.0766 -1.2421  1.6362
 3192TIP3   OH231066   2.583   6.468   1.840  0.1731 -0.2617  0.3918
 3192TIP3    H131067   2.582   6.471   1.745 -1.0200  3.2551  0.3665
 3192TIP3    H231068   2.491   6.453   1.865  0.2467  0.1886  0.9646
 3193TIP3   OH231069   6.289   1.715  15.649  0.5792  0.3356 -0.6043
 3193TIP3    H131070   6.296   1.781  15.580 -0.4779  0.3225 -0.7396
 3193TIP3    H231071   6.378   1.708  15.685  1.1482  0.3464 -1.9571
 3194TIP3   OH231072   0.289   3.888   5.942 -0.3105  0.0639  0.0578
 3194TIP3    H131073   0.321   3.976   5.963 -0.3459  0.0700  0.0866
 3194TIP3    H231074   0.218   3.903   5.879 -0.5834  0.0802  0.3699
 3195TIP3   OH231075   3.811   5.085  11.591 -0.5138 -0.4959  0.0065
 3195TIP3    H131076   3.864   5.139  11.650  0.2561 -0.9955 -0.2138
 3195TIP3    H231077   3.763   5.147  11.537 -1.8068  0.0032  1.6205
 3196TIP3   OH231078   2.481   0.250  11.585 -0.3861 -0.6412  0.2795
 3196TIP3    H131079   2.423   0.323  11.564  0.5507  0.3036  0.8403
 3196TIP3    H231080   2.543   0.247  11.512  0.4576  0.0914  0.9341
 3197TIP3   OH231081   0.358   1.726  11.260  0.0481  0.1349 -0.0527
 3197TIP3    H131082   0.285   1.788  11.261 -0.3977 -0.3139  2.5763
 3197TIP3    H231083   0.329   1.655  11.203 -0.8029  0.7940 -0.4670
 3198TIP3   OH231084   5.064   2.493   4.968 -0.2070  0.1278 -0.1759
 3198TIP3    H131085   5.040   2.403   4.945 -0.5770  0.0554  0.4570
 3198TIP3    H231086   4.994   2.521   5.028  0.0796  0.7237 -0.1177
 3199TIP3   OH231087   6.616   2.834   5.459 -0.0012 -0.6439 -0.6168
 3199TIP3    H131088   6.704   2.867   5.477 -0.7703  1.9926 -1.2343
 3199TIP3    H231089   6.573   2.906   5.413 -2.2575 -2.1436 -0.9791
 3200TIP3   OH231090   5.739   2.771   6.302  0.5560  0.7321  0.5695
 3200TIP3    H131091   5.812   2.776   6.364  0.4722  0.0184  0.7349
 3200TIP3    H231092   5.663   2.749   6.356  0.7335 -1.3747  0.0834
 3201TIP3   OH231093   4.586   6.244   0.841 -0.4749 -0.1535 -0.1011
 3201TIP3    H131094   4.664   6.205   0.881 -1.5320 -0.7870  1.4703
 3201TIP3    H231095   4.523   6.172   0.836 -1.6181  0.7685  0.5208
 3202TIP3   OH231096   3.007   1.832   5.298  0.4439  0.1617  0.1685
 3202TIP3    H131097   3.007   1.796   5.210  2.2522  0.2996  0.0815
 3202TIP3    H231098   2.958   1.914   5.291  1.2121  0.5380 -0.8660
 3203TIP3   OH231099   1.127   4.776   3.758 -0.2915 -0.6540 -0.1227
 3203TIP3    H131100   1.185   4.837   3.710  0.0943 -1.9432 -1.3682
 3203TIP3    H231101   1.185   4.706   3.787 -0.9263 -1.0484  0.2048
 3204TIP3   OH231102   6.170   0.736  14.638  0.8037 -0.0395 -0.1426
 3204TIP3    H131103   6.105   0.667  14.636  1.0331 -0.3040  1.0229
 3204TIP3    H231104   6.254   0.691  14.627  0.8118  0.3144 -1.8144
 3205TIP3   OH231105   5.668   6.588   3.337  0.0237  0.3870 -0.0602
 3205TIP3    H131106   5.660   6.683   3.342  0.1988  0.3645  0.9181
 3205TIP3    H231107   5.670   6.568   3.243  0.2192  1.3639 -0.2702
 3206TIP3   OH231108   1.638   3.856  16.807  0.1817  0.4824 -0.3383
 3206TIP3    H131109   1.676   3.931  16.853  0.8298  0.2161 -0.4292
 3206TIP3    H231110   1.622   3.888  16.718 -0.5263  0.8204 -0.1017
 3207TIP3   OH231111   3.827   0.210   0.653  0.0543  0.3105  0.2599
 3207TIP3    H131112   3.816   0.240   0.743 -0.6611 -0.4512  0.4433
 3207TIP3    H231113   3.857   0.119   0.662 -0.4846  0.0788 -0.2673
 3208TIP3   OH231114   3.270   3.528   6.697  0.1874  0.3167 -0.4779
 3208TIP3    H131115   3.359   3.560   6.685  0.4090 -0.5992 -1.5093
 3208TIP3    H231116   3.282   3.439   6.732 -0.3604  0.6221  0.5221
 3209TIP3   OH231117   0.408   0.678  16.507  0.0813  0.1253 -0.7580
 3209TIP3    H131118   0.492   0.633  16.511  0.8746  1.5826 -0.3730
 3209TIP3    H231119   0.385   0.696  16.598  1.7857  3.9729 -0.9174
 3210TIP3   OH231120   1.000   2.899  11.903  0.8186 -0.4146  0.1575
 3210TIP3    H131121   1.075   2.914  11.961 -0.1899  0.1328  1.3837
 3210TIP3    H231122   1.038   2.886  11.817  2.3071  0.2331  0.6807
 3211TIP3   OH231123   6.405   3.572   2.488 -0.7441  0.0981 -0.4026
 3211TIP3    H131124   6.334   3.510   2.471  0.6069 -0.6908 -4.2868
 3211TIP3    H231125   6.370   3.657   2.461 -0.4517 -0.2107 -1.8438
 3212TIP3   OH231126   2.708   1.905  11.542 -0.2673  0.0795  0.4019
 3212TIP3    H131127   2.623   1.874  11.574  0.5723 -1.5576  1.2034
 3212TIP3    H231128   2.716   1.867  11.455  0.4588 -1.4838  1.1093
 3213TIP3   OH231129   2.326   1.519   5.888 -0.1663 -0.6612  0.2203
 3213TIP3    H131130   2.419   1.498   5.893 -0.1746 -1.2928 -1.5572
 3213TIP3    H231131   2.315   1.593   5.948  1.4663 -0.5808  0.4679
 3214TIP3   OH231132   2.646   1.991   5.083  0.5654 -0.3355 -0.4107
 3214TIP3    H131133   2.710   1.978   5.153 -0.0174 -0.5628  0.0911
 3214TIP3    H231134   2.680   2.066   5.033  0.7647  0.1007  0.3685
 3215TIP3   OH231135   5.885   4.620   2.590  0.7987 -0.1804 -0.2408
 3215TIP3    H131136   5.906   4.629   2.683  1.0520  0.1073 -0.3252
 3215TIP3    H231137   5.919   4.533   2.566  1.0007 -0.1313 -0.1373
 3216TIP3   OH231138   0.239   1.605  10.496  0.6740  0.0271  0.2237
 3216TIP3    H131139   0.284   1.685  10.468 -1.5640  1.3381  0.1106
 3216TIP3    H231140   0.198   1.628  10.580 -1.9600 -0.1293 -0.9019
 3217TIP3   OH231141   6.233   1.237   0.482  0.3014  0.1453  0.4684
 3217TIP3    H131142   6.209   1.161   0.429  0.1418  0.5060  0.0067
 3217TIP3    H231143   6.179   1.230   0.561 -0.6331  0.4199 -0.1201
 3218TIP3   OH231144   3.929   6.544   5.595 -0.1297 -0.9372  0.3584
 3218TIP3    H131145   3.976   6.515   5.673 -0.7587 -1.6544  0.4863
 3218TIP3    H231146   3.859   6.600   5.629 -0.0347 -0.7583  0.2592
 3219TIP3   OH231147   4.727   3.408   4.923 -0.2787 -0.2032  0.3941
 3219TIP3    H131148   4.770   3.470   4.865  0.2872 -0.5697  0.4116
 3219TIP3    H231149   4.793   3.386   4.988 -0.8321  0.0263  1.0499
 3220TIP3   OH231150   0.522   5.054  15.523  0.2046 -0.1212  0.3296
 3220TIP3    H131151   0.447   5.076  15.468 -1.0676 -1.5997  1.4032
 3220TIP3    H231152   0.535   5.132  15.577  0.2014  0.5833 -0.6464
 3221TIP3   OH231153   5.929   4.884  12.784  0.6723 -0.9285 -0.1153
 3221TIP3    H131154   5.928   4.894  12.689 -0.2173 -2.2614 -0.2634
 3221TIP3    H231155   6.015   4.847  12.804  1.4167  0.6723 -0.2289
 3222TIP3   OH231156   6.141   1.265  15.469 -0.0472  0.2302  0.1946
 3222TIP3    H131157   6.196   1.190  15.446 -0.2360  0.4237 -0.9462
 3222TIP3    H231158   6.173   1.336  15.414  0.8342  1.3247  2.0210
 3223TIP3   OH231159   5.977   5.509   3.754  0.1913  0.6232 -0.5974
 3223TIP3    H131160   5.924   5.483   3.679 -0.1871 -0.7708  0.1271
 3223TIP3    H231161   5.925   5.484   3.830  1.7708 -0.5771  0.1397
 3224TIP3   OH231162   3.584   6.235   4.635  0.1260 -0.0839  0.3214
 3224TIP3    H131163   3.598   6.327   4.613  2.4522 -0.5559 -0.4488
 3224TIP3    H231164   3.665   6.210   4.681 -0.2144 -1.8881 -0.0183
 3225TIP3   OH231165   1.479   4.524   5.474 -0.1801  0.5261 -0.1366
 3225TIP3    H131166   1.429   4.606   5.476 -0.9023  0.0825  1.4601
 3225TIP3    H231167   1.561   4.545   5.519  0.0773  0.6260 -0.6422
 3226TIP3   OH231168   2.797   4.285  12.445 -0.0625 -0.1882 -0.2593
 3226TIP3    H131169   2.806   4.345  12.519 -2.0992  0.4245 -0.4330
 3226TIP3    H231170   2.874   4.302  12.391  0.3900  0.8605  0.6641
 3227TIP3   OH231171   2.769   1.951  11.803  0.1086 -0.4474 -0.4576
 3227TIP3    H131172   2.834   2.021  11.804 -0.5316  0.1699  1.0476
 3227TIP3    H231173   2.758   1.930  11.710  1.4370  0.3757 -0.8299
 3228TIP3   OH231174   1.522   6.221  14.536  0.2042 -0.5572  0.0801
 3228TIP3    H131175   1.460   6.185  14.472 -0.5681  0.0673  0.4657
 3228TIP3    H231176   1.584   6.150  14.552 -1.2892 -1.7375  0.8390
 3229TIP3   OH231177   3.501   2.044   5.348  0.3004 -0.0857  0.0936
 3229TIP3    H131178   3.489   1.954   5.318 -1.3533 -0.1250  0.7939
 3229TIP3    H231179   3.424   2.091   5.316 -0.0377  0.5324  1.7230
 3230TIP3   OH231180   5.791   0.947  16.666  0.8476 -0.5156 -0.0794
 3230TIP3    H131181   5.831   0.883  16.608 -3.3915 -2.8388 -0.8430
 3230TIP3    H231182   5.701   0.958  16.633  0.1503  2.9584  2.3422
 3231TIP3   OH231183   4.327   1.459  11.419  0.3713 -0.1637  0.0116
 3231TIP3    H131184   4.335   1.555  11.425 -0.8270 -0.0207 -0.4646
 3231TIP3    H231185   4.415   1.429  11.399  0.7332  0.8594  0.0138
 3232TIP3   OH231186   0.317   5.575   0.387 -0.2455  0.1228  0.5032
 3232TIP3    H131187   0.264   5.580   0.467 -0.3664  1.0110  0.3789
 3232TIP3    H231188   0.388   5.515   0.409 -0.9014 -0.5159  0.9076
 3233TIP3   OH231189   6.783   3.230  14.583  0.0573 -0.6107  0.1116
 3233TIP3    H131190   6.734   3.151  14.607 -2.3755  0.2162 -1.7254
 3233TIP3    H231191   6.735   3.302  14.624  2.9121 -0.0015  2.7629
 3234TIP3   OH231192   4.536   0.218  16.579 -0.3461 -0.0528 -0.0410
 3234TIP3    H131193   4.505   0.259  16.659 -1.8544 -0.2405 -0.5129
 3234TIP3    H231194   4.568   0.291  16.525 -1.4273  0.3406 -0.1776
 3235TIP3   OH231195   3.914   2.281  15.962  0.1775  0.6196  0.2754
 3235TIP3    H131196   3.973   2.354  15.947  0.0038  0.6757 -0.1477
 3235TIP3    H231197   3.857   2.279  15.885  1.5953 -1.3326 -0.8010
 3236TIP3   OH231198   2.742   3.894  14.655 -0.3273  0.8757  0.2612
 3236TIP3    H131199   2.667   3.941  14.691 -2.1912 -1.5416 -0.2259
 3236TIP3    H231200   2.800   3.881  14.730  0.8377  4.7062  0.2242
 3237TIP3   OH231201   6.674   6.622   2.732 -0.0374 -0.8157 -0.0834
 3237TIP3    H131202   6.712   6.585   2.812  0.8986 -1.0277 -0.6166
 3237TIP3    H231203   6.708   6.711   2.729 -0.2749 -0.7268 -0.1143
 3238TIP3   OH231204   2.806   1.773   3.608  0.0361 -0.4754  0.1910
 3238TIP3    H131205   2.726   1.810   3.570 -1.5370 -0.7315  2.9613
 3238TIP3    H231206   2.812   1.686   3.570 -3.1633 -1.8925  2.4680
 3239TIP3   OH231207   5.541   3.745  13.125 -0.2231  0.0925  0.3147
 3239TIP3    H131208   5.568   3.715  13.038 -0.5947  0.1671  0.1729
 3239TIP3    H231209   5.611   3.714  13.183 -0.1862 -0.3246  0.0526
 3240TIP3   OH231210   5.653   5.772   5.036  0.3262  0.1014 -0.5171
 3240TIP3    H131211   5.722   5.780   4.971 -0.1063 -0.8143 -1.1104
 3240TIP3    H231212   5.590   5.841   5.014 -0.9531 -1.5932 -2.5322
 3241TIP3   OH231213   0.118   6.469   2.845  0.3609  0.6174 -0.2649
 3241TIP3    H131214   0.137   6.540   2.783 -0.6204  0.3679 -0.8751
 3241TIP3    H231215   0.067   6.406   2.794 -2.2597  1.3184  1.2856
 3242TIP3   OH231216   4.683   2.225   4.020  0.1235  0.4211  0.1573
 3242TIP3    H131217   4.647   2.137   4.032 -2.3316  0.9021 -2.6698
 3242TIP3    H231218   4.641   2.278   4.089 -1.0850  0.0384 -0.2669
 3243TIP3   OH231219   2.613   2.933  16.678  0.2402  0.2632 -0.1707
 3243TIP3    H131220   2.670   3.010  16.666  0.2175  0.4583  0.9305
 3243TIP3    H231221   2.671   2.858  16.663  1.0121  0.4374  1.6725
 3244TIP3   OH231222   5.476   4.569   5.722  0.1373 -0.3747  0.2931
 3244TIP3    H131223   5.544   4.526   5.669  0.5055 -0.9307  1.1914
 3244TIP3    H231224   5.525   4.627   5.781 -0.2239 -0.1753  0.3969
 3245TIP3   OH231225   2.921   3.065  15.017 -0.3421  0.3776  0.0601
 3245TIP3    H131226   2.849   3.020  15.062  1.5002 -1.1276  1.7188
 3245TIP3    H231227   2.998   3.010  15.035  1.5810  2.8880  0.0346
 3246TIP3   OH231228   2.381   1.518  13.572  0.4873  0.4336  0.4359
 3246TIP3    H131229   2.301   1.478  13.605 -0.3129  1.6690  0.0364
 3246TIP3    H231230   2.422   1.449  13.519 -0.3540 -0.1856  0.5706
 3247TIP3   OH231231   1.073   3.400  16.714  0.2493 -0.0539 -0.1461
 3247TIP3    H131232   1.118   3.325  16.752  0.9616  0.7220  0.5694
 3247TIP3    H231233   0.990   3.405  16.760 -0.1971 -0.9216 -0.8179
 3248TIP3   OH231234   2.113   3.655   5.649 -0.0679 -0.1844 -0.0678
 3248TIP3    H131235   2.172   3.642   5.724 -0.0235  1.8843  0.3208
 3248TIP3    H231236   2.035   3.697   5.687  0.1191  1.2795 -1.2026
 3249TIP3   OH231237   3.723   4.684   5.573 -0.0903  0.9311 -0.3854
 3249TIP3    H131238   3.643   4.675   5.522  0.6352 -0.9193 -1.2512
 3249TIP3    H231239   3.701   4.647   5.659  0.0344 -0.3162 -0.8713
 3250TIP3   OH231240   2.145   3.225  13.707 -0.2083  0.6034  0.4429
 3250TIP3    H131241   2.105   3.205  13.623 -0.7992  1.1726  0.5807
 3250TIP3    H231242   2.170   3.318  13.701  0.6475  0.3863  0.5378
 3251TIP3   OH231243   0.898   4.954  13.288 -0.2133 -0.5973 -0.0137
 3251TIP3    H131244   0.873   4.890  13.221 -1.6274  0.4924 -0.5863
 3251TIP3    H231245   0.956   5.015  13.242 -2.0803  0.8002 -0.6272
 3252TIP3   OH231246   1.754   6.459   0.398 -0.1184  0.0713  0.7763
 3252TIP3    H131247   1.776   6.540   0.352 -1.7324  0.9556  1.4661
 3252TIP3    H231248   1.838   6.417   0.415  0.8195  1.9053  0.9358
 3253TIP3   OH231249   1.490   2.949  10.841 -0.4000  0.4262 -0.6035
 3253TIP3    H131250   1.423   2.987  10.784  0.6316  3.1264 -0.1766
 3253TIP3    H231251   1.571   2.995  10.817  0.4441  0.2841  1.6834
 3254TIP3   OH231252   4.633   6.021  13.066  0.0186 -0.4061  0.1293
 3254TIP3    H131253   4.546   6.048  13.036  0.3169 -0.5198 -0.8995
 3254TIP3    H231254   4.617   5.966  13.142 -0.8334 -0.7705 -0.3018
 3255TIP3   OH231255   4.392   0.129  15.730  0.1241  0.8534 -0.1975
 3255TIP3    H131256   4.301   0.115  15.703  0.0702 -0.7864  0.6794
 3255TIP3    H231257   4.398   0.088  15.816  2.4385 -2.0659 -1.5320
 3256TIP3   OH231258   1.522   1.869  10.582  0.0932  0.0283  0.3594
 3256TIP3    H131259   1.512   1.784  10.539  2.4125 -0.0850 -0.1248
 3256TIP3    H231260   1.550   1.847  10.671 -1.2564  0.3068  0.8780
 3257TIP3   OH231261   4.564   1.700  11.665  0.1436  0.0941 -0.3415
 3257TIP3    H131262   4.650   1.659  11.665  0.1423  0.0707 -1.4642
 3257TIP3    H231263   4.503   1.630  11.688  0.5267  0.4101  1.8500
 3258TIP3   OH231264   1.198   4.584  14.129 -0.4973 -0.2229  0.0982
 3258TIP3    H131265   1.193   4.651  14.061 -1.0994 -0.1877  0.1748
 3258TIP3    H231266   1.113   4.539  14.125  0.1877 -1.5315 -0.5208
 3259TIP3   OH231267   6.319   3.083  11.832  0.3685 -0.4513  0.1275
 3259TIP3    H131268   6.337   3.109  11.742  1.1361 -0.7177  0.1997
 3259TIP3    H231269   6.387   3.126  11.884  0.3200 -0.8233  0.5058
 3260TIP3   OH231270   1.613   1.867   3.810 -0.1374 -0.0847  0.3396
 3260TIP3    H131271   1.687   1.831   3.859  0.4237  1.8012  0.9783
 3260TIP3    H231272   1.653   1.920   3.741 -0.9312 -1.2140 -1.0410
 3261TIP3   OH231273   6.063   0.986   6.337  0.0504  0.0211  0.5289
 3261TIP3    H131274   6.006   1.056   6.369 -0.1825  0.6934 -1.2627
 3261TIP3    H231275   6.079   0.932   6.414 -0.7065  1.3900  1.7084
 3262TIP3   OH231276   2.843   4.474  11.504 -0.1654 -0.0850 -0.2314
 3262TIP3    H131277   2.913   4.537  11.489  0.3189 -1.1292 -2.8496
 3262TIP3    H231278   2.763   4.527  11.505  0.2989  0.7031 -1.6364
 3263TIP3   OH231279   6.255   1.475  14.655  0.1043 -0.2826 -0.1718
 3263TIP3    H131280   6.222   1.502  14.570  1.2830 -0.8945 -0.8505
 3263TIP3    H231281   6.179   1.438  14.700 -0.6154  0.4117 -0.7946
 3264TIP3   OH231282   2.999   0.439   4.543 -0.4840  0.2602 -0.2032
 3264TIP3    H131283   2.973   0.355   4.505 -0.3309 -0.5099  1.3263
 3264TIP3    H231284   2.929   0.460   4.605 -0.4825  1.2360 -0.5184
 3265TIP3   OH231285   2.269   5.706   1.427 -0.5404 -0.3998  0.6155
 3265TIP3    H131286   2.265   5.614   1.403 -0.3125 -0.7648  1.8736
 3265TIP3    H231287   2.359   5.732   1.408 -1.0274  0.0506 -1.2955
 3266TIP3   OH231288   1.589   5.137   0.271 -0.8174 -0.1574  0.2008
 3266TIP3    H131289   1.593   5.063   0.212  0.0293  0.3744 -0.4357
 3266TIP3    H231290   1.595   5.214   0.214  0.7117  0.3545  1.0004
 3267TIP3   OH231291   4.354   2.039   0.488 -0.1027 -0.2447  0.2430
 3267TIP3    H131292   4.411   1.992   0.549 -0.7417  0.1661  1.1754
 3267TIP3    H231293   4.325   2.116   0.536 -0.3772  0.2525 -0.6936
 3268TIP3   OH231294   0.762   5.514  15.082 -0.0488 -0.7546 -0.2515
 3268TIP3    H131295   0.740   5.533  14.991 -0.3533 -1.9656 -0.4475
 3268TIP3    H231296   0.829   5.579  15.105  2.1589 -2.1864 -2.2255
 3269TIP3   OH231297   1.261   5.857   2.847  0.2829  0.5515 -0.1401
 3269TIP3    H131298   1.329   5.814   2.795  0.8021  0.7023  0.3974
 3269TIP3    H231299   1.191   5.875   2.785  0.1570 -0.8456 -0.4243
 3270TIP3   OH231300   3.851   1.871  14.603 -0.0085 -0.1573  0.6068
 3270TIP3    H131301   3.942   1.841  14.600  0.8239  2.2164 -0.4367
 3270TIP3    H231302   3.829   1.889  14.511 -1.1968  0.2352  0.9543
 3271TIP3   OH231303   2.122   4.442  13.669  0.8994  0.3119  0.1473
 3271TIP3    H131304   2.080   4.380  13.729  0.0017 -1.7861 -2.4799
 3271TIP3    H231305   2.149   4.389  13.594 -0.2517  3.1109 -2.4292
 3272TIP3   OH231306   2.232   6.672   3.544 -0.1745  0.5220 -0.0340
 3272TIP3    H131307   2.304   6.725   3.509  0.9494 -0.3876  0.7883
 3272TIP3    H231308   2.156   6.695   3.491  1.2516 -0.2501 -2.5596
 3273TIP3   OH231309   5.205   5.157   3.261 -0.0681  0.7191  0.0154
 3273TIP3    H131310   5.217   5.154   3.166 -0.8758 -0.2660 -0.0737
 3273TIP3    H231311   5.157   5.077   3.282 -0.5680  1.2874  1.1615
 3274TIP3   OH231312   4.074   4.651  11.466 -0.1260 -0.2756  0.4829
 3274TIP3    H131313   4.031   4.578  11.422 -0.4472  0.0264  0.2924
 3274TIP3    H231314   4.021   4.727  11.444  1.0470  0.2637 -0.5791
 3275TIP3   OH231315   3.070   6.091   0.658 -0.4807  0.6694 -0.1337
 3275TIP3    H131316   3.043   6.020   0.716 -1.5532 -0.0958 -1.5163
 3275TIP3    H231317   3.165   6.095   0.668 -0.6108  0.4289  1.5045
 3276TIP3   OH231318   1.062   1.513   5.450  0.2518  0.6312  0.3383
 3276TIP3    H131319   1.137   1.516   5.391 -0.7336 -1.1530 -1.0731
 3276TIP3    H231320   1.101   1.526   5.537  1.8426  2.3726 -0.5482
 3277TIP3   OH231321   0.377   3.686   2.852 -0.4505 -0.2772 -0.3492
 3277TIP3    H131322   0.428   3.607   2.868  1.3126  0.6574 -1.1023
 3277TIP3    H231323   0.430   3.757   2.888  0.5048  1.1302 -4.0473
 3278TIP3   OH231324   5.310   3.150  17.090  0.0391  0.3818 -0.0766
 3278TIP3    H131325   5.280   3.213  17.155 -1.1378 -0.6780  0.4426
 3278TIP3    H231326   5.258   3.169  17.012  0.5751  0.8424 -0.3342
 3279TIP3   OH231327   6.359   5.848   3.653 -0.4363  0.4426 -0.2507
 3279TIP3    H131328   6.307   5.839   3.573 -0.0479 -0.9292 -0.3660
 3279TIP3    H231329   6.438   5.893   3.625  0.4675 -1.5121 -1.0278
 3280TIP3   OH231330   1.213   6.506  17.080  0.2075 -0.4165 -0.1148
 3280TIP3    H131331   1.264   6.584  17.057 -1.7526  0.5418 -1.6044
 3280TIP3    H231332   1.229   6.445  17.008 -2.5144  0.8667 -1.9892
 3281TIP3   OH231333   2.879   3.068  11.101 -0.2239 -0.2953  0.2382
 3281TIP3    H131334   2.901   3.029  11.017 -0.0727  1.7572 -0.7346
 3281TIP3    H231335   2.798   3.025  11.127  0.2016 -1.5965 -0.4893
 3282TIP3   OH231336   4.490   6.605   5.666  0.2638  0.4800  0.7539
 3282TIP3    H131337   4.578   6.638   5.648  0.1017  0.1033 -0.8287
 3282TIP3    H231338   4.496   6.511   5.650 -0.5954  0.5569 -0.1287
 3283TIP3   OH231339   2.967   2.273   4.729 -0.1089 -0.1276  0.2771
 3283TIP3    H131340   2.913   2.221   4.669  0.8731 -0.1389 -0.6344
 3283TIP3    H231341   2.946   2.364   4.708  0.7071 -0.1144 -0.5835
 3284TIP3   OH231342   2.024   0.135  11.017 -0.0617  0.3625 -0.3461
 3284TIP3    H131343   1.995   0.218  10.979 -1.8090  0.4090  0.9743
 3284TIP3    H231344   2.112   0.153  11.051  0.1544  1.2467 -1.3138
 3285TIP3   OH231345   5.491   0.574   1.140  0.2255 -0.1646  0.3005
 3285TIP3    H131346   5.568   0.606   1.095 -0.1443  2.2745  1.2577
 3285TIP3    H231347   5.475   0.638   1.210 -1.2147 -1.9340  1.7175
 3286TIP3   OH231348   2.824   4.540  14.907 -0.6608  0.3755  0.1330
 3286TIP3    H131349   2.825   4.463  14.963  0.5847 -0.9213 -1.5603
 3286TIP3    H231350   2.822   4.614  14.968 -2.8089 -0.9446  1.7996
 3287TIP3   OH231351   0.740   3.568   2.489  0.2689  0.2937  0.0602
 3287TIP3    H131352   0.669   3.632   2.482  0.6577  0.8741  1.2496
 3287TIP3    H231353   0.736   3.519   2.407 -2.5007 -0.7324  0.6825
 3288TIP3   OH231354   1.679   0.962  16.799  0.2585 -0.3509 -0.1674
 3288TIP3    H131355   1.636   0.876  16.801  1.5180 -1.0025 -0.3497
 3288TIP3    H231356   1.770   0.944  16.819  0.2120  1.2060  1.7137
 3289TIP3   OH231357   5.508   3.285  11.908 -0.4329  0.5365  0.3292
 3289TIP3    H131358   5.583   3.260  11.962 -1.1467 -1.6099  0.4359
 3289TIP3    H231359   5.478   3.202  11.869 -1.7996  1.5686 -0.9447
 3290TIP3   OH231360   6.530   5.401  12.192  0.2502  0.1908 -0.0242
 3290TIP3    H131361   6.446   5.360  12.168  0.6531 -0.4917 -0.2850
 3290TIP3    H231362   6.559   5.351  12.269 -0.8359  2.0973  1.7063
 3291TIP3   OH231363   0.739   0.979   3.136  0.4825  0.4948  0.6168
 3291TIP3    H131364   0.682   1.052   3.158  0.9481  1.4369 -1.1531
 3291TIP3    H231365   0.825   1.005   3.167 -0.0816 -1.4527  4.4377
 3292TIP3   OH231366   4.970   2.053  11.409 -0.1703  0.2583 -0.1929
 3292TIP3    H131367   5.036   2.096  11.464 -1.2052  0.6418  0.7843
 3292TIP3    H231368   4.988   1.960  11.419 -0.7876  0.2893  1.3921
 3293TIP3   OH231369   6.379   0.494   4.643  0.0975 -0.1730 -0.5870
 3293TIP3    H131370   6.309   0.433   4.667  0.7297 -0.7771 -0.2017
 3293TIP3    H231371   6.373   0.565   4.707 -0.8764  0.3741 -1.2627
 3294TIP3   OH231372   1.563   3.317   3.982 -0.2814  0.2644  0.2356
 3294TIP3    H131373   1.596   3.232   4.011  1.9730  0.3911 -1.6792
 3294TIP3    H231374   1.633   3.379   4.002 -1.7744  1.6682  1.3459
 3295TIP3   OH231375   5.882   1.211   4.609  0.1515 -0.5720  0.5071
 3295TIP3    H131376   5.889   1.191   4.703  0.0696  1.0798  0.8992
 3295TIP3    H231377   5.829   1.139   4.573  0.7730 -1.6085  1.5773
 3296TIP3   OH231378   4.514   5.294  14.501  0.0902  0.4732 -0.3040
 3296TIP3    H131379   4.536   5.315  14.411 -0.2150  2.3653  0.0213
 3296TIP3    H231380   4.596   5.265  14.540  0.8001  2.1214 -0.5307
 3297TIP3   OH231381   6.411   4.271   5.213  0.3990 -0.7071  0.0094
 3297TIP3    H131382   6.438   4.201   5.153 -1.2265 -0.7391 -0.7257
 3297TIP3    H231383   6.440   4.351   5.168 -0.7751 -0.7331 -0.8327
 3298TIP3   OH231384   4.456   6.259  12.682 -0.7320  0.4482 -0.3301
 3298TIP3    H131385   4.400   6.287  12.755 -3.1206  0.6915 -2.1134
 3298TIP3    H231386   4.526   6.324  12.679  1.3796 -1.3071  3.6265
 3299TIP3   OH231387   3.453   1.836   1.590  0.3315  0.0262  0.4566
 3299TIP3    H131388   3.474   1.804   1.502 -0.5087  1.7832 -0.4430
 3299TIP3    H231389   3.538   1.854   1.630  0.7166  0.0743 -0.3601
 3300TIP3   OH231390   3.425   5.814   4.275  0.4819 -0.0770  0.7295
 3300TIP3    H131391   3.495   5.852   4.328 -0.2569  0.9780  1.0064
 3300TIP3    H231392   3.463   5.737   4.235  1.3387 -0.3916  2.0911
 3301TIP3   OH231393   5.975   2.664   4.066  0.0509 -0.1903  0.1215
 3301TIP3    H131394   5.927   2.664   4.148 -0.4772  1.9690 -0.1248
 3301TIP3    H231395   6.024   2.747   4.066 -0.2555  0.0588 -1.8581
 3302TIP3   OH231396   1.987   1.727  13.545 -0.5823 -0.1833 -0.5038
 3302TIP3    H131397   2.080   1.750  13.557 -0.5593  0.3968 -1.6961
 3302TIP3    H231398   1.964   1.763  13.459 -1.3304 -2.2217 -1.2013
 3303TIP3   OH231399   1.946   3.917  14.563 -0.1970  0.4310 -0.0701
 3303TIP3    H131400   1.947   3.933  14.657  2.1596  1.5964 -0.2230
 3303TIP3    H231401   1.854   3.923  14.539 -0.7034  1.6465  1.9194
 3304TIP3   OH231402   1.055   2.154  13.964  0.0173  0.4318 -0.0681
 3304TIP3    H131403   1.107   2.231  13.942 -0.1667  1.1245  1.7028
 3304TIP3    H231404   0.968   2.189  13.985 -0.9638 -0.6157 -2.1343
 3305TIP3   OH231405   4.763   4.053   2.300 -0.1000 -0.6050  0.2261
 3305TIP3    H131406   4.705   4.120   2.336  0.1583  0.2545 -0.8929
 3305TIP3    H231407   4.849   4.073   2.338  0.5349  1.3172 -1.9926
 3306TIP3   OH231408   3.412   3.308   2.439 -0.3678 -0.5765 -0.6976
 3306TIP3    H131409   3.326   3.329   2.403 -0.7653 -0.7392  0.1223
 3306TIP3    H231410   3.447   3.241   2.381 -0.2372  0.4273 -1.7879
 3307TIP3   OH231411   6.811   2.275  15.405  0.1282  0.1344  0.2071
 3307TIP3    H131412   6.888   2.230  15.440  0.3383 -0.5005 -1.0246
 3307TIP3    H231413   6.846   2.331  15.336 -0.3141  1.2054  0.8189
 3308TIP3   OH231414   6.642   1.602  15.575  0.3861 -0.1427  0.2504
 3308TIP3    H131415   6.647   1.664  15.647  2.7995  0.0653  0.0106
 3308TIP3    H231416   6.699   1.530  15.602  1.4965  0.0351 -1.4918
 3309TIP3   OH231417   3.174   5.344   5.573 -0.3406  0.0095 -0.6230
 3309TIP3    H131418   3.175   5.436   5.600  1.7124  0.4759 -2.1074
 3309TIP3    H231419   3.237   5.301   5.631  0.3916  0.0053 -1.4221
 3310TIP3   OH231420   2.868   1.106   4.988 -0.6242 -0.2419  0.7698
 3310TIP3    H131421   2.885   1.028   4.935 -1.7032 -0.8872  1.3315
 3310TIP3    H231422   2.919   1.175   4.946 -2.9843 -0.1749 -2.4620
 3311TIP3   OH231423   0.692   3.582  14.488  0.0364  0.0998 -0.3271
 3311TIP3    H131424   0.722   3.659  14.439  0.6229  0.9211  1.2393
 3311TIP3    H231425   0.636   3.618  14.557  0.2056 -0.8889  0.3458
 3312TIP3   OH231426   1.275   4.435  16.213 -0.7533 -0.3298  0.1606
 3312TIP3    H131427   1.279   4.351  16.167 -1.6520  0.6524 -1.8353
 3312TIP3    H231428   1.276   4.501  16.144 -1.5326  1.2689  1.5816
 3313TIP3   OH231429   1.234   6.242   3.601  0.2590 -0.1139  0.1530
 3313TIP3    H131430   1.316   6.214   3.561  0.0626  1.2918 -1.3272
 3313TIP3    H231431   1.166   6.195   3.552  0.0259  1.4906 -1.1533
 3314TIP3   OH231432   0.468   3.798  11.638  0.2206 -0.4300  0.2860
 3314TIP3    H131433   0.488   3.715  11.595 -0.4550 -0.9858  1.0170
 3314TIP3    H231434   0.394   3.833  11.588 -1.0695 -1.4463  1.4158
 3315TIP3   OH231435   5.216   5.323   0.087 -0.5722 -0.4485  0.3273
 3315TIP3    H131436   5.165   5.314   0.168 -1.8994 -0.7090 -0.5034
 3315TIP3    H231437   5.156   5.295   0.018  0.6759 -0.6365 -0.7161
 3316TIP3   OH231438   3.175   5.019  11.905 -0.6879  0.4278 -0.5673
 3316TIP3    H131439   3.106   5.019  11.971 -0.6179  0.2443 -0.4917
 3316TIP3    H231440   3.222   4.937  11.921 -0.3744  0.6145 -0.5352
 3317TIP3   OH231441   0.329   4.606  15.184 -0.4600  0.0305 -0.5829
 3317TIP3    H131442   0.237   4.583  15.172 -0.2794 -1.7213  0.8512
 3317TIP3    H231443   0.339   4.614  15.279  0.5731  1.6615 -0.7919
 3318TIP3   OH231444   5.544   3.302  14.876  0.1857 -0.4072 -0.5622
 3318TIP3    H131445   5.607   3.257  14.819 -1.1634 -0.8241 -1.7687
 3318TIP3    H231446   5.477   3.336  14.816 -1.0075 -0.4063  0.7301
 3319TIP3   OH231447   4.916   2.804  12.573  0.6460 -0.3483 -0.5425
 3319TIP3    H131448   4.988   2.834  12.517  1.7070 -0.4254  0.7395
 3319TIP3    H231449   4.851   2.873  12.567  1.1548  0.0955 -1.1262
 3320TIP3   OH231450   1.797   1.020  11.159 -0.9860  0.8917  0.2041
 3320TIP3    H131451   1.812   1.009  11.252 -0.9610 -0.6021  0.0439
 3320TIP3    H231452   1.885   1.016  11.120 -1.1232 -0.1578 -0.0232
 3321TIP3   OH231453   4.282   2.274   4.941 -0.4333  0.1873  0.5161
 3321TIP3    H131454   4.374   2.247   4.935 -1.0556 -2.0261 -0.0858
 3321TIP3    H231455   4.258   2.298   4.852 -0.9949 -1.3509  0.2314
 3322TIP3   OH231456   2.738   4.612  13.603  0.2149 -0.0625  0.3151
 3322TIP3    H131457   2.705   4.579  13.519  0.1852  0.9339 -0.0685
 3322TIP3    H231458   2.710   4.703  13.607  2.8636  0.8775 -0.0398
 3323TIP3   OH231459   0.200   4.987  13.599  0.0473  0.2975  0.1342
 3323TIP3    H131460   0.121   4.993  13.546 -1.1448 -0.9260  1.6715
 3323TIP3    H231461   0.260   5.051  13.561 -1.1903  0.3392 -1.8798
 3324TIP3   OH231462   2.946   2.444  11.630  0.0991 -0.4385 -0.3086
 3324TIP3    H131463   2.990   2.524  11.659 -0.0085 -1.1551  2.0132
 3324TIP3    H231464   2.853   2.467  11.627 -0.0131 -0.6379  1.0756
 3325TIP3   OH231465   3.148   3.119   0.482 -0.4979 -0.5849 -0.1488
 3325TIP3    H131466   3.157   3.102   0.389 -1.5406  0.7225 -0.5087
 3325TIP3    H231467   3.055   3.106   0.501 -0.1910 -1.4999  0.8677
 3326TIP3   OH231468   6.169   0.844   6.567  0.3382 -0.7037 -0.0494
 3326TIP3    H131469   6.247   0.894   6.591  0.4692 -1.0219  0.1976
 3326TIP3    H231470   6.190   0.754   6.592 -0.6046 -0.5946  1.2448
 3327TIP3   OH231471   3.284   5.199  13.085 -0.4621 -0.0378 -1.1593
 3327TIP3    H131472   3.350   5.177  13.019  0.1573 -1.3394 -0.1591
 3327TIP3    H231473   3.325   5.270  13.135  0.3911 -1.1062 -0.2933
 3328TIP3   OH231474   3.749   4.334  15.238  0.1101  0.0356 -0.6254
 3328TIP3    H131475   3.715   4.287  15.315 -1.9793  1.8705 -0.3164
 3328TIP3    H231476   3.751   4.268  15.169  0.0868 -1.1818  0.4815
 3329TIP3   OH231477   5.407   5.459  13.772 -0.7789 -0.3035 -0.1859
 3329TIP3    H131478   5.470   5.451  13.700  0.5878  0.5085  0.8873
 3329TIP3    H231479   5.390   5.553  13.779 -0.2779 -0.2844  1.0431
 3330TIP3   OH231480   4.604   2.802   0.104  0.2173  0.1986  0.0694
 3330TIP3    H131481   4.543   2.869   0.073  0.2659 -0.1525 -0.8169
 3330TIP3    H231482   4.670   2.797   0.034 -0.0221 -1.0733 -0.0791
 3331TIP3   OH231483   3.054   3.581  13.054 -0.5193 -1.0349 -0.4129
 3331TIP3    H131484   3.093   3.651  13.106  0.6097 -1.7626 -0.2309
 3331TIP3    H231485   2.960   3.585  13.075 -0.1292 -1.1797  1.5641
 3332TIP3   OH231486   3.060   4.329  14.345  0.2618  0.1364 -0.4296
 3332TIP3    H131487   3.006   4.407  14.335 -0.0433 -0.1787 -1.3141
 3332TIP3    H231488   3.082   4.327  14.438  0.1850  1.2128 -0.3701
 3333TIP3   OH231489   6.644   5.607   3.801 -1.1124  0.6523 -0.1510
 3333TIP3    H131490   6.619   5.658   3.878  1.7459 -0.2636  1.5499
 3333TIP3    H231491   6.615   5.518   3.821  1.8528 -0.1264  1.1962
 3334TIP3   OH231492   3.417   1.435   4.989 -0.4052  0.0733  0.3351
 3334TIP3    H131493   3.434   1.348   4.954 -0.5420  0.5782 -1.0346
 3334TIP3    H231494   3.417   1.492   4.913 -1.2226  1.1476  1.1127
 3335TIP3   OH231495   1.047   2.557  12.848  0.2939 -0.5869 -0.1784
 3335TIP3    H131496   1.009   2.641  12.824 -0.1817 -1.2419 -1.9146
 3335TIP3    H231497   1.062   2.563  12.942  1.0513  1.7208 -0.3807
 3336TIP3   OH231498   1.209   1.866  12.663  0.1872 -0.1583  0.8922
 3336TIP3    H131499   1.292   1.884  12.708  0.4104 -1.6041  1.1218
 3336TIP3    H231500   1.152   1.831  12.732  0.2559 -1.6009  0.2559
 3337TIP3   OH231501   4.736   5.357   5.281  0.2375 -0.4346 -0.4515
 3337TIP3    H131502   4.780   5.272   5.271  1.1262 -0.3310  1.8528
 3337TIP3    H231503   4.647   5.342   5.251 -0.5001 -3.0867  2.4360
 3338TIP3   OH231504   1.648   0.917   3.898  0.2130  0.2028 -0.1464
 3338TIP3    H131505   1.636   0.823   3.889  0.2656  0.0842  0.8530
 3338TIP3    H231506   1.739   0.932   3.872 -0.1391  0.1604 -1.4440
 3339TIP3   OH231507   3.562   1.502  11.760  0.3768 -0.8985  0.1319
 3339TIP3    H131508   3.638   1.450  11.735 -1.0361 -1.6559 -3.1404
 3339TIP3    H231509   3.582   1.591  11.730  1.6570 -0.0122  3.2535
 3340TIP3   OH231510   4.545   1.694  17.127 -0.0735  0.1933 -0.3537
 3340TIP3    H131511   4.618   1.698  17.188  0.4283 -0.3888 -0.8955
 3340TIP3    H231512   4.581   1.726  17.044  0.5911 -3.1507 -1.5246
 3341TIP3   OH231513   4.378   5.665  13.186 -0.5650  0.2751  0.1611
 3341TIP3    H131514   4.328   5.648  13.266 -0.1923 -0.6394  0.2018
 3341TIP3    H231515   4.409   5.580  13.158  2.1157  0.9277  0.8809
 3342TIP3   OH231516   1.588   3.463  11.557  0.5011 -0.0353  0.0477
 3342TIP3    H131517   1.644   3.522  11.506  0.7762 -0.2996  0.0371
 3342TIP3    H231518   1.521   3.434  11.495  1.2014 -0.8431 -0.3413
 3343TIP3   OH231519   2.841   5.950  13.303  0.4008  0.0838 -0.1103
 3343TIP3    H131520   2.747   5.950  13.316  0.3381  0.9557 -0.4777
 3343TIP3    H231521   2.857   5.875  13.246  0.0677 -0.6730  0.7709
 3344TIP3   OH231522   5.563   1.588  14.285  0.0137 -0.6837 -0.1603
 3344TIP3    H131523   5.501   1.517  14.299 -1.0398  0.2644  0.1029
 3344TIP3    H231524   5.592   1.613  14.373 -1.8834  1.1461  0.0129
 3345TIP3   OH231525   2.844   0.010   1.231 -0.4652 -0.0487  0.5734
 3345TIP3    H131526   2.865  -0.080   1.209  1.5508  0.5121  0.0235
 3345TIP3    H231527   2.870   0.019   1.322 -0.7518 -0.0465  0.6551
 3346TIP3   OH231528   2.313   3.678   1.832 -0.4122 -0.2600  0.9177
 3346TIP3    H131529   2.404   3.650   1.844 -0.2400 -0.2248 -0.2456
 3346TIP3    H231530   2.262   3.598   1.840 -0.0129 -0.8041 -1.2995
 3347TIP3   OH231531   3.888   0.130   2.976  0.0048  0.7078  0.3723
 3347TIP3    H131532   3.827   0.191   2.936  1.3148  1.3027 -0.8039
 3347TIP3    H231533   3.916   0.173   3.057  0.9542  1.7543 -0.4689
 3348TIP3   OH231534   2.932   6.000   5.989 -0.0703 -0.0600 -0.0064
 3348TIP3    H131535   2.924   5.962   6.076  0.8810  0.0618  0.1412
 3348TIP3    H231536   2.843   6.028   5.967 -1.1032 -3.3641 -0.6013
 3349TIP3   OH231537   2.310   4.045   4.906 -0.1492 -0.1468  0.4120
 3349TIP3    H131538   2.300   3.970   4.965 -0.8661  0.3285  0.8982
 3349TIP3    H231539   2.252   4.025   4.832 -0.9488  0.2964  0.9147
 3350TIP3   OH231540   0.125   2.251   5.544  0.1994 -0.1427 -0.4321
 3350TIP3    H131541   0.213   2.236   5.508  0.3030 -1.0690  0.1622
 3350TIP3    H231542   0.111   2.345   5.536  0.5275 -0.2143 -2.1602
 3351TIP3   OH231543   6.068   2.391   0.028 -0.7605 -0.9036 -0.2115
 3351TIP3    H131544   6.087   2.482   0.006  0.4837 -0.7647  1.2393
 3351TIP3    H231545   5.974   2.389   0.046 -0.8270  0.0447 -0.4382
 3352TIP3   OH231546   4.394   6.074  11.826 -0.0208 -0.3065  0.2180
 3352TIP3    H131547   4.463   6.122  11.781  1.3396 -2.3324 -0.0007
 3352TIP3    H231548   4.317   6.130  11.818  1.2219  1.3682 -0.8090
 3353TIP3   OH231549   3.265   4.639   2.989  0.0726 -0.1665 -0.1400
 3353TIP3    H131550   3.312   4.684   2.919 -0.0822 -0.5255 -0.4845
 3353TIP3    H231551   3.285   4.688   3.068 -1.4168  1.5469 -0.7401
 3354TIP3   OH231552   0.707   5.406  16.948 -0.6327 -0.0827  0.2940
 3354TIP3    H131553   0.743   5.457  17.021  0.8325  0.4397 -0.7610
 3354TIP3    H231554   0.778   5.348  16.922 -0.7480  0.5036 -1.4174
 3355TIP3   OH231555   1.404   2.677  13.972  0.1976 -0.2242 -0.0595
 3355TIP3    H131556   1.344   2.664  14.046 -0.9010 -1.0083 -1.0555
 3355TIP3    H231557   1.484   2.631  13.998  1.0027  2.0085  1.9003
 3356TIP3   OH231558   1.570   1.462  16.718 -0.2486  0.7248  0.4808
 3356TIP3    H131559   1.528   1.438  16.801  0.4889 -0.1091  0.6294
 3356TIP3    H231560   1.512   1.528  16.680 -1.6585 -0.3406  0.7063
 3357TIP3   OH231561   1.430   1.071   0.351  0.1118 -0.2295  0.4601
 3357TIP3    H131562   1.345   1.031   0.332  0.1718 -0.1463 -0.0091
 3357TIP3    H231563   1.464   1.096   0.265 -0.6811  2.3711  0.8173
 3358TIP3   OH231564   2.314   4.234   4.506  0.9701  0.2350  0.2870
 3358TIP3    H131565   2.389   4.277   4.467  1.7502 -0.5758  0.8641
 3358TIP3    H231566   2.327   4.141   4.489 -0.9279  0.1953 -1.3597
 3359TIP3   OH231567   6.722   2.080   5.387 -0.3185  0.3775 -0.1562
 3359TIP3    H131568   6.636   2.067   5.427 -1.0312  1.4452 -1.3059
 3359TIP3    H231569   6.719   2.169   5.351  1.1451  0.3036 -0.5052
 3360TIP3   OH231570   0.415   5.854   4.794 -0.4817 -0.3466 -0.5552
 3360TIP3    H131571   0.366   5.917   4.846 -1.9699 -2.8803  1.3658
 3360TIP3    H231572   0.506   5.882   4.801 -1.0468  1.3631  0.4760
 3361TIP3   OH231573   1.442   1.606  10.423  0.2930 -0.2651 -0.5439
 3361TIP3    H131574   1.415   1.525  10.378 -0.1708  0.1999 -1.1231
 3361TIP3    H231575   1.375   1.618  10.491 -1.6945  1.4454 -2.6369
 3362TIP3   OH231576   3.066   5.862  11.108  0.0986 -0.0945 -0.5381
 3362TIP3    H131577   3.066   5.910  11.191 -0.1062 -2.1093  0.6989
 3362TIP3    H231578   3.103   5.924  11.045  2.7023  0.7293  1.5669
 3363TIP3   OH231579   5.764   4.981  12.012 -0.1741 -0.0725  0.3727
 3363TIP3    H131580   5.710   4.932  11.950  0.7354 -0.7603  0.1118
 3363TIP3    H231581   5.776   5.066  11.970  0.2829 -0.4706 -0.3202
 3364TIP3   OH231582   3.517   1.009  14.461  0.1444 -0.2547  0.9768
 3364TIP3    H131583   3.605   1.026  14.428 -1.3335  2.3430 -2.1239
 3364TIP3    H231584   3.471   0.969  14.387 -1.7238 -0.0614  1.9663
 3365TIP3   OH231585   5.442   1.073   1.172  0.3757  0.3058  0.0227
 3365TIP3    H131586   5.456   1.116   1.256  0.2863 -0.0800  0.2400
 3365TIP3    H231587   5.477   1.133   1.107  2.2712 -0.2465  0.4762
 3366TIP3   OH231588   5.202   2.572  16.030 -0.1608  0.0173  0.4725
 3366TIP3    H131589   5.125   2.514  16.030  1.9500 -3.1397 -1.3653
 3366TIP3    H231590   5.241   2.561  16.117  0.0765 -1.2591  0.2271
 3367TIP3   OH231591   2.545   2.559   3.658  1.0746  0.1077  0.3803
 3367TIP3    H131592   2.623   2.541   3.606  0.9488 -0.9290  0.5250
 3367TIP3    H231593   2.562   2.519   3.743  0.1478 -0.7188  0.2067
 3368TIP3   OH231594   6.570   1.683  14.772 -0.2818  0.3128  0.1835
 3368TIP3    H131595   6.637   1.653  14.711 -1.1875 -0.0117 -0.6886
 3368TIP3    H231596   6.596   1.647  14.856  1.1075  0.9374  0.0570
 3369TIP3   OH231597   3.843   3.323   2.664 -0.4917 -0.0955  0.3241
 3369TIP3    H131598   3.839   3.352   2.755 -0.8308  0.2251  0.2084
 3369TIP3    H231599   3.913   3.257   2.663 -0.7197 -0.3513  0.8811
 3370TIP3   OH231600   5.773   3.124  12.791  0.4429 -0.0571 -0.3329
 3370TIP3    H131601   5.748   3.103  12.701 -0.7309 -1.3539  0.2694
 3370TIP3    H231602   5.826   3.049  12.819 -1.1258 -0.7905  0.7912
 3371TIP3   OH231603   5.321   3.749   2.643 -0.8096 -0.0725 -0.5991
 3371TIP3    H131604   5.368   3.771   2.562 -2.0780 -0.3963 -1.4494
 3371TIP3    H231605   5.355   3.662   2.667  0.0712  0.3192 -0.3808
 3372TIP3   OH231606   3.587   6.092  13.141 -0.0559 -0.1870  0.3742
 3372TIP3    H131607   3.530   6.150  13.193 -1.1625  1.4879 -2.4588
 3372TIP3    H231608   3.676   6.116  13.167 -0.5175  2.1199  0.0557
 3373TIP3   OH231609   1.246   1.801  14.195 -0.2300 -0.3655 -0.0228
 3373TIP3    H131610   1.196   1.845  14.127 -1.8544  1.2797  2.0797
 3373TIP3    H231611   1.197   1.819  14.276  2.5847 -0.5378  1.8689
 3374TIP3   OH231612   3.241   5.665   5.229  0.4173  0.2133  0.2002
 3374TIP3    H131613   3.283   5.602   5.287  1.9968  0.7290 -0.3196
 3374TIP3    H231614   3.235   5.745   5.281 -0.7479 -0.0793  0.5527
 3375TIP3   OH231615   6.765   4.958  11.940  0.4203 -0.5960  0.2812
 3375TIP3    H131616   6.845   4.931  11.985  1.6255 -0.1704 -1.4801
 3375TIP3    H231617   6.759   5.052  11.955  1.2363 -0.3157 -0.9679
 3376TIP3   OH231618   6.704   6.536   5.196  0.5134  0.3712  0.3749
 3376TIP3    H131619   6.653   6.614   5.221  2.2167  1.4931  0.5251
 3376TIP3    H231620   6.657   6.463   5.236 -0.0266  1.5289  1.9789
 3377TIP3   OH231621   4.420   4.447  13.424  0.3496 -0.2815 -0.0430
 3377TIP3    H131622   4.474   4.423  13.349  0.2514 -0.7237  0.0249
 3377TIP3    H231623   4.394   4.538  13.407 -0.4445 -0.6697 -1.0041
 3378TIP3   OH231624   0.581   3.464  11.278  0.2939  0.1051  0.1101
 3378TIP3    H131625   0.663   3.483  11.232  0.2104 -0.2441 -0.1919
 3378TIP3    H231626   0.514   3.468  11.210  0.0289  0.6034  0.3973
 3379TIP3   OH231627   1.698   2.522   1.019  0.1527  0.7757  0.1005
 3379TIP3    H131628   1.728   2.432   1.031 -1.5845  0.0257 -0.7717
 3379TIP3    H231629   1.697   2.559   1.107 -2.4414 -1.2364  1.0574
 3380TIP3   OH231630   2.572   4.187   1.381  0.4663  0.0836  0.1126
 3380TIP3    H131631   2.638   4.208   1.315  1.5317 -0.8135  0.8667
 3380TIP3    H231632   2.497   4.155   1.330  1.4084 -0.9589 -0.6580
 3381TIP3   OH231633   6.503   4.506   5.123  0.4000  0.8371 -0.2887
 3381TIP3    H131634   6.599   4.499   5.126  0.2719 -1.0508  1.0294
 3381TIP3    H231635   6.484   4.589   5.166  1.3947  0.3471  1.1906
 3382TIP3   OH231636   0.411   1.623  13.825 -0.1139 -0.0772  0.0364
 3382TIP3    H131637   0.479   1.655  13.765  1.0462  1.0362  1.8178
 3382TIP3    H231638   0.358   1.563  13.773 -1.1137  3.0890 -3.0247
 3383TIP3   OH231639   5.234   2.422  16.829  0.3567  0.1321 -0.0062
 3383TIP3    H131640   5.179   2.460  16.898 -1.0225 -2.9552  0.7607
 3383TIP3    H231641   5.323   2.432  16.862  0.2579  3.4076 -0.3366
 3384TIP3   OH231642   4.931   2.667   5.438 -0.2664 -0.3043 -0.3270
 3384TIP3    H131643   4.941   2.631   5.350  1.2302  0.0518 -0.3296
 3384TIP3    H231644   4.929   2.762   5.425 -1.2737 -0.2798 -0.0704
 3385TIP3   OH231645   5.203   0.189   3.382 -0.1582  0.6987 -0.4498
 3385TIP3    H131646   5.210   0.179   3.477 -2.4610  2.5861  0.0128
 3385TIP3    H231647   5.136   0.256   3.370  0.6259  1.0823 -3.4226
 3386TIP3   OH231648   2.473   5.155  17.218 -0.0724  0.1867  0.2796
 3386TIP3    H131649   2.442   5.246  17.220 -0.5827  0.0793 -1.3041
 3386TIP3    H231650   2.555   5.157  17.268 -1.1875  1.0402  2.1911
 3387TIP3   OH231651   0.787   6.008  12.259  0.5589  0.2449 -0.7604
 3387TIP3    H131652   0.761   5.989  12.349 -1.6968 -0.6156 -1.5369
 3387TIP3    H231653   0.738   5.946  12.206  0.6090  1.7637 -2.7093
 3388TIP3   OH231654   3.447   5.336   4.623 -0.2100 -0.0926  0.2417
 3388TIP3    H131655   3.512   5.266   4.633  1.7780  1.6710  0.4515
 3388TIP3    H231656   3.488   5.397   4.561 -1.5217  1.2836  0.6722
 3389TIP3   OH231657   6.304   5.004   3.464  0.2841 -0.0388 -0.0774
 3389TIP3    H131658   6.274   5.093   3.447 -1.8722  0.1254  3.3847
 3389TIP3    H231659   6.392   5.015   3.499 -0.2086  0.9182  0.9756
 3390TIP3   OH231660   1.526   3.928   5.587  0.3482  0.3302 -0.3304
 3390TIP3    H131661   1.474   3.911   5.666 -0.2810 -0.3279 -0.8773
 3390TIP3    H231662   1.588   3.855   5.584 -0.1276 -0.0603 -0.8448
 3391TIP3   OH231663   0.776   3.199  14.387  0.1099  0.5905  0.2341
 3391TIP3    H131664   0.772   3.142  14.310 -0.1778  1.1371 -0.1649
 3391TIP3    H231665   0.722   3.275  14.363  0.9803  1.3133  0.5136
 3392TIP3   OH231666   1.156   5.521  14.155  0.4171 -0.0397 -0.1154
 3392TIP3    H131667   1.250   5.531  14.165  0.4131  0.0310 -0.1492
 3392TIP3    H231668   1.122   5.610  14.159  0.5201  0.1216 -1.9799
 3393TIP3   OH231669   0.518   2.261  16.284 -0.5307 -0.0472 -0.1319
 3393TIP3    H131670   0.447   2.265  16.219 -0.4216  0.7288 -0.2026
 3393TIP3    H231671   0.596   2.285  16.235 -0.5225  1.0514  0.3910
 3394TIP3   OH231672   2.304   3.979   2.163 -0.4187  0.7399 -0.1197
 3394TIP3    H131673   2.387   4.027   2.161 -0.0624  0.1171 -0.7348
 3394TIP3    H231674   2.300   3.942   2.252  1.0753 -1.0902 -0.7396
 3395TIP3   OH231675   5.025   1.227  16.379  0.5291  0.3870 -0.0585
 3395TIP3    H131676   5.007   1.313  16.419  0.7487  0.6357 -0.4857
 3395TIP3    H231677   5.040   1.247  16.287 -4.9571 -0.7133 -1.5050
 3396TIP3   OH231678   0.755   0.668  15.628  0.2467  0.1480  0.0223
 3396TIP3    H131679   0.678   0.623  15.663  1.7543 -3.5824 -1.0368
 3396TIP3    H231680   0.749   0.656  15.533  2.7139 -1.4600 -0.0218
 3397TIP3   OH231681   1.730   5.050  11.897 -1.1633  0.3040  0.4154
 3397TIP3    H131682   1.664   5.060  11.965 -0.6002 -0.4934  1.1017
 3397TIP3    H231683   1.681   5.025  11.819 -1.7613  0.6627  0.6667
 3398TIP3   OH231684   3.948   4.901  10.569 -0.3946  1.0467  0.2345
 3398TIP3    H131685   3.860   4.880  10.600 -1.4172  0.8216 -2.5521
 3398TIP3    H231686   3.942   4.993  10.541  0.2244  0.9848 -0.1164
 3399TIP3   OH231687   4.211   2.560   6.077  0.1370 -0.1768  0.8195
 3399TIP3    H131688   4.236   2.571   5.986 -1.9304 -0.6990  0.1437
 3399TIP3    H231689   4.177   2.645   6.104 -1.5598 -0.6581  0.3039
 3400TIP3   OH231690   3.887   6.380   4.486 -0.3746 -0.2891 -0.2536
 3400TIP3    H131691   3.974   6.399   4.522 -0.2774  0.9313 -1.0992
 3400TIP3    H231692   3.847   6.466   4.473 -1.4071 -0.8156 -0.6142
 3401TIP3   OH231693   6.177   2.393   0.874  0.0086 -1.0633  0.2489
 3401TIP3    H131694   6.247   2.420   0.933 -0.6174 -3.4859  2.2509
 3401TIP3    H231695   6.204   2.307   0.843 -1.1773 -1.1676 -0.5509
 3402TIP3   OH231696   3.580   6.161  11.084 -0.4624  0.3369  0.1282
 3402TIP3    H131697   3.648   6.185  11.146 -0.2119 -0.3285  0.1183
 3402TIP3    H231698   3.572   6.237  11.026  0.8076  0.1367 -0.3450
 3403TIP3   OH231699   1.839   3.604  12.189  0.4661  0.3241 -0.2466
 3403TIP3    H131700   1.795   3.555  12.119 -0.9600 -0.5688  1.1876
 3403TIP3    H231701   1.820   3.695  12.170  0.2267  0.0969 -1.1235
 3404TIP3   OH231702   6.723   4.750  16.846  0.1047  0.0539 -0.0797
 3404TIP3    H131703   6.660   4.677  16.852  0.6102 -0.4092 -0.3078
 3404TIP3    H231704   6.670   4.828  16.860 -0.2286 -0.4204  1.6433
 3405TIP3   OH231705   5.793   4.605   2.035  0.3823  0.6947  0.5047
 3405TIP3    H131706   5.783   4.541   1.965 -0.1862  1.5931 -0.2705
 3405TIP3    H231707   5.715   4.594   2.089  1.2882 -0.6712  1.6089
 3406TIP3   OH231708   4.109   2.200   3.210  0.2634  0.1719 -0.9876
 3406TIP3    H131709   4.138   2.268   3.272 -0.3809 -0.5769  0.1594
 3406TIP3    H231710   4.021   2.227   3.184 -1.4089 -1.8134  2.0221
 3407TIP3   OH231711   3.822   1.110  11.575  0.4140  0.5680 -0.3284
 3407TIP3    H131712   3.744   1.137  11.528 -0.7945  1.2675  1.9327
 3407TIP3    H231713   3.791   1.046  11.640  1.7580  0.6412  0.4395
 3408TIP3   OH231714   1.473   5.103   5.265 -0.3234  0.3626  0.1411
 3408TIP3    H131715   1.524   5.047   5.207  0.2217  1.9700 -1.0081
 3408TIP3    H231716   1.385   5.102   5.229 -0.1379  0.8389 -0.3299
 3409TIP3   OH231717   3.379   4.606  15.397  0.3082 -0.4935 -0.4110
 3409TIP3    H131718   3.404   4.514  15.410 -0.0416 -0.4631  0.6153
 3409TIP3    H231719   3.445   4.641  15.338  0.6514 -1.3163 -0.5275
 3410TIP3   OH231720   1.245   2.368   5.067  0.1347 -0.0959  0.4835
 3410TIP3    H131721   1.240   2.288   5.015 -0.0313  0.6543 -0.6857
 3410TIP3    H231722   1.195   2.348   5.147 -0.4878 -0.9265 -0.0989
 3411TIP3   OH231723   5.743   3.276   3.067  0.1677 -0.8149 -0.0641
 3411TIP3    H131724   5.684   3.205   3.091  1.3724 -1.1888  2.0075
 3411TIP3    H231725   5.829   3.235   3.060  0.6427  0.1870 -0.2600
 3412TIP3   OH231726   1.181   6.261  16.424  0.0912  0.3735 -0.2376
 3412TIP3    H131727   1.234   6.204  16.480  0.4595  0.2797 -0.6756
 3412TIP3    H231728   1.226   6.260  16.340  0.5014  1.8349 -0.0704
 3413TIP3   OH231729   0.016   2.161  13.480 -0.4028 -0.2013  0.3605
 3413TIP3    H131730   0.089   2.129  13.427  0.9610  2.5518  0.3856
 3413TIP3    H231731   0.051   2.161  13.570 -1.4543 -1.4759  0.7978
 3414TIP3   OH231732   2.162   0.515  11.553 -0.3213 -0.1715  0.4225
 3414TIP3    H131733   2.222   0.450  11.515  1.0499  1.4802 -0.3673
 3414TIP3    H231734   2.163   0.588  11.491 -3.6950 -0.2817  0.0478
 3415TIP3   OH231735   1.880   1.814  12.935 -0.1858 -0.7950  0.1526
 3415TIP3    H131736   1.785   1.819  12.924 -0.2268  3.9922  0.5055
 3415TIP3    H231737   1.915   1.818  12.845 -0.3058 -0.7480  0.1080
 3416TIP3   OH231738   1.766   4.657  16.773  0.0189  0.6493  0.0037
 3416TIP3    H131739   1.729   4.585  16.722 -0.9610  1.0595  0.1236
 3416TIP3    H231740   1.849   4.622  16.806 -1.0030 -0.8857  1.0950
 3417TIP3   OH231741   2.656   4.319  14.428  0.7890  0.1858 -0.6730
 3417TIP3    H131742   2.641   4.368  14.347  1.6402  0.6047 -0.5958
 3417TIP3    H231743   2.689   4.234  14.399  0.6769  0.1759 -0.7744
 3418TIP3   OH231744   6.234   1.703   5.549 -0.0264 -1.1064 -0.3690
 3418TIP3    H131745   6.287   1.730   5.474  1.9802 -0.3359  1.2347
 3418TIP3    H231746   6.289   1.721   5.625 -3.6219  2.6594  1.7424
 3419TIP3   OH231747   6.672   2.269   5.643  0.4771  0.0561  0.5510
 3419TIP3    H131748   6.764   2.257   5.618  0.7140  2.6165 -0.1136
 3419TIP3    H231749   6.664   2.363   5.662 -2.1010  0.0148  0.0907
 3420TIP3   OH231750   4.479   3.695   1.827 -0.2196 -0.3813  0.1011
 3420TIP3    H131751   4.490   3.700   1.922 -1.2682  0.7397  0.1843
 3420TIP3    H231752   4.431   3.614   1.813 -2.8489  0.9379  0.8614
 3421TIP3   OH231753   4.906   4.086  14.359  0.2306  0.4845 -0.1726
 3421TIP3    H131754   4.811   4.098  14.359  0.0152 -0.3961 -3.3074
 3421TIP3    H231755   4.930   4.081  14.452 -2.6589  1.4126  0.7222
 3422TIP3   OH231756   2.307   4.142   2.769 -0.0547  0.3199  0.0111
 3422TIP3    H131757   2.297   4.058   2.814  0.6591 -0.6155 -1.5154
 3422TIP3    H231758   2.397   4.168   2.787 -0.2312  0.7065  0.3599
 3423TIP3   OH231759   0.909   2.431  10.711 -0.3018 -0.5711  0.4857
 3423TIP3    H131760   0.824   2.463  10.680 -0.4770 -0.9205  0.5976
 3423TIP3    H231761   0.973   2.490  10.671 -0.6919  0.9028  1.9178
 3424TIP3   OH231762   3.959   4.285   3.908 -0.5177  0.9183 -0.0474
 3424TIP3    H131763   3.878   4.237   3.889  0.1139 -0.2373  0.0932
 3424TIP3    H231764   3.972   4.274   4.002 -0.2618  1.2071 -0.0473
 3425TIP3   OH231765   3.772   2.107   5.376  0.0101 -0.2073 -0.0946
 3425TIP3    H131766   3.679   2.083   5.376 -0.3024  0.8342  1.9518
 3425TIP3    H231767   3.795   2.111   5.469  1.5911  1.4763 -0.5319
 3426TIP3   OH231768   0.615   1.252  10.933  0.6400  0.0393 -0.1233
 3426TIP3    H131769   0.625   1.157  10.925  0.7485 -0.0868  1.3426
 3426TIP3    H231770   0.702   1.283  10.959  0.3619  0.4249  0.3477
 3427TIP3   OH231771   5.526   2.148  15.408  0.0072 -0.2770  0.2110
 3427TIP3    H131772   5.535   2.056  15.382  0.1394 -1.0731  2.7884
 3427TIP3    H231773   5.557   2.198  15.332 -1.9577 -2.2462 -2.0640
 3428TIP3   OH231774   0.127   4.156   0.035  0.3234 -0.3486  0.2711
 3428TIP3    H131775   0.033   4.156   0.018 -0.0134 -0.3816  1.9640
 3428TIP3    H231776   0.140   4.091   0.104  1.9167 -1.8901 -1.3456
 3429TIP3   OH231777   1.047   4.148  12.686  0.1131  0.0421  0.2729
 3429TIP3    H131778   1.109   4.110  12.624 -1.2016 -0.5920 -0.7112
 3429TIP3    H231779   1.071   4.111  12.771  0.4900 -0.9312 -0.2495
 3430TIP3   OH231780   5.758   2.384   3.938 -0.7524 -0.4963  0.6673
 3430TIP3    H131781   5.852   2.390   3.953 -0.9984  0.5566  1.9838
 3430TIP3    H231782   5.732   2.473   3.913 -1.1359 -1.1823 -1.5794
 3431TIP3   OH231783   4.938   1.813  13.830  0.2115 -0.1103 -0.0140
 3431TIP3    H131784   4.970   1.745  13.890  2.2054 -1.5913 -2.5329
 3431TIP3    H231785   4.900   1.764  13.757 -0.6001  1.5814 -0.7699
 3432TIP3   OH231786   0.128   0.755   4.539  0.0450  0.5502 -0.2769
 3432TIP3    H131787   0.150   0.665   4.565 -1.1461  0.4424  0.4255
 3432TIP3    H231788   0.204   0.807   4.566  0.4138 -0.1270  0.0217
 3433TIP3   OH231789   1.625   3.706  11.678  0.3684  0.2261 -0.6473
 3433TIP3    H131790   1.559   3.737  11.740  0.9689  0.0136  0.1187
 3433TIP3    H231791   1.587   3.627  11.640  0.7463 -0.7502  0.8803
 3434TIP3   OH231792   1.399   3.330  15.355 -0.2222  0.0931 -0.2167
 3434TIP3    H131793   1.438   3.366  15.276 -0.5519  0.6969 -0.1068
 3434TIP3    H231794   1.469   3.278  15.395  0.3133  0.7546 -0.2862
 3435TIP3   OH231795   2.346   2.801  15.298 -0.4133  0.5009 -0.1122
 3435TIP3    H131796   2.370   2.724  15.349 -0.7006 -0.7362 -1.7325
 3435TIP3    H231797   2.365   2.776  15.207 -1.5955  1.9203 -0.7917
 3436TIP3   OH231798   4.593   2.162  11.744 -0.0446 -0.5894  0.1047
 3436TIP3    H131799   4.687   2.151  11.754 -0.0780  0.5228  2.1381
 3436TIP3    H231800   4.582   2.253  11.717 -0.5290 -0.7134 -0.1242
 3437TIP3   OH231801   5.673   3.622   2.889 -0.4291  0.2460 -0.6411
 3437TIP3    H131802   5.614   3.682   2.934 -0.5742 -0.2499 -0.1599
 3437TIP3    H231803   5.738   3.598   2.954  0.3660  0.8541 -1.1922
 3438TIP3   OH231804   1.295   4.183   0.664  0.2014 -0.1023 -0.2724
 3438TIP3    H131805   1.354   4.129   0.716  1.2093  1.2108  0.0127
 3438TIP3    H231806   1.220   4.127   0.646  0.5129 -1.0808  1.3016
 3439TIP3   OH231807   4.788   6.145   4.743  0.3592  0.3042 -0.1275
 3439TIP3    H131808   4.719   6.182   4.798 -0.8692 -0.4823 -1.0820
 3439TIP3    H231809   4.869   6.183   4.777 -0.5297  1.1973  1.0729
 3440TIP3   OH231810   6.217   2.392  16.020 -0.5991  0.4385  0.1147
 3440TIP3    H131811   6.300   2.437  16.006 -0.9066  0.3915 -2.1672
 3440TIP3    H231812   6.228   2.347  16.104  1.5477  0.7093  0.0255
 3441TIP3   OH231813   0.726   0.170  11.049  0.0968  0.0613  0.2997
 3441TIP3    H131814   0.660   0.119  11.096 -0.3773  1.5951  1.3974
 3441TIP3    H231815   0.730   0.130  10.962  0.0608 -2.0582  1.2249
 3442TIP3   OH231816   3.288   5.400  11.049 -0.1354  0.3520  0.3052
 3442TIP3    H131817   3.263   5.312  11.021  0.0104 -0.1599  1.7033
 3442TIP3    H231818   3.362   5.422  10.992  0.5528 -0.8964  0.6810
 3443TIP3   OH231819   0.936   0.134   4.390  0.5573  0.2275 -0.0259
 3443TIP3    H131820   0.874   0.145   4.318 -0.1187  2.0513  0.7757
 3443TIP3    H231821   0.887   0.161   4.468  1.3730 -1.3754  1.1081
 3444TIP3   OH231822   1.479   2.656   6.203  0.2637 -0.1034 -0.3082
 3444TIP3    H131823   1.519   2.573   6.178 -0.5668 -1.0817  1.4030
 3444TIP3    H231824   1.389   2.650   6.172 -0.0130 -0.1913  0.4853
 3445TIP3   OH231825   4.881   5.287   1.191 -0.0821 -0.2238 -0.7203
 3445TIP3    H131826   4.808   5.235   1.225  0.9172  0.4185  2.7855
 3445TIP3    H231827   4.839   5.359   1.144 -1.7188 -0.1656  0.7460
 3446TIP3   OH231828   5.188   4.954  13.329  0.0622  0.3296 -0.6234
 3446TIP3    H131829   5.120   5.005  13.373 -0.2769  0.8629 -1.7145
 3446TIP3    H231830   5.270   4.982  13.370 -0.3051  0.2613  0.1669
 3447TIP3   OH231831   4.225   0.031  13.207 -0.8979  0.6373 -0.1718
 3447TIP3    H131832   4.186  -0.039  13.154  1.1924 -0.3783 -0.4726
 3447TIP3    H231833   4.308   0.050  13.165 -0.6071  2.0816  0.9523
 3448TIP3   OH231834   1.390   0.201  15.494 -0.8626  0.2835  0.2680
 3448TIP3    H131835   1.318   0.210  15.431  0.8456 -1.3110 -2.0920
 3448TIP3    H231836   1.373   0.118  15.538 -1.0870  0.5195  0.6391
 3449TIP3   OH231837   6.822   2.664   2.240  0.1750  0.7588 -0.3130
 3449TIP3    H131838   6.810   2.747   2.285  0.1815  0.7419 -0.2798
 3449TIP3    H231839   6.782   2.677   2.154 -0.0228  0.7228 -0.2269
 3450TIP3   OH231840   4.645   0.158   4.828  0.0884 -0.1564 -0.2783
 3450TIP3    H131841   4.623   0.092   4.895 -0.0616 -0.2371 -0.4065
 3450TIP3    H231842   4.567   0.215   4.825  0.4077  0.3200  0.1812
 3451TIP3   OH231843   3.355   1.342  15.163  0.1683  0.0721 -0.7022
 3451TIP3    H131844   3.323   1.430  15.143 -0.9245  0.3658  1.9296
 3451TIP3    H231845   3.283   1.284  15.138 -0.2282  0.2129  0.0763
 3452TIP3   OH231846   5.428   5.091  15.114  0.0687  0.0127 -0.3110
 3452TIP3    H131847   5.368   5.141  15.168  1.2463  2.3693 -1.0459
 3452TIP3    H231848   5.399   5.000  15.122 -1.1480  0.5703  2.4246
 3453TIP3   OH231849   0.976   1.357  13.691  0.7528  0.4070  0.2941
 3453TIP3    H131850   0.906   1.310  13.646  1.7896 -0.7736 -0.1532
 3453TIP3    H231851   0.934   1.397  13.767 -0.3547 -0.4418  0.1439
 3454TIP3   OH231852   6.089   0.803  14.992 -0.8178  0.2102  0.3396
 3454TIP3    H131853   6.091   0.762  15.078 -1.1398  0.6098  0.5439
 3454TIP3    H231854   6.173   0.847  14.983 -0.9899  0.6167  0.6805
 3455TIP3   OH231855   5.570   0.369   2.760 -0.3064 -0.1361  0.2333
 3455TIP3    H131856   5.573   0.328   2.674  0.0561  1.0602 -0.3418
 3455TIP3    H231857   5.482   0.348   2.793 -0.5087 -0.4584 -0.4910
 3456TIP3   OH231858   5.770   4.701   0.425 -0.3954 -0.3895 -0.1969
 3456TIP3    H131859   5.681   4.666   0.420 -0.8297  0.5984  0.3107
 3456TIP3    H231860   5.761   4.784   0.472  0.7808 -0.2129 -0.2410
 3457TIP3   OH231861   0.787   0.634  15.087  0.8083 -0.3634 -0.2486
 3457TIP3    H131862   0.782   0.726  15.112 -1.2783 -0.5153  0.0324
 3457TIP3    H231863   0.795   0.636  14.991  0.3293  0.0991 -0.2812
 3458TIP3   OH231864   5.720   5.422  11.185 -0.5886  0.0703 -0.1461
 3458TIP3    H131865   5.678   5.483  11.245 -2.3071  0.3334 -1.5080
 3458TIP3    H231866   5.652   5.403  11.119 -0.6222 -4.2063  0.7835
 3459TIP3   OH231867   2.701   1.118  15.876 -0.6740  0.5286 -0.1056
 3459TIP3    H131868   2.648   1.040  15.863 -0.0645  0.5211 -3.0555
 3459TIP3    H231869   2.637   1.188  15.891 -1.3854  0.0254 -0.7480
 3460TIP3   OH231870   4.435   6.074  12.481 -0.0477  0.1766 -0.1513
 3460TIP3    H131871   4.345   6.043  12.487 -1.0113  2.8785  0.4973
 3460TIP3    H231872   4.443   6.138  12.552  2.3554  0.0888 -0.2683
 3461TIP3   OH231873   6.488   2.944   4.398 -0.6219 -0.5947 -0.0044
 3461TIP3    H131874   6.543   2.866   4.403  0.7089  0.3939  1.9656
 3461TIP3    H231875   6.525   3.003   4.463 -2.6750  1.0084 -0.2182
 3462TIP3   OH231876   2.193   3.304  15.698 -0.0742  0.0084  0.4294
 3462TIP3    H131877   2.188   3.237  15.766 -0.2811  0.3316  0.7348
 3462TIP3    H231878   2.278   3.346  15.710 -0.5539  0.7946  1.1870
 3463TIP3   OH231879   2.961   5.162  13.223 -0.0874  0.0595 -0.8611
 3463TIP3    H131880   3.004   5.153  13.137  0.2078  0.7006 -0.7856
 3463TIP3    H231881   2.872   5.192  13.202  0.5992  2.2620 -0.8846
 3464TIP3   OH231882   5.930   2.273   4.277 -0.0014  0.2424  0.4128
 3464TIP3    H131883   5.846   2.309   4.246  0.2895  1.0880  0.5797
 3464TIP3    H231884   5.990   2.347   4.272  1.1182 -0.7104 -1.1002
 3465TIP3   OH231885   1.451   5.585  11.346  0.4365 -0.3621 -0.4704
 3465TIP3    H131886   1.420   5.621  11.429  2.7855 -1.9226  1.2286
 3465TIP3    H231887   1.408   5.500  11.340  1.2463 -0.8045 -0.1536
 3466TIP3   OH231888   0.273   1.315  16.102 -0.0869 -0.0802 -0.4984
 3466TIP3    H131889   0.304   1.315  16.192 -0.9271 -1.5488 -0.1615
 3466TIP3    H231890   0.181   1.341  16.108  0.6025  2.8929 -1.3210
 3467TIP3   OH231891   0.523   3.332   1.141 -0.1881  0.2540 -0.1604
 3467TIP3    H131892   0.575   3.254   1.160  1.5838  1.2194 -0.8057
 3467TIP3    H231893   0.587   3.396   1.109 -1.4784  2.1681  0.8759
 3468TIP3   OH231894   2.010   1.413  11.365 -0.7004 -0.1233  0.3755
 3468TIP3    H131895   2.103   1.392  11.360 -0.9373 -0.9491 -1.0224
 3468TIP3    H231896   2.004   1.479  11.434  0.8125 -0.6009  1.0010
 3469TIP3   OH231897   6.055   2.747  16.762  0.3968 -0.7905 -0.5746
 3469TIP3    H131898   6.094   2.832  16.742  2.3697 -1.9225 -1.8530
 3469TIP3    H231899   5.966   2.753  16.726  0.0119  1.1449  0.5434
 3470TIP3   OH231900   4.524   5.580   5.695  0.1720 -0.2473  0.6037
 3470TIP3    H131901   4.465   5.508   5.673  0.0056 -0.1598  0.7624
 3470TIP3    H231902   4.587   5.542   5.755 -0.4844 -0.0267  1.4457
 3471TIP3   OH231903   4.770   6.658   5.556  0.4621 -0.2935 -0.3072
 3471TIP3    H131904   4.807   6.696   5.477  0.7515  1.9455  0.8296
 3471TIP3    H231905   4.835   6.594   5.585  0.9415 -0.2122 -1.1771
 3472TIP3   OH231906   1.180   1.007  15.110  0.2642  0.3236  0.3705
 3472TIP3    H131907   1.266   1.018  15.071  0.1286  0.6658  0.1617
 3472TIP3    H231908   1.122   0.991  15.035  0.4946 -2.2579  0.6460
 3473TIP3   OH231909   5.406   0.562  10.781 -0.5560  0.9063  0.0073
 3473TIP3    H131910   5.319   0.591  10.752 -0.4664 -0.1937 -1.4660
 3473TIP3    H231911   5.452   0.643  10.802 -1.8561  1.5244  0.5998
 3474TIP3   OH231912   2.300   3.625  13.458  0.0076 -0.3408 -0.3672
 3474TIP3    H131913   2.238   3.696  13.477  1.5140  0.8331  0.3675
 3474TIP3    H231914   2.306   3.624  13.363 -1.2742 -0.6130 -0.4670
 3475TIP3   OH231915   5.347   3.757  14.373  0.3261  0.2490 -0.0270
 3475TIP3    H131916   5.292   3.793  14.304  1.5754  3.0441  0.2828
 3475TIP3    H231917   5.341   3.663  14.363 -2.7876  0.4812 -1.3125
 3476TIP3   OH231918   6.088   2.746   1.062 -0.5116  0.3139 -0.4855
 3476TIP3    H131919   6.067   2.824   1.114  1.1904 -0.8736  2.1933
 3476TIP3    H231920   6.183   2.738   1.069 -0.7192 -2.5636  0.2520
 3477TIP3   OH231921   2.030   3.079  16.945 -0.6145  0.2361  0.3877
 3477TIP3    H131922   1.942   3.081  16.982  0.0929  0.3452  2.1815
 3477TIP3    H231923   2.064   2.993  16.969 -0.5060 -0.1535 -1.0538
 3478TIP3   OH231924   3.687   6.058  12.552 -0.5141  0.4575  0.4106
 3478TIP3    H131925   3.718   6.123  12.489 -0.2449  0.8886  0.9824
 3478TIP3    H231926   3.756   5.992  12.554 -0.6235  0.3302  0.0977
 3479TIP3   OH231927   2.419   5.596   1.949  0.4235 -0.2818  0.1915
 3479TIP3    H131928   2.501   5.645   1.950 -1.2053  2.8696 -2.5993
 3479TIP3    H231929   2.366   5.635   2.018  0.3434 -0.5814  0.3034
 3480TIP3   OH231930   5.276   2.032   1.873  0.1370  0.1632  0.5831
 3480TIP3    H131931   5.288   1.939   1.894  1.5422  0.3214  0.6175
 3480TIP3    H231932   5.365   2.064   1.858 -0.4517  1.0733 -1.3224
 3481TIP3   OH231933   3.915   0.766  11.801 -0.1650 -0.1308 -0.1147
 3481TIP3    H131934   3.827   0.778  11.767  0.1351  1.9349 -0.2573
 3481TIP3    H231935   3.903   0.757  11.896 -0.5669 -0.6643 -0.2090
 3482TIP3   OH231936   3.992   3.599   4.442 -0.1580 -0.4906  0.2128
 3482TIP3    H131937   3.951   3.673   4.487 -0.7636  0.8119 -2.2530
 3482TIP3    H231938   4.064   3.573   4.499  1.3556  3.3339  0.3735
 3483TIP3   OH231939   2.767   5.558   3.767  0.1352 -0.5498  0.1555
 3483TIP3    H131940   2.720   5.641   3.757  0.1731 -0.6394 -0.8266
 3483TIP3    H231941   2.700   5.494   3.789 -0.2691 -0.7415 -1.5553
 3484TIP3   OH231942   0.350   3.394   3.972  0.0072  0.2916 -0.4561
 3484TIP3    H131943   0.271   3.430   4.013  1.5229  3.0945  0.3119
 3484TIP3    H231944   0.342   3.417   3.880  0.2736  1.3483 -0.2299
 3485TIP3   OH231945   5.910   2.777   2.242 -0.4786  0.0399  0.2282
 3485TIP3    H131946   5.817   2.755   2.250 -0.6038  1.0737  2.6065
 3485TIP3    H231947   5.956   2.701   2.279 -0.4636  0.1399  0.4170
 3486TIP3   OH231948   5.318   2.658   4.219 -0.3545  0.3571 -0.0715
 3486TIP3    H131949   5.332   2.582   4.163  2.9337  1.4403 -0.9552
 3486TIP3    H231950   5.271   2.720   4.164 -2.1390 -0.5845  0.3206
 3487TIP3   OH231951   0.701   5.655   2.158  0.1927 -0.5547  0.4498
 3487TIP3    H131952   0.711   5.679   2.251  2.0352 -2.5007  0.8401
 3487TIP3    H231953   0.611   5.680   2.137 -0.2587  0.0490  2.7326
 3488TIP3   OH231954   6.106   4.252  11.795 -0.1231 -0.5249 -1.0834
 3488TIP3    H131955   6.188   4.219  11.758  0.1893 -0.1922 -0.7131
 3488TIP3    H231956   6.093   4.337  11.753  0.2153 -0.1610 -0.4776
 3489TIP3   OH231957   3.328   1.499  11.098  0.1107  0.0714 -0.3557
 3489TIP3    H131958   3.297   1.585  11.070  1.0072  0.9384  1.1532
 3489TIP3    H231959   3.366   1.515  11.185  0.0112 -1.9175  0.0850
 3490TIP3   OH231960   6.269   5.861   2.473 -0.2051  0.6149  0.0239
 3490TIP3    H131961   6.210   5.854   2.548  0.3462  1.8673  0.5986
 3490TIP3    H231962   6.255   5.949   2.439 -0.5425  0.0290 -1.4527
 3491TIP3   OH231963   6.831   1.872   4.731  0.2689  0.5674 -0.4825
 3491TIP3    H131964   6.781   1.911   4.659  1.7579  3.1332 -0.2391
 3491TIP3    H231965   6.814   1.929   4.806  2.2731  0.5893  0.0085
 3492TIP3   OH231966   1.023   1.992  12.514  0.1142  0.3186  0.6343
 3492TIP3    H131967   1.105   1.964  12.555  0.6319  1.5725  0.5012
 3492TIP3    H231968   1.003   2.076  12.556 -0.2309  0.8093 -0.4797
 3493TIP3   OH231969   1.803   1.014   0.056 -0.0420  0.1487 -0.5641
 3493TIP3    H131970   1.856   1.017   0.135 -1.1382  0.4549  0.1729
 3493TIP3    H231971   1.736   1.081   0.068 -0.5931 -0.2091 -1.4847
 3494TIP3   OH231972   0.529   1.929  16.633 -0.4864 -0.0545 -0.7358
 3494TIP3    H131973   0.513   1.975  16.550 -1.3095 -0.5745 -0.8828
 3494TIP3    H231974   0.447   1.882  16.650 -0.9257  1.3201  1.2168
 3495TIP3   OH231975   4.113   0.587  14.747 -0.1494 -0.1143  0.3820
 3495TIP3    H131976   4.044   0.578  14.812  0.4863 -0.5683  1.0065
 3495TIP3    H231977   4.105   0.509  14.692  0.3454 -0.5633  0.9319
 3496TIP3   OH231978   1.473   4.821  10.994 -0.4127 -0.3872  1.0168
 3496TIP3    H131979   1.397   4.849  10.943 -0.9834 -0.2900  1.9061
 3496TIP3    H231980   1.440   4.811  11.083  0.8509  0.7690  1.6548
 3497TIP3   OH231981   1.140   2.478  17.153  0.2696  0.0915 -0.0792
 3497TIP3    H131982   1.055   2.494  17.111 -0.0299  0.2727  0.5918
 3497TIP3    H231983   1.184   2.416  17.094 -0.4967 -0.3483 -0.2036
 3498TIP3   OH231984   5.174   0.472  13.879  0.2244  0.1980  0.1147
 3498TIP3    H131985   5.084   0.443  13.893  0.5256 -0.0466  1.8016
 3498TIP3    H231986   5.166   0.565  13.858 -0.4364  0.1857  0.2752
 3499TIP3   OH231987   3.324   4.493  13.640  0.0556 -0.8971 -0.6653
 3499TIP3    H131988   3.311   4.567  13.700  1.8769 -1.8745  1.0532
 3499TIP3    H231989   3.372   4.531  13.566  0.8454 -0.3163  0.1308
 3500TIP3   OH231990   1.351   4.516   4.700  0.1426 -0.1353 -0.1583
 3500TIP3    H131991   1.324   4.452   4.635 -0.2186  0.8266 -0.9765
 3500TIP3    H231992   1.437   4.546   4.671 -0.3583  0.8718 -0.6619
 3501TIP3   OH231993   2.154   1.613   4.118 -0.3405 -0.0804  0.2125
 3501TIP3    H131994   2.069   1.606   4.161 -1.1197  0.5492 -1.1916
 3501TIP3    H231995   2.176   1.524   4.092 -0.6949 -0.1992  0.3218
 3502TIP3   OH231996   1.388   5.487  15.336  0.0507 -0.2366 -0.2820
 3502TIP3    H131997   1.404   5.578  15.363  0.0957 -0.8297  1.8858
 3502TIP3    H231998   1.294   5.484  15.318 -0.2286 -0.0425  1.0117
 3503TIP3   OH231999   3.835   1.868   6.418  0.4616  0.4362 -0.4379
 3503TIP3    H132000   3.900   1.923   6.375 -0.3656  2.2608  0.5555
 3503TIP3    H232001   3.768   1.852   6.351 -0.2281  2.2675 -0.2428
 3504TIP3   OH232002   0.805   4.381   3.019  0.0336  0.4101 -0.0771
 3504TIP3    H132003   0.829   4.289   3.025  0.6958  0.6429  1.1222
 3504TIP3    H232004   0.714   4.384   3.051  0.3867  0.3152  0.9610
 3505TIP3   OH232005   6.661   1.781  16.667  0.4728  0.0448 -0.3103
 3505TIP3    H132006   6.632   1.856  16.614 -0.7971 -1.1722 -1.4248
 3505TIP3    H232007   6.744   1.755  16.629 -0.9894 -1.5856 -2.6674
 3506TIP3   OH232008   5.945   4.825  11.855 -0.5186  0.2532 -0.2730
 3506TIP3    H132009   5.891   4.779  11.919 -1.8929  3.4186  1.0561
 3506TIP3    H232010   6.013   4.762  11.832 -2.9814 -2.8860  0.2629
 3507TIP3   OH232011   0.396   5.120   5.044  0.0346  0.1599 -0.2973
 3507TIP3    H132012   0.446   5.039   5.032 -0.9374 -0.5468  0.3181
 3507TIP3    H232013   0.326   5.097   5.105  0.8011  1.9300  1.3621
 3508TIP3   OH232014   2.804   1.088  10.592  0.5459  0.6128  0.5159
 3508TIP3    H132015   2.826   1.012  10.646  1.1132  1.1467  1.0490
 3508TIP3    H232016   2.821   1.059  10.502  0.6906  0.0867  0.7076
 3509TIP3   OH232017   0.759   0.661  14.826 -0.5704 -0.4751 -0.4587
 3509TIP3    H132018   0.681   0.617  14.793 -1.4037 -0.6193  1.5513
 3509TIP3    H232019   0.769   0.738  14.770 -2.5663 -0.1071 -0.3951
 3510TIP3   OH232020   6.028   4.969  13.599  0.5235  0.0369 -0.4571
 3510TIP3    H132021   5.991   4.935  13.681  0.7324 -0.2974 -0.5018
 3510TIP3    H232022   6.046   4.892  13.546  0.6970  0.2340 -0.6903
 3511TIP3   OH232023   3.302   2.828   4.862 -0.4316  0.2405  0.0928
 3511TIP3    H132024   3.382   2.829   4.915 -1.1091  0.5956  1.1437
 3511TIP3    H232025   3.324   2.881   4.786 -0.2927  2.1354  1.3729
 3512TIP3   OH232026   4.691   1.003  12.862 -0.0198 -0.1069 -0.1029
 3512TIP3    H132027   4.611   1.035  12.820 -0.5459 -1.1507  0.0759
 3512TIP3    H232028   4.753   1.075  12.853 -0.9333  0.6619 -0.3757
 3513TIP3   OH232029   5.378   1.022   5.107  0.4327 -0.0732  0.1026
 3513TIP3    H132030   5.426   1.089   5.155  0.4811  0.9266 -1.2828
 3513TIP3    H232031   5.299   1.008   5.159  0.4254  1.0551  0.4314
 3514TIP3   OH232032   0.156   4.840   2.153 -0.2483 -0.8379 -0.0740
 3514TIP3    H132033   0.203   4.809   2.231  0.3316  0.2552  0.0418
 3514TIP3    H232034   0.199   4.796   2.080 -0.0384 -1.0004  0.1446
 3515TIP3   OH232035   5.640   5.214   2.980  0.1887 -0.1550 -0.6279
 3515TIP3    H132036   5.653   5.172   2.895  1.4657 -1.3558  0.1384
 3515TIP3    H232037   5.728   5.228   3.014 -0.2650  1.4404 -0.0031
 3516TIP3   OH232038   6.071   5.008  14.700 -0.1241  0.1043 -0.0114
 3516TIP3    H132039   6.060   4.991  14.794  1.2002  0.2847  0.1965
 3516TIP3    H232040   5.999   5.067  14.678 -0.6808 -0.2520  0.7998
 3517TIP3   OH232041   0.421   5.132  13.057  0.7469  0.2155  0.5468
 3517TIP3    H132042   0.398   5.215  13.099 -1.9902 -1.2816  2.3338
 3517TIP3    H232043   0.489   5.095  13.112  1.4486  0.9164  0.1679
 3518TIP3   OH232044   4.098   4.285  11.264 -0.3920 -0.2263 -0.0168
 3518TIP3    H132045   4.086   4.326  11.179 -0.8534 -0.4109 -0.0455
 3518TIP3    H232046   4.174   4.329  11.302 -0.4014  0.1025 -0.3755
 3519TIP3   OH232047   5.847   5.208  15.771  0.0700 -0.6020 -0.2506
 3519TIP3    H132048   5.754   5.221  15.753 -0.1616 -0.4382  0.9528
 3519TIP3    H232049   5.888   5.205  15.685 -0.9888 -0.2405 -0.7889
 3520TIP3   OH232050   3.730   5.048  15.447  0.2019  0.1650  0.5540
 3520TIP3    H132051   3.819   5.079  15.465  1.3070 -2.9839  1.0376
 3520TIP3    H232052   3.712   4.984  15.515 -1.9079 -0.3493 -0.3950
 3521TIP3   OH232053   0.917   1.896  16.507 -0.0943  0.1363 -0.1255
 3521TIP3    H132054   0.836   1.851  16.484  0.1869 -0.0806 -0.7000
 3521TIP3    H232055   0.964   1.834  16.563 -0.5850  0.4963  0.7037
 3522TIP3   OH232056   4.328   2.906   2.594 -0.0982 -0.1541 -0.0427
 3522TIP3    H132057   4.296   2.816   2.596  1.3974 -0.7033  0.5035
 3522TIP3    H232058   4.251   2.959   2.618 -0.8234 -1.3307  0.3385
 3523TIP3   OH232059   0.504   4.883   0.406  0.2328  0.0810 -0.0491
 3523TIP3    H132060   0.477   4.936   0.331  0.8657  0.2993 -0.1333
 3523TIP3    H232061   0.494   4.793   0.376 -3.4042  0.0104  0.9901
 3524TIP3   OH232062   2.232   3.518   1.498 -0.0265 -0.3114 -0.1000
 3524TIP3    H132063   2.202   3.571   1.573 -2.1003 -1.6214  0.0607
 3524TIP3    H232064   2.217   3.574   1.422  0.5786  0.4228  0.3069
 3525TIP3   OH232065   5.392   5.491  15.649 -0.1643 -0.5986 -0.0580
 3525TIP3    H132066   5.389   5.455  15.561  0.1423  2.2400 -1.3072
 3525TIP3    H232067   5.455   5.562  15.645  0.2854 -0.7276  2.6251
 3526TIP3   OH232068   4.623   0.935   4.460  0.7438 -0.1855 -0.6747
 3526TIP3    H132069   4.606   1.014   4.513 -2.4177 -0.0445 -1.6890
 3526TIP3    H232070   4.570   0.867   4.501  1.3363 -1.1169 -1.4071
 3527TIP3   OH232071   1.884   3.725   5.451 -0.5615 -0.2426  0.6832
 3527TIP3    H132072   1.974   3.715   5.481 -0.1374 -0.1878 -0.4923
 3527TIP3    H232073   1.880   3.815   5.417 -1.0043 -0.3124  0.5393
 3528TIP3   OH232074   1.650   3.611  13.720  0.5991  0.9352 -0.5113
 3528TIP3    H132075   1.682   3.535  13.671 -1.0312  0.1448 -0.4246
 3528TIP3    H232076   1.554   3.605  13.712  0.4335  2.9874 -0.5040
 3529TIP3   OH232077   0.026   0.055  14.485 -0.4660 -0.5853 -0.6085
 3529TIP3    H132078   0.097   0.071  14.547 -0.5539  0.9968 -0.8967
 3529TIP3    H232079  -0.001  -0.035  14.504 -0.6903 -0.0823  1.8749
 3530TIP3   OH232080   5.371   0.076   5.630 -0.8721 -0.8169  0.1584
 3530TIP3    H132081   5.304   0.092   5.696 -1.4113  0.4282 -0.6521
 3530TIP3    H232082   5.429   0.012   5.670 -0.7841  0.4042  2.1177
 3531TIP3   OH232083   1.462   5.753  15.288  0.1898  0.1417 -0.1114
 3531TIP3    H132084   1.531   5.805  15.246  1.2553 -1.4638 -0.4198
 3531TIP3    H232085   1.385   5.767  15.234  1.2440 -0.9781 -2.0175
 3532TIP3   OH232086   5.081   2.009   2.695 -0.4943 -0.4578  0.0269
 3532TIP3    H132087   5.001   2.044   2.655 -2.0195 -1.0613  2.3567
 3532TIP3    H232088   5.084   1.918   2.667 -2.5060 -1.3732  2.4373
 3533TIP3   OH232089   6.466   2.096  16.137 -0.6198 -0.1405 -0.0299
 3533TIP3    H132090   6.515   2.112  16.056  1.0351  0.8487  1.1137
 3533TIP3    H232091   6.403   2.028  16.114  1.1509 -1.3330 -1.6334
 3534TIP3   OH232092   0.354   1.972   4.949  0.5151  0.3915  0.2000
 3534TIP3    H132093   0.288   2.041   4.950 -1.0700 -1.0499 -0.0042
 3534TIP3    H232094   0.431   2.011   4.991 -0.6495  1.9574  0.9633
 3535TIP3   OH232095   3.723   3.982   2.833  0.1524 -0.2779  0.0589
 3535TIP3    H132096   3.753   3.917   2.769 -0.6964  0.4272 -1.1066
 3535TIP3    H232097   3.803   4.008   2.880  0.7896 -0.8743 -0.6564
 3536TIP3   OH232098   1.911   5.358  10.510  0.0086 -0.3591 -0.1780
 3536TIP3    H132099   1.832   5.400  10.474 -0.7372  0.9361  2.6945
 3536TIP3    H232100   1.983   5.394  10.457 -1.1582 -0.2902 -1.7885
 3537TIP3   OH232101   2.104   6.584  12.762 -0.2039 -0.1823 -0.3932
 3537TIP3    H132102   2.021   6.542  12.739  0.4580 -1.6299 -0.2717
 3537TIP3    H232103   2.093   6.675  12.737 -1.8829 -0.3135 -0.2337
 3538TIP3   OH232104   1.902   5.447  12.324  0.5642 -0.5663  0.1621
 3538TIP3    H132105   1.970   5.501  12.283  0.5426  1.9653  3.1316
 3538TIP3    H232106   1.948   5.399  12.393 -0.1398 -1.4173  0.0566
 3539TIP3   OH232107   5.086   2.491   6.547  0.4402 -0.0614 -0.0300
 3539TIP3    H132108   5.160   2.446   6.506  0.1867  1.9499 -2.9901
 3539TIP3    H232109   5.011   2.435   6.528  0.5565  0.1237 -1.0940
 3540TIP3   OH232110   0.959   1.645   1.891  0.5906 -0.0805 -0.1211
 3540TIP3    H132111   0.864   1.638   1.896  0.4308  2.3352  2.1249
 3540TIP3    H232112   0.976   1.731   1.853  1.8582 -0.0761  0.3766
 3541TIP3   OH232113   4.266   2.125   3.950  0.3088  0.1532  0.1407
 3541TIP3    H132114   4.219   2.166   3.877  0.8344  0.1124 -0.2251
 3541TIP3    H232115   4.203   2.063   3.987  0.0867  0.0539 -0.3845
 3542TIP3   OH232116   5.433   3.419   2.131  0.0158 -0.3676 -0.1773
 3542TIP3    H132117   5.459   3.327   2.127 -0.5469 -0.5175 -0.4994
 3542TIP3    H232118   5.440   3.442   2.223  0.1606 -0.7315 -0.0949
 3543TIP3   OH232119   2.138   3.313   3.591 -0.3636  0.0444  0.8490
 3543TIP3    H132120   2.219   3.270   3.618  0.8027  1.2552 -0.5153
 3543TIP3    H232121   2.167   3.389   3.540 -2.3670  0.3508  0.0550
 3544TIP3   OH232122   6.639   3.092   4.192  0.1408  0.1107 -0.0143
 3544TIP3    H132123   6.587   3.098   4.112  0.2569  1.3556 -0.0043
 3544TIP3    H232124   6.599   3.021   4.242  0.8807 -1.6214 -1.7574
 3545TIP3   OH232125   5.171   1.837  16.817  0.4245  0.3435 -1.0019
 3545TIP3    H132126   5.111   1.773  16.778  0.4367  0.8384 -1.8626
 3545TIP3    H232127   5.117   1.915  16.829 -0.2901 -0.4689  2.3265
 3546TIP3   OH232128   5.265   1.098   5.706 -0.0040 -0.4574 -0.0591
 3546TIP3    H132129   5.344   1.111   5.655 -0.1972 -0.6264 -0.4023
 3546TIP3    H232130   5.296   1.060   5.789  0.3669  0.3833  0.2011
 3547TIP3   OH232131   5.722   1.707   5.133  0.0127  0.6821  0.1493
 3547TIP3    H132132   5.635   1.676   5.158  0.1093 -0.7249 -1.1142
 3547TIP3    H232133   5.711   1.743   5.045  0.2165  3.0236  0.9968
 3548TIP3   OH232134   5.453   4.362  14.342 -0.2446  0.4387 -0.0090
 3548TIP3    H132135   5.438   4.386  14.251 -1.0901 -0.0811 -0.0210
 3548TIP3    H232136   5.446   4.444  14.391  0.0821  0.6983 -0.3911
 3549TIP3   OH232137   0.043   0.930   2.329 -0.4377  0.3085 -0.1718
 3549TIP3    H132138   0.131   0.944   2.364 -0.5208  0.3054  0.0384
 3549TIP3    H232139   0.057   0.878   2.249 -0.2877 -0.1254  0.1353
 3550TIP3   OH232140   5.029   1.032   5.073 -0.3121 -0.1160 -0.0390
 3550TIP3    H132141   5.049   1.021   4.980  1.8188  1.2981  0.1997
 3550TIP3    H232142   5.067   1.116   5.096 -0.2720 -0.7100  2.2740
 3551TIP3   OH232143   4.441   1.438  16.269  0.3880  0.2920  0.0570
 3551TIP3    H132144   4.400   1.507  16.321  0.0794  1.4369 -1.6158
 3551TIP3    H232145   4.369   1.381  16.243  0.5704 -0.3900  1.0278
 3552TIP3   OH232146   1.518   5.664  15.597 -0.6313 -0.1961  0.2363
 3552TIP3    H132147   1.486   5.749  15.627 -1.0376 -0.1179 -0.3876
 3552TIP3    H232148   1.520   5.672  15.501 -0.0905 -0.6828  0.2026
 3553TIP3   OH232149   1.442   0.038   4.735  0.3540  0.1960 -0.1018
 3553TIP3    H132150   1.492   0.103   4.686  0.9525  0.6673  1.1001
 3553TIP3    H232151   1.371   0.088   4.775 -0.6995 -0.3476 -1.2170
 3554TIP3   OH232152   6.786   0.176   5.816 -0.1661 -0.0651 -0.4656
 3554TIP3    H132153   6.780   0.081   5.804 -2.5749  0.1841 -1.9784
 3554TIP3    H232154   6.816   0.209   5.731  0.3412  0.5419 -0.0550
 3555TIP3   OH232155   6.520   0.749  15.347  0.2496  0.4680  0.4013
 3555TIP3    H132156   6.555   0.662  15.326 -0.3801 -0.0457  1.4057
 3555TIP3    H232157   6.596   0.798  15.377  0.5278  0.1124  0.2894
 3556TIP3   OH232158   5.407   6.475  16.604 -0.3468 -0.2457  0.2092
 3556TIP3    H132159   5.339   6.537  16.628 -1.5591 -1.7515  0.7954
 3556TIP3    H232160   5.362   6.390  16.599  1.3672 -1.1911  0.0497
 3557TIP3   OH232161   6.492   3.396   4.390  0.1228  0.0856 -0.3902
 3557TIP3    H132162   6.459   3.479   4.426  0.7822 -0.0877  0.6877
 3557TIP3    H232163   6.567   3.421   4.336  2.2708  0.0651  2.3290
 3558TIP3   OH232164   4.856   0.631  12.455  0.1187  0.0916  0.5744
 3558TIP3    H132165   4.769   0.670  12.465 -0.3564 -0.9756  0.7681
 3558TIP3    H232166   4.907   0.664  12.529  0.6876  2.7272 -0.8683
 3559TIP3   OH232167   2.089   5.496   5.457 -0.0754 -0.5709 -0.0602
 3559TIP3    H132168   2.036   5.575   5.471 -1.8902 -1.8921  0.9492
 3559TIP3    H232169   2.026   5.424   5.461  1.5566 -2.0968 -0.7656
 3560TIP3   OH232170   1.531   4.139   2.905 -0.4516  0.3236 -0.4400
 3560TIP3    H132171   1.456   4.081   2.892 -0.4289  0.6506 -2.2461
 3560TIP3    H232172   1.558   4.123   2.995 -1.9534 -0.6712 -0.1332
 3561TIP3   OH232173   6.517   6.756  12.333  0.1377 -0.0572 -0.0714
 3561TIP3    H132174   6.424   6.766  12.314 -0.2313  0.1712  1.6564
 3561TIP3    H232175   6.522   6.678  12.389  0.8752  0.3722  0.4794
 3562TIP3   OH232176   3.578   3.547   2.377 -0.1412  0.4400  0.0391
 3562TIP3    H132177   3.670   3.557   2.401 -0.2128 -0.0216  0.5278
 3562TIP3    H232178   3.533   3.535   2.461 -0.7154  1.1799 -0.1560
 3563TIP3   OH232179   3.827   5.230  16.206  0.1495  0.2526 -0.2782
 3563TIP3    H132180   3.865   5.215  16.293 -0.7768  1.7272  0.4264
 3563TIP3    H232181   3.805   5.323  16.206 -5.2193 -0.6750  0.1995
 3564TIP3   OH232182   3.804   2.171   0.251 -0.1901 -0.5449  0.3378
 3564TIP3    H132183   3.768   2.239   0.308 -0.7629 -0.2653 -0.3354
 3564TIP3    H232184   3.888   2.149   0.290 -0.0561  0.4573  0.6455
 3565TIP3   OH232185   0.735   1.819  16.335  0.4354  0.4842 -0.4669
 3565TIP3    H132186   0.733   1.910  16.365  2.9992  0.7188 -0.7680
 3565TIP3    H232187   0.648   1.784  16.356 -0.2722  2.7014  0.5450
 3566TIP3   OH232188   1.598   5.306   1.487 -0.4534  0.2215 -0.2557
 3566TIP3    H132189   1.615   5.396   1.517  0.7822 -0.8094  2.4696
 3566TIP3    H232190   1.639   5.302   1.401  1.2168  1.7539  0.3947
 3567TIP3   OH232191   3.198   1.033  11.910  0.5410  0.8143  0.2615
 3567TIP3    H132192   3.187   1.110  11.966 -0.5331  0.4587  0.5591
 3567TIP3    H232193   3.268   0.983  11.952  0.6926  1.2271  0.5128
 3568TIP3   OH232194   0.981   2.378  13.728 -0.1166 -0.4584 -0.5203
 3568TIP3    H132195   0.907   2.409  13.780 -0.2646  0.0697 -1.0241
 3568TIP3    H232196   1.047   2.447  13.737  0.4953 -1.1288  0.2744
 3569TIP3   OH232197   0.918   0.524   1.927 -0.4423  0.3681 -0.1502
 3569TIP3    H132198   0.876   0.548   2.010 -1.2795  0.2011 -0.5174
 3569TIP3    H232199   0.856   0.552   1.860  1.1821  2.4923 -0.8556
 3570TIP3   OH232200   2.865   0.851  13.532  0.1000 -0.1707  0.2035
 3570TIP3    H132201   2.926   0.919  13.503 -0.2585  0.9876  2.0055
 3570TIP3    H232202   2.919   0.772  13.538  0.4190 -0.2455 -2.3967
 3571TIP3   OH232203   4.789   5.818   0.415 -0.1257  0.3133 -0.3809
 3571TIP3    H132204   4.744   5.736   0.437 -0.5688  0.8227  0.6879
 3571TIP3    H232205   4.746   5.847   0.334 -3.1315  1.7315  1.5384
 3572TIP3   OH232206   5.624   5.206   1.886 -0.3840 -0.5459  0.1988
 3572TIP3    H132207   5.653   5.229   1.798  0.4816 -1.7490  0.1506
 3572TIP3    H232208   5.704   5.180   1.932 -0.7565  0.4563  1.4826
 3573TIP3   OH232209   2.704   5.356  15.636  0.0769  0.0694  0.0738
 3573TIP3    H132210   2.634   5.348  15.571  0.6003 -1.2601 -0.3541
 3573TIP3    H232211   2.784   5.357  15.584  0.4282  0.5123  0.6207
 3574TIP3   OH232212   6.559   0.917   1.721 -0.2851 -0.2066 -0.0109
 3574TIP3    H132213   6.616   0.863   1.667 -0.0036 -1.4883  1.4770
 3574TIP3    H232214   6.510   0.854   1.774  0.8625  0.9551  2.6071
 3575TIP3   OH232215   1.984   5.794  11.131  0.1471  0.0356  0.2759
 3575TIP3    H132216   1.966   5.844  11.210  0.9634  0.3635  0.2677
 3575TIP3    H232217   1.938   5.842  11.061  0.4562  0.4533  0.3577
 3576TIP3   OH232218   5.317   5.740   6.076 -0.3545 -0.4667  0.2642
 3576TIP3    H132219   5.352   5.813   6.126  1.1129  1.6617 -3.4767
 3576TIP3    H232220   5.236   5.774   6.037 -0.2868 -1.2445 -0.5935
 3577TIP3   OH232221   0.122   5.380   2.014 -0.2652  0.4536 -0.0570
 3577TIP3    H132222   0.176   5.388   1.935  0.8099  3.2784  0.8164
 3577TIP3    H232223   0.112   5.286   2.026  2.5566 -0.1878 -1.5853
 3578TIP3   OH232224   6.629   3.758   2.472  0.5316  0.5612 -0.7802
 3578TIP3    H132225   6.593   3.673   2.447 -0.2706  0.5350  0.3681
 3578TIP3    H232226   6.565   3.822   2.442  0.5500  0.6717 -0.5913
 3579TIP3   OH232227   3.390   6.437   0.416 -0.2797 -0.5959 -0.2364
 3579TIP3    H132228   3.440   6.497   0.360  1.2731 -0.9199  0.7326
 3579TIP3    H232229   3.427   6.351   0.395 -0.9744 -0.9420 -0.0404
 3580TIP3   OH232230   0.884   0.584  12.378 -0.2914 -0.1680 -0.2354
 3580TIP3    H132231   0.889   0.566  12.471 -2.2891 -1.5857 -0.3299
 3580TIP3    H232232   0.825   0.659  12.370  1.0951  0.9716 -0.3373
 3581TIP3   OH232233   3.109   5.144  15.940  0.7179 -0.0917  0.1823
 3581TIP3    H132234   3.022   5.110  15.920  0.6025 -0.6685  1.5971
 3581TIP3    H232235   3.109   5.233  15.905 -1.0408  0.5317  1.6479
 3582TIP3   OH232236   5.424   0.086  16.218 -0.1349  0.1991  0.0563
 3582TIP3    H132237   5.376   0.108  16.138 -0.9260  0.1506  0.5120
 3582TIP3    H232238   5.357   0.068  16.283  0.3622 -3.4223 -0.1800
 3583TIP3   OH232239   4.909   3.457  14.149  0.3958  0.5389 -0.5956
 3583TIP3    H132240   4.929   3.397  14.221  2.3649  0.8860 -0.7803
 3583TIP3    H232241   4.884   3.399  14.077  0.5829  0.0464 -0.2761
 3584TIP3   OH232242   0.928   3.669   2.234  0.6797 -0.0626  0.3487
 3584TIP3    H132243   0.990   3.728   2.276  2.8915 -0.2675 -2.3298
 3584TIP3    H232244   0.865   3.726   2.191  2.2915  0.4470 -1.4839
 3585TIP3   OH232245   4.953   2.486  15.979 -0.0004 -0.1619  0.5278
 3585TIP3    H132246   4.929   2.393  15.975  0.2864 -0.1964 -0.5118
 3585TIP3    H232247   4.870   2.533  15.977 -0.3936 -0.4016  3.9714
 3586TIP3   OH232248   0.374   5.729   3.427  0.3366 -0.5234 -0.1436
 3586TIP3    H132249   0.460   5.769   3.437  0.0339 -0.1821  1.3371
 3586TIP3    H232250   0.367   5.711   3.333  1.4164  0.7616 -0.5015
 3587TIP3   OH232251   6.152   0.794   3.112 -0.1281  0.2718 -0.1578
 3587TIP3    H132252   6.160   0.719   3.053 -1.3365 -0.5101  0.6161
 3587TIP3    H232253   6.217   0.778   3.180 -0.5782 -0.2405  0.1601
 3588TIP3   OH232254   3.645   2.807   2.704 -0.1857  0.1875 -0.3762
 3588TIP3    H132255   3.572   2.776   2.650 -1.2128  1.8574 -0.0321
 3588TIP3    H232256   3.603   2.842   2.783  1.1560 -0.5370  0.6991
 3589TIP3   OH232257   6.107   5.004  11.577  0.6114  0.6198  0.3839
 3589TIP3    H132258   6.095   4.960  11.661 -0.0669 -3.8630 -1.7642
 3589TIP3    H232259   6.184   5.059  11.590 -0.8106  1.9836  4.4772
 3590TIP3   OH232260   6.501   0.583   3.173  0.1447 -0.1035  0.3241
 3590TIP3    H132261   6.427   0.610   3.226 -1.0637 -0.9999 -0.8361
 3590TIP3    H232262   6.573   0.572   3.235 -1.2696 -1.3718  1.8324
 3591TIP3   OH232263   4.536   6.065  12.222 -0.6036  0.0961  0.4993
 3591TIP3    H132264   4.561   6.158  12.230  0.8433 -0.2126 -0.1618
 3591TIP3    H232265   4.500   6.043  12.308  0.1493  0.9679  1.0596
 3592TIP3   OH232266   2.044   4.502  11.959 -0.1313  0.5427 -0.1236
 3592TIP3    H132267   1.969   4.468  12.008 -0.0680 -0.9165 -1.0022
 3592TIP3    H232268   2.008   4.527  11.874 -0.2732  3.2299  0.6035
 3593TIP3   OH232269   0.666   5.093  11.276 -0.5010 -0.0902  0.3114
 3593TIP3    H132270   0.656   5.181  11.242 -3.8340 -0.6145 -0.4930
 3593TIP3    H232271   0.632   5.098  11.366 -3.0491 -0.9038 -0.5260
 3594TIP3   OH232272   6.704   0.427   1.366  0.1678  0.2949 -0.1468
 3594TIP3    H132273   6.789   0.461   1.337  1.1070 -0.5006  1.5387
 3594TIP3    H232274   6.726   0.349   1.416 -1.5667  0.1886  0.5004
 3595TIP3   OH232275   1.104   4.405  11.470 -0.3234 -0.3524 -0.0698
 3595TIP3    H132276   1.018   4.436  11.442 -0.6172  0.8881  1.9961
 3595TIP3    H232277   1.158   4.409  11.392 -1.3887  1.7233 -0.7645
 3596TIP3   OH232278   3.119   5.014   5.268  0.5287 -0.0458  0.1194
 3596TIP3    H132279   3.159   5.091   5.308  0.9765 -1.0376  1.6392
 3596TIP3    H232280   3.041   4.997   5.321 -0.1275 -0.0577 -0.8251
 3597TIP3   OH232281   1.527   1.672   6.004  0.4175 -0.5862  0.5756
 3597TIP3    H132282   1.499   1.762   5.990  0.0777 -0.4095  2.2072
 3597TIP3    H232283   1.548   1.639   5.916 -1.4097  0.4332 -0.3017
 3598TIP3   OH232284   0.522   3.758   2.524  0.0263  0.5657 -0.0315
 3598TIP3    H132285   0.492   3.818   2.593 -0.9068 -0.8691  0.8684
 3598TIP3    H232286   0.442   3.718   2.491  0.5895  0.1806 -0.9575
 3599TIP3   OH232287   0.232   4.158   1.887  0.0524  0.1530 -0.4800
 3599TIP3    H132288   0.157   4.098   1.883  0.0991  0.0722 -0.1670
 3599TIP3    H232289   0.233   4.201   1.801 -0.6462  0.5054 -0.3252
 3600TIP3   OH232290   1.618   5.685   5.071 -0.1330 -0.3451  0.2500
 3600TIP3    H132291   1.541   5.627   5.067  0.3208 -0.9296 -0.2859
 3600TIP3    H232292   1.600   5.752   5.006  0.5620 -1.4571 -1.1490
 3601TIP3   OH232293   3.702   2.846  16.238  0.3156  0.1667  0.6042
 3601TIP3    H132294   3.648   2.769  16.256 -1.0988  0.9064 -0.2929
 3601TIP3    H232295   3.691   2.902  16.315 -1.3808  0.9355 -0.1494
 3602TIP3   OH232296   2.124   0.363  10.854  0.2386  0.3152  0.3314
 3602TIP3    H132297   2.063   0.420  10.806 -0.4137  0.0922  0.8821
 3602TIP3    H232298   2.204   0.415  10.862  0.0503  0.6979 -0.2120
 3603TIP3   OH232299   0.837   5.369   4.693 -0.2901 -0.9274  0.3905
 3603TIP3    H132300   0.928   5.343   4.681  0.8975  2.6170  0.7076
 3603TIP3    H232301   0.792   5.331   4.617  1.9008 -0.8794 -1.0307
 3604TIP3   OH232302   4.015   0.529  15.816 -0.0971  0.2809  0.2099
 3604TIP3    H132303   4.026   0.603  15.757  1.4288 -0.1017 -0.0202
 3604TIP3    H232304   3.962   0.467  15.765 -0.8979  0.9673  0.1919
 3605TIP3   OH232305   5.539   0.969  15.061 -0.4527 -0.2010 -0.6660
 3605TIP3    H132306   5.548   1.064  15.051 -1.8619 -0.0198 -0.4882
 3605TIP3    H232307   5.595   0.947  15.135 -0.5159  0.5814 -0.3734
 3606TIP3   OH232308   3.830   2.491  11.384  0.0997 -0.0162  0.3218
 3606TIP3    H132309   3.763   2.487  11.316 -0.2227 -1.2635  0.6893
 3606TIP3    H232310   3.911   2.467  11.340 -0.3594 -2.3829  0.6503
 3607TIP3   OH232311   1.489   2.914   4.637  0.1724  0.0126  0.1282
 3607TIP3    H132312   1.572   2.875   4.663 -0.0138 -0.4847  0.0040
 3607TIP3    H232313   1.473   2.983   4.701  0.6110  0.0171  0.2322
 3608TIP3   OH232314   1.170   5.601  13.832  0.1585 -0.1332  0.4078
 3608TIP3    H132315   1.203   5.511  13.823  0.4248  0.2096 -4.2095
 3608TIP3    H232316   1.076   5.591  13.842 -0.1078 -1.0315 -2.2464
 3609TIP3   OH232317   4.639   3.128   5.405  0.1803  0.0566 -0.0259
 3609TIP3    H132318   4.607   3.154   5.319 -0.3892 -1.5985 -0.3343
 3609TIP3    H232319   4.730   3.160   5.408 -0.7889  3.1439  0.1280
 3610TIP3   OH232320   0.801   6.656   1.621  0.3048 -0.1278  0.5324
 3610TIP3    H132321   0.711   6.627   1.604 -1.0797  1.6054  3.9101
 3610TIP3    H232322   0.809   6.738   1.573 -0.7234  0.7587  1.8077
 3611TIP3   OH232323   4.987   5.541  16.260 -0.0005  0.5193 -0.3687
 3611TIP3    H132324   4.922   5.470  16.266  0.2017  0.3733  0.1309
 3611TIP3    H232325   5.030   5.526  16.176  1.1349 -0.9115  0.4184
 3612TIP3   OH232326   2.368   2.282  12.560  0.0706 -0.5202  0.1545
 3612TIP3    H132327   2.386   2.369  12.524 -0.1933 -1.2089 -1.7677
 3612TIP3    H232328   2.324   2.299  12.643 -0.3411  1.1911 -0.3743
 3613TIP3   OH232329   4.735   2.197   5.254 -0.3389 -0.2090  0.1497
 3613TIP3    H132330   4.700   2.267   5.308 -2.3357 -1.1440  0.1338
 3613TIP3    H232331   4.679   2.196   5.176  2.2369  0.8872 -1.8819
 3614TIP3   OH232332   0.132   3.491   4.129 -0.1204 -0.2346  0.0425
 3614TIP3    H132333   0.113   3.580   4.157  1.3870  0.1447 -0.0534
 3614TIP3    H232334   0.057   3.439   4.161  0.1894  0.6213  2.3793
 3615TIP3   OH232335   0.578   0.928   1.038  0.1152 -0.5893  0.6189
 3615TIP3    H132336   0.672   0.923   1.057 -0.0361 -0.0148  1.6073
 3615TIP3    H232337   0.573   0.947   0.944  0.9803 -0.7851  0.5276
 3616TIP3   OH232338   6.163   6.549   2.319 -0.3024 -0.1212  0.5381
 3616TIP3    H132339   6.231   6.609   2.351 -1.1270  0.8982  0.4286
 3616TIP3    H232340   6.193   6.463   2.346  1.3641  0.2277 -0.0778
 3617TIP3   OH232341   0.300   1.483  12.909  0.2114 -0.3229  0.6263
 3617TIP3    H132342   0.220   1.440  12.877  0.4874 -2.3146  2.4362
 3617TIP3    H232343   0.269   1.564  12.950 -0.5994  0.0195 -0.5970
 3618TIP3   OH232344   3.829   5.570   2.917  0.2078 -0.1312  0.0810
 3618TIP3    H132345   3.745   5.565   2.871  0.4005  0.4386 -0.3403
 3618TIP3    H232346   3.829   5.493   2.974  0.5752 -1.6866 -1.9120
 3619TIP3   OH232347   1.091   4.814   0.111  0.5194  0.0125 -0.1093
 3619TIP3    H132348   1.007   4.794   0.152  1.4262 -1.6094  1.0972
 3619TIP3    H232349   1.088   4.908   0.094 -1.3819  0.0531  0.2175
 3620TIP3   OH232350   2.458   3.806   4.050  0.1840 -0.0667  0.6161
 3620TIP3    H132351   2.371   3.768   4.062 -0.3075  0.3280 -1.3217
 3620TIP3    H232352   2.443   3.900   4.045  0.4264 -0.0817 -1.4891
 3621TIP3   OH232353   5.527   5.761   1.463  0.0855 -0.1908  0.1514
 3621TIP3    H132354   5.467   5.813   1.409  0.9095  0.0120 -0.5822
 3621TIP3    H232355   5.614   5.784   1.431  0.4545 -2.6143 -0.7560
 3622TIP3   OH232356   1.169   0.377   3.194  0.0910  0.3414 -0.2962
 3622TIP3    H132357   1.216   0.304   3.234 -1.9686 -2.0196 -1.9405
 3622TIP3    H232358   1.235   0.447   3.190  2.5636 -1.7864  0.1768
 3623TIP3   OH232359   2.979   1.161  14.074 -0.0852 -0.9800 -0.0488
 3623TIP3    H132360   3.059   1.138  14.026 -0.0938  0.0969 -0.6256
 3623TIP3    H232361   3.007   1.171  14.165  0.7442  0.6349 -0.4364
 3624TIP3   OH232362   5.112   6.360  12.111  0.0422 -0.0938  0.4512
 3624TIP3    H132363   5.118   6.322  12.024 -2.6986 -0.4158  0.3240
 3624TIP3    H232364   5.103   6.454  12.095  0.6760 -0.0248  0.4678
 3625TIP3   OH232365   3.848   2.708   5.984  0.1133 -0.0595 -0.1196
 3625TIP3    H132366   3.783   2.666   6.041 -0.4603  2.1215  0.9756
 3625TIP3    H232367   3.876   2.640   5.925 -0.5230 -2.0317  1.7202
 3626TIP3   OH232368   2.492   5.256   5.363  0.4391 -0.5170 -0.5538
 3626TIP3    H132369   2.422   5.194   5.384 -0.3067  0.8352  1.1961
 3626TIP3    H232370   2.547   5.257   5.441  1.7492 -0.6333 -1.4419
 3627TIP3   OH232371   1.909   5.972  14.109 -0.2139  0.0476  0.2770
 3627TIP3    H132372   1.936   5.972  14.201  0.2286  1.5437  0.1747
 3627TIP3    H232373   1.824   6.015  14.110 -0.4743 -0.4634  0.0520
 3628TIP3   OH232374   4.101   2.825  11.237  0.4457  0.1404  0.3320
 3628TIP3    H132375   4.124   2.873  11.157  0.0481  1.4830  0.9928
 3628TIP3    H232376   4.173   2.842  11.297  2.2578 -3.2770 -0.6215
 3629TIP3   OH232377   5.984   6.003  16.725 -0.0399  0.0579 -0.3327
 3629TIP3    H132378   5.944   5.993  16.811 -0.3339 -0.2716 -0.5091
 3629TIP3    H232379   5.980   5.916  16.686  0.7987  0.0284 -0.3735
 3630TIP3   OH232380   1.619   1.708  13.502 -0.0855 -0.1164  0.7444
 3630TIP3    H132381   1.533   1.667  13.514  0.1293 -1.1652 -0.9468
 3630TIP3    H232382   1.609   1.762  13.424  0.8888 -0.6196  0.2460
 3631TIP3   OH232383   2.890   4.257   3.942  0.5997  0.8078 -0.2117
 3631TIP3    H132384   2.886   4.346   3.907 -1.4515  0.8939  0.1165
 3631TIP3    H232385   2.850   4.203   3.874 -2.7012  0.8710  1.4719
 3632TIP3   OH232386   0.981   3.255  16.122  0.1402 -0.0823  0.4353
 3632TIP3    H132387   0.966   3.162  16.109  2.0138 -0.4118  0.3284
 3632TIP3    H232388   1.014   3.262  16.211  1.3737  0.2596 -0.0197
 3633TIP3   OH232389   4.241   2.910   5.899 -0.4736  0.3304 -0.0654
 3633TIP3    H132390   4.177   2.868   5.842  1.2609 -1.2662 -0.9428
 3633TIP3    H232391   4.279   2.979   5.844 -1.5785  1.4552  0.5433
 3634TIP3   OH232392   6.067   5.875   1.883 -0.1030  0.0359  0.0981
 3634TIP3    H132393   6.028   5.798   1.924  0.5501  0.7427  2.1301
 3634TIP3    H232394   6.141   5.898   1.939  1.6658  0.3216 -2.1839
 3635TIP3   OH232395   0.389   3.360  12.133 -0.0778 -0.7095 -0.1493
 3635TIP3    H132396   0.380   3.305  12.055 -0.5998 -0.3110 -0.3739
 3635TIP3    H232397   0.318   3.424  12.126 -1.9056 -2.3184  2.0395
 3636TIP3   OH232398   3.338   2.972  16.181  0.3848  0.0133 -0.2194
 3636TIP3    H132399   3.253   2.973  16.136  0.4708  0.8878 -0.3703
 3636TIP3    H232400   3.371   3.061  16.172  0.5524  0.1195  1.3008
 3637TIP3   OH232401   0.389   5.374  12.003  0.5151  0.4782 -0.0593
 3637TIP3    H132402   0.457   5.342  11.945  0.4172  0.0056  0.0880
 3637TIP3    H232403   0.311   5.382  11.948  0.9538  2.1395 -0.5196
 3638TIP3   OH232404   4.196   0.254  15.972  0.1515  0.1344  0.0067
 3638TIP3    H132405   4.161   0.244  15.884  0.6958 -1.0692 -0.0914
 3638TIP3    H232406   4.284   0.290  15.960  0.4288 -0.5295  0.0209
 3639TIP3   OH232407   2.276   0.711   0.427 -0.1281 -0.1536  0.2134
 3639TIP3    H132408   2.240   0.771   0.362 -1.2403 -0.7305  0.2653
 3639TIP3    H232409   2.365   0.742   0.443 -0.0924  0.4285 -1.0406
 3640TIP3   OH232410   4.593   3.160  14.415 -0.1201  0.0478 -0.1378
 3640TIP3    H132411   4.578   3.088  14.353  0.7476 -0.4904  0.2490
 3640TIP3    H232412   4.658   3.124  14.477  0.9346  1.4319 -0.4034
 3641TIP3   OH232413   6.539   3.037  16.941  0.2066  0.2723  0.1488
 3641TIP3    H132414   6.633   3.023  16.951  0.6297  1.5404 -1.5664
 3641TIP3    H232415   6.512   3.078  17.023  1.0094 -0.7067  0.9148
 3642TIP3   OH232416   0.850   4.340   5.082  0.2093  0.0705 -0.0655
 3642TIP3    H132417   0.765   4.380   5.065  0.0897 -0.3576 -0.4772
 3642TIP3    H232418   0.848   4.257   5.035 -0.3695 -1.4633  2.4890
 3643TIP3   OH232419   2.848   5.819   5.050  0.5829  0.0163  0.4190
 3643TIP3    H132420   2.873   5.736   5.008  3.4068  1.9317 -2.1618
 3643TIP3    H232421   2.851   5.800   5.144 -1.9559 -3.4712  0.0121
 3644TIP3   OH232422   2.955   4.138  14.189 -0.4086  0.7034  0.2694
 3644TIP3    H132423   2.989   4.210  14.243  0.4899  1.2077 -0.9414
 3644TIP3    H232424   2.892   4.094  14.246 -2.1674  3.3635  0.5542
 3645TIP3   OH232425   0.646   4.252   2.084  0.3445 -0.0856  0.5411
 3645TIP3    H132426   0.632   4.329   2.029  0.2204  0.4501  1.3141
 3645TIP3    H232427   0.720   4.276   2.139 -0.0965 -0.2751  1.2244
 3646TIP3   OH232428   4.327   2.825  15.437 -0.5747 -0.0392 -0.6759
 3646TIP3    H132429   4.318   2.730  15.444 -1.5689 -0.0924 -2.2645
 3646TIP3    H232430   4.356   2.852  15.524 -0.2946 -1.7814 -0.1806
 3647TIP3   OH232431   5.428   6.542  16.991  0.0723  0.7225  0.0687
 3647TIP3    H132432   5.434   6.626  16.946  1.0229  1.5675  1.6753
 3647TIP3    H232433   5.361   6.555  17.058  0.7317  0.4480  0.8001
 3648TIP3   OH232434   6.560   6.055  12.428 -0.4754 -0.5686 -0.2761
 3648TIP3    H132435   6.468   6.033  12.444 -0.1895 -1.4698  0.2236
 3648TIP3    H232436   6.565   6.076  12.335 -1.9597  3.5278  0.3681
 3649TIP3   OH232437   0.977   3.972   1.729  0.3430  0.2843 -0.1513
 3649TIP3    H132438   0.925   3.987   1.808  0.0011  0.8744 -0.4868
 3649TIP3    H232439   0.916   3.931   1.668  1.0643 -1.9030  0.4925
 3650TIP3   OH232440   0.866   6.224   0.777  0.6046 -0.0485  0.4699
 3650TIP3    H132441   0.902   6.258   0.859  0.9396 -0.2503  0.4092
 3650TIP3    H232442   0.864   6.129   0.789 -2.4602  0.0387  1.5182
 3651TIP3   OH232443   0.012   1.491   5.613  0.4320 -0.5714 -0.2754
 3651TIP3    H132444   0.095   1.527   5.645  1.3603 -1.6025 -1.4161
 3651TIP3    H232445   0.034   1.402   5.587 -1.4533 -1.4941  1.0419
 3652TIP3   OH232446   6.178   1.171  16.795  0.2844 -0.2692  0.8344
 3652TIP3    H132447   6.227   1.205  16.719 -0.7143  1.8513  1.0597
 3652TIP3    H232448   6.086   1.182  16.771 -0.0544  0.8771  2.4920
 3653TIP3   OH232449   5.198   4.563   0.450  0.0670  0.4794 -0.0171
 3653TIP3    H132450   5.208   4.646   0.497  0.3130  0.3247  0.2026
 3653TIP3    H232451   5.226   4.583   0.361  0.3010  0.5870  0.0798
 3654TIP3   OH232452   4.575   0.840  11.372  0.3310  0.3511 -0.3458
 3654TIP3    H132453   4.644   0.809  11.314  1.7025  0.5078  1.1243
 3654TIP3    H232454   4.540   0.760  11.412 -1.6521  0.0914 -2.3795
 3655TIP3   OH232455   1.821   1.961  16.495  0.6669 -0.1705 -0.0563
 3655TIP3    H132456   1.834   2.046  16.538  1.0741 -0.8354  1.1861
 3655TIP3    H232457   1.897   1.951  16.438  0.9080  0.0613  0.2190
 3656TIP3   OH232458   0.248   0.708  11.403  0.0046 -0.2026  0.4348
 3656TIP3    H132459   0.178   0.719  11.339 -0.3288 -2.1442  0.4087
 3656TIP3    H232460   0.280   0.796  11.419 -0.9869  0.4960 -1.1904
 3657TIP3   OH232461   0.027   2.935   0.737  0.3590  0.2937 -0.1416
 3657TIP3    H132462   0.033   3.006   0.672  2.5482 -0.8375 -1.2649
 3657TIP3    H232463   0.079   2.966   0.811  1.8804 -0.3471 -0.8999
 3658TIP3   OH232464   3.907   5.112   0.962  0.0236  0.5117  0.6278
 3658TIP3    H132465   3.905   5.198   0.920  2.3205  0.0442 -0.5869
 3658TIP3    H232466   3.940   5.053   0.895 -1.3443 -1.3362  1.4896
 3659TIP3   OH232467   1.917   0.066  15.436 -0.2317 -0.1326  0.4582
 3659TIP3    H132468   1.917  -0.014  15.488 -0.2629  0.2415  1.0402
 3659TIP3    H232469   1.946   0.134  15.496 -2.3657  0.7194  0.6238
 3660TIP3   OH232470   5.574   0.059  12.598 -0.1152 -0.1173 -0.0282
 3660TIP3    H132471   5.610   0.121  12.661  0.6094 -0.9545  0.4028
 3660TIP3    H232472   5.626  -0.020  12.610 -0.6104 -0.6066 -1.0069
 3661TIP3   OH232473   3.371   0.066  12.799 -0.4171  0.5813 -0.2262
 3661TIP3    H132474   3.343  -0.002  12.860  1.4737  0.3594  0.4505
 3661TIP3    H232475   3.318   0.142  12.821 -0.5171  0.1798  0.9634
 3662TIP3   OH232476   0.025   5.939  15.249 -0.5751 -0.2199 -0.0375
 3662TIP3    H132477   0.052   5.971  15.163 -1.7378 -0.1056 -0.3842
 3662TIP3    H232478  -0.071   5.947  15.249 -0.8109 -2.3960  0.3810
 3663TIP3   OH232479   6.800   6.383  11.972  0.1129 -0.3131  0.5075
 3663TIP3    H132480   6.806   6.356  12.063  0.1181 -1.4576  0.1871
 3663TIP3    H232481   6.891   6.397  11.945  0.1921 -1.0579  0.3754
 3664TIP3   OH232482   0.606   6.305   0.553  0.0952 -0.1430 -0.2439
 3664TIP3    H132483   0.525   6.258   0.568  0.7138 -0.8932  0.9188
 3664TIP3    H232484   0.581   6.380   0.499 -1.0803 -1.2115 -1.2109
 3665TIP3   OH232485   2.800   2.955  13.383  0.0010 -0.0863  0.1976
 3665TIP3    H132486   2.747   2.954  13.463  0.0031  2.3142  0.3126
 3665TIP3    H232487   2.890   2.941  13.414 -0.1312 -0.3288  0.4730
 3666TIP3   OH232488   3.032   4.085   2.437 -0.2880  0.2606  0.0272
 3666TIP3    H132489   3.121   4.095   2.406 -1.0926  1.5040 -2.1015
 3666TIP3    H232490   3.005   4.173   2.464 -1.7117  0.5019 -1.9647
 3667TIP3   OH232491   2.006   1.962  10.223 -0.3730  0.9230 -0.1662
 3667TIP3    H132492   1.920   1.929  10.249 -1.3120  1.9551 -1.7591
 3667TIP3    H232493   2.066   1.889  10.237 -1.5516  0.1020  0.7310
 3668TIP3   OH232494   3.277   5.850   1.650 -0.7142 -0.4429  0.5765
 3668TIP3    H132495   3.202   5.809   1.694 -0.4755 -0.7398  0.7111
 3668TIP3    H232496   3.342   5.861   1.719 -0.2383 -1.1490  0.2555
 3669TIP3   OH232497   3.097   2.818   3.094  0.2839 -0.2890  0.3698
 3669TIP3    H132498   3.135   2.899   3.130  1.7266 -0.2782 -1.0830
 3669TIP3    H232499   3.006   2.820   3.123  0.5657  1.3165  1.2749
 3670TIP3   OH232500   4.131   3.744   2.812  0.0391 -0.4876 -0.2019
 3670TIP3    H132501   4.158   3.655   2.791 -0.7885 -1.6720  3.2047
 3670TIP3    H232502   4.040   3.750   2.783 -0.5348 -1.4761  1.3112
 3671TIP3   OH232503   6.457   5.122  12.645 -0.0107  0.0321 -0.6637
 3671TIP3    H132504   6.493   5.034  12.661  0.3828  0.1674 -0.7782
 3671TIP3    H232505   6.363   5.113  12.661  0.0193 -0.4211 -0.7201
 3672TIP3   OH232506   3.819   6.238   3.456 -0.2171 -0.2819  0.0246
 3672TIP3    H132507   3.818   6.155   3.408  1.1786  0.1038 -0.7258
 3672TIP3    H232508   3.882   6.292   3.409  1.2214  0.1245  2.2910
 3673TIP3   OH232509   1.612   5.736   3.112 -0.3062 -0.2101  0.7235
 3673TIP3    H132510   1.618   5.642   3.129 -1.2050 -0.1361  1.5563
 3673TIP3    H232511   1.694   5.758   3.067 -0.2257 -1.4426  0.2400
 3674TIP3   OH232512   1.249   3.962   4.262 -0.0884 -0.1945 -0.1805
 3674TIP3    H132513   1.180   3.911   4.303 -0.5368  0.5490  0.0187
 3674TIP3    H232514   1.317   3.899   4.242 -0.3783 -0.7766  0.5978
 3675TIP3   OH232515   5.473   6.520   5.107  0.2612  0.0157  0.1548
 3675TIP3    H132516   5.410   6.492   5.173  0.8998  2.0513  1.7509
 3675TIP3    H232517   5.547   6.459   5.117 -0.6327 -1.1868 -0.4012
 3676TIP3   OH232518   3.677   5.224  13.568 -0.7790 -0.1614 -0.0457
 3676TIP3    H132519   3.768   5.213  13.541 -0.5786  2.2175 -0.5665
 3676TIP3    H232520   3.637   5.139  13.552  1.6057 -1.6865  1.4289
 3677TIP3   OH232521   5.456   4.709  12.036  0.4082 -0.6809  0.0148
 3677TIP3    H132522   5.478   4.623  12.072 -0.5744 -1.0568 -0.2280
 3677TIP3    H232523   5.461   4.769  12.111  1.5524 -0.8509  0.0912
 3678TIP3   OH232524   3.513   0.621   0.047  0.0654 -0.3662  0.4261
 3678TIP3    H132525   3.498   0.563  -0.029 -2.6444 -1.6160  1.7480
 3678TIP3    H232526   3.587   0.582   0.093  0.6960 -0.5452 -0.7071
 3679TIP3   OH232527   4.720   1.715  12.626  0.5132 -0.1227 -0.0801
 3679TIP3    H132528   4.775   1.779  12.581 -0.6962  0.4913 -0.7143
 3679TIP3    H232529   4.631   1.738  12.601  0.0350 -1.8798 -0.0762
 3680TIP3   OH232530   2.558   4.912   2.340 -0.7403  0.5275 -0.1801
 3680TIP3    H132531   2.576   4.999   2.306 -1.0265  0.2934 -0.9654
 3680TIP3    H232532   2.467   4.894   2.315 -1.5042  0.9395  2.0646
 3681TIP3   OH232533   4.830   2.018   4.522 -0.4003 -0.0507  1.3152
 3681TIP3    H132534   4.910   1.974   4.495  0.2189  1.6901  0.0996
 3681TIP3    H232535   4.767   2.001   4.452  0.3673  2.2510 -0.0413
 3682TIP3   OH232536   4.708   3.205  15.129  0.0126  0.3292 -0.1527
 3682TIP3    H132537   4.704   3.212  15.225  3.0963 -1.5440  0.2530
 3682TIP3    H232538   4.617   3.207  15.101 -1.0733 -0.2033  2.9481
 3683TIP3   OH232539   0.068   3.033  14.921 -0.0529 -0.7103 -0.3111
 3683TIP3    H132540   0.110   3.071  14.844 -0.4262 -0.8503 -0.5898
 3683TIP3    H232541  -0.005   3.093  14.940  2.1967  1.4625  2.2280
 3684TIP3   OH232542   4.901   2.800   2.107 -0.0261  0.4501  0.1116
 3684TIP3    H132543   4.977   2.851   2.081  0.3544 -0.4439 -0.5862
 3684TIP3    H232544   4.826   2.854   2.082  0.3634  0.5514 -0.8918
 3685TIP3   OH232545   5.307   1.995  12.945  0.2885 -0.4111  0.2006
 3685TIP3    H132546   5.348   2.000  12.858  0.1308  0.8982  0.1806
 3685TIP3    H232547   5.214   2.006  12.928  0.3719  1.3743  0.6177
 3686TIP3   OH232548   6.139   4.461   2.829  0.0430  0.2040  0.1567
 3686TIP3    H132549   6.164   4.472   2.921  0.3758 -1.1960  0.2625
 3686TIP3    H232550   6.097   4.543   2.806 -1.9777 -0.1491  2.1956
 3687TIP3   OH232551   0.853   5.455  15.328  0.1144  0.0757  0.2417
 3687TIP3    H132552   0.803   5.452  15.410 -1.2838 -2.0907 -0.6095
 3687TIP3    H232553   0.787   5.451  15.259  1.3458 -0.9779 -0.9461
 3688TIP3   OH232554   6.537   5.606  16.502  0.1962 -0.4401  0.3287
 3688TIP3    H132555   6.614   5.552  16.517  0.3963  0.0654  1.1580
 3688TIP3    H232556   6.539   5.624  16.408  0.5452 -1.2324  0.1761
 3689TIP3   OH232557   6.553   2.268  11.963  0.0882  0.0261  0.3200
 3689TIP3    H132558   6.523   2.284  11.873  0.3376  1.2231  0.4321
 3689TIP3    H232559   6.620   2.200  11.954  1.2032  1.2106 -0.6057
 3690TIP3   OH232560   6.304   1.536  11.837  0.6577 -0.2803  0.3558
 3690TIP3    H132561   6.266   1.596  11.773  0.6774 -0.7411 -0.0901
 3690TIP3    H232562   6.252   1.457  11.831  2.0653 -1.1708 -0.7459
 3691TIP3   OH232563   2.119   1.455   5.574  0.0460  0.2920  0.2486
 3691TIP3    H132564   2.102   1.367   5.605  1.0335  0.1619  0.4525
 3691TIP3    H232565   2.137   1.445   5.480  1.0534  0.1550  0.4538
 3692TIP3   OH232566   2.886   0.056   4.027  0.4180  0.0579  0.0173
 3692TIP3    H132567   2.866   0.144   4.061  0.2122 -0.0396  0.1515
 3692TIP3    H232568   2.918   0.008   4.103  0.1168 -0.1118  0.0389
 3693TIP3   OH232569   4.030   0.838   2.070  0.8632 -0.1558 -0.2512
 3693TIP3    H132570   3.955   0.873   2.023  1.2726  1.6862  0.3463
 3693TIP3    H232571   4.005   0.842   2.162  1.1094 -1.0676 -0.1313
 3694TIP3   OH232572   1.868   0.215   5.847 -0.4170 -0.6644 -0.4043
 3694TIP3    H132573   1.889   0.269   5.924  0.8190 -0.4900 -0.8334
 3694TIP3    H232574   1.896   0.127   5.871  1.8571 -0.2580 -1.3295
 3695TIP3   OH232575   6.348   0.469   4.377 -0.0964  0.2234  0.0707
 3695TIP3    H132576   6.264   0.511   4.357 -1.0484 -1.0513  1.1525
 3695TIP3    H232577   6.358   0.480   4.472  1.2154  0.7672 -0.1160
 3696TIP3   OH232578   2.306   3.207   1.436  0.4383 -0.8961  0.9864
 3696TIP3    H132579   2.303   3.303   1.433 -0.8967 -0.9544 -0.9799
 3696TIP3    H232580   2.392   3.185   1.401 -0.4762 -0.4375 -1.7516
 3697TIP3   OH232581   0.502   6.513  16.946 -0.7229 -0.1300 -0.5707
 3697TIP3    H132582   0.409   6.509  16.921 -1.4888 -1.7463  2.1521
 3697TIP3    H232583   0.540   6.436  16.904 -1.3190 -1.1360  0.6776
 3698TIP3   OH232584   6.053   6.755   2.727 -0.4346 -0.7782  0.0494
 3698TIP3    H132585   5.958   6.745   2.735 -0.5503 -0.3976 -0.7169
 3698TIP3    H232586   6.065   6.789   2.638  0.4035 -0.6320  0.2187
 3699TIP3   OH232587   4.411   6.704   0.841 -0.1746 -0.0700  0.7143
 3699TIP3    H132588   4.327   6.712   0.796 -0.2064 -0.2743  0.7357
 3699TIP3    H232589   4.453   6.628   0.800  1.8111  2.3888 -2.2238
 3700TIP3   OH232590   5.255   4.320  12.531  0.1818  0.5377  0.3008
 3700TIP3    H132591   5.216   4.405  12.553  0.8933  1.1767 -0.8258
 3700TIP3    H232592   5.322   4.307  12.598  0.8115  1.4025 -0.1341
 3701TIP3   OH232593   4.463   2.544  15.110  0.6524  0.2386 -0.2319
 3701TIP3    H132594   4.476   2.548  15.015  0.6521 -0.6772 -0.2852
 3701TIP3    H232595   4.371   2.521  15.120  0.2491  1.8871  0.0362
 3702TIP3   OH232596   4.037   4.586   3.852  0.2416  0.0441 -0.1864
 3702TIP3    H132597   4.007   4.506   3.896  2.8258 -0.9705 -0.0805
 3702TIP3    H232598   3.984   4.656   3.891 -0.5603 -1.3477  1.3541
 3703TIP3   OH232599   0.153   2.684   4.725 -0.6536  0.5344 -0.2925
 3703TIP3    H132600   0.221   2.659   4.662 -0.1786 -3.2052  1.4256
 3703TIP3    H232601   0.201   2.708   4.805 -1.3073  0.5474  0.1107
 3704TIP3   OH232602   5.642   0.616   1.626 -0.5159 -0.9563  0.3779
 3704TIP3    H132603   5.665   0.545   1.565 -0.4188 -0.6802  0.0870
 3704TIP3    H232604   5.549   0.633   1.608 -0.2206 -0.1340 -0.4825
 3705TIP3   OH232605   4.535   5.312  11.090  0.2982  0.3312  0.3792
 3705TIP3    H132606   4.608   5.312  11.028  1.7248 -0.5576  1.9847
 3705TIP3    H232607   4.457   5.304  11.035  1.4494  0.3878 -1.3320
 3706TIP3   OH232608   3.293   1.833   3.794 -0.3467 -0.4550 -0.5935
 3706TIP3    H132609   3.378   1.849   3.836 -0.3070 -1.0948 -0.4187
 3706TIP3    H232610   3.310   1.844   3.701 -0.2622  0.2199 -0.5083
 3707TIP3   OH232611   2.311   5.231  13.053 -0.0196 -0.0108  0.4426
 3707TIP3    H132612   2.291   5.304  12.994 -0.2536 -0.9307 -0.6640
 3707TIP3    H232613   2.257   5.246  13.130  1.1933  1.8766  0.9920
 3708TIP3   OH232614   2.789   3.495  12.793 -0.9042 -0.5025  0.2478
 3708TIP3    H132615   2.857   3.560  12.776 -1.7549  0.5314  0.7083
 3708TIP3    H232616   2.718   3.518  12.734 -1.5534 -0.4678  1.0274
 3709TIP3   OH232617   0.016   0.967   2.695 -0.0889  0.2089 -0.2877
 3709TIP3    H132618   0.031   0.987   2.602 -1.6818 -0.8293 -0.8105
 3709TIP3    H232619   0.080   0.898   2.714  1.3024  1.5042 -0.1555
 3710TIP3   OH232620   6.573   2.013   0.310 -0.0098 -0.3306 -0.0530
 3710TIP3    H132621   6.637   1.943   0.299 -0.1414 -0.7090  1.4129
 3710TIP3    H232622   6.617   2.078   0.364 -0.7672 -0.4972  0.7880
 3711TIP3   OH232623   3.089   5.770  15.056  0.0474 -1.1090  0.0487
 3711TIP3    H132624   3.182   5.758  15.036 -0.0371 -0.6928 -0.6492
 3711TIP3    H232625   3.050   5.684  15.042  0.0005 -0.8512 -1.6419
 3712TIP3   OH232626   4.838   1.411  11.279 -0.4338  0.0314  0.0889
 3712TIP3    H132627   4.832   1.355  11.202 -0.9287  0.2135 -0.0099
 3712TIP3    H232628   4.907   1.372  11.333 -0.0834 -0.0935 -0.4490
 3713TIP3   OH232629   3.779   2.869   1.179  0.4982  0.2534 -0.0312
 3713TIP3    H132630   3.688   2.898   1.188  0.2591 -0.0313 -1.3318
 3713TIP3    H232631   3.798   2.876   1.086  1.2971 -1.1844 -0.0205
 3714TIP3   OH232632   4.212   0.446   1.353 -0.1814 -0.1434  0.2529
 3714TIP3    H132633   4.129   0.451   1.304 -0.5638  1.0941  1.0103
 3714TIP3    H232634   4.188   0.467   1.443  0.7498 -1.1129  0.7484
 3715TIP3   OH232635   6.202   5.530   5.325 -0.4602  0.3624  0.2973
 3715TIP3    H132636   6.135   5.492   5.382 -1.7788  3.8511  1.3873
 3715TIP3    H232637   6.191   5.485   5.242 -0.8741 -2.4599  1.7475
 3716TIP3   OH232638   4.926   2.942   5.349  0.3146 -0.4193  0.3338
 3716TIP3    H132639   4.916   2.975   5.260  4.1556 -0.2693 -0.2018
 3716TIP3    H232640   4.923   3.021   5.404 -1.4938 -0.4627  0.3808
 3717TIP3   OH232641   2.597   5.765   0.041  0.4250  0.1089  0.0582
 3717TIP3    H132642   2.589   5.860   0.033 -0.1405  0.0284 -0.4005
 3717TIP3    H232643   2.623   5.751   0.132  0.0640  0.6728  0.2569
 3718TIP3   OH232644   4.717   6.357   0.266  0.2410  0.1183 -0.0776
 3718TIP3    H132645   4.748   6.442   0.233 -1.0683  0.5956 -0.1249
 3718TIP3    H232646   4.657   6.379   0.337 -1.5006 -0.6877 -1.2541
 3719TIP3   OH232647   1.277   3.012  16.482 -0.1764 -0.1238  0.0081
 3719TIP3    H132648   1.223   3.077  16.526  1.0407  1.5691 -0.8644
 3719TIP3    H232649   1.358   3.009  16.533  0.4454  0.3465 -0.9226
 3720TIP3   OH232650   5.698   2.621   2.196 -0.0688  0.1161 -0.0832
 3720TIP3    H132651   5.646   2.689   2.153  0.6046  0.7951  0.1474
 3720TIP3    H232652   5.638   2.579   2.257 -0.3582  0.8797  0.1721
 3721TIP3   OH232653   3.848   2.493  16.981 -0.4205  0.3341  0.1386
 3721TIP3    H132654   3.882   2.425  17.039 -1.5487 -0.4781 -0.1097
 3721TIP3    H232655   3.863   2.460  16.893  1.5726  1.7059 -0.0980
 3722TIP3   OH232656   4.425   4.297   4.679 -0.2386 -0.3972  0.4499
 3722TIP3    H132657   4.453   4.257   4.597  0.5790  0.0056  0.5282
 3722TIP3    H232658   4.389   4.224   4.730  0.3316 -0.8543  0.1996
 3723TIP3   OH232659   0.006   5.707   1.665 -0.3664 -0.0754  1.1227
 3723TIP3    H132660   0.059   5.700   1.745  0.4453  2.1699  0.8361
 3723TIP3    H232661  -0.015   5.800   1.658 -0.1712 -0.1656 -1.4478
 3724TIP3   OH232662   5.410   5.150   2.789 -0.3725  0.1232 -0.2481
 3724TIP3    H132663   5.500   5.118   2.796 -0.2819  0.6521  1.6746
 3724TIP3    H232664   5.380   5.119   2.704  1.4778 -0.4350 -0.7473
 3725TIP3   OH232665   4.786   2.082  14.231 -0.6900  0.1436  0.4134
 3725TIP3    H132666   4.777   2.168  14.272 -0.0909  0.6692 -0.5312
 3725TIP3    H232667   4.836   2.030  14.294 -0.2616  0.7642  0.5869
 3726TIP3   OH232668   5.344   1.749   3.648 -0.1910  0.7642  0.0677
 3726TIP3    H132669   5.340   1.798   3.730 -1.5173 -1.9399  1.7833
 3726TIP3    H232670   5.417   1.688   3.660 -0.4510  0.2837 -0.6979
 3727TIP3   OH232671   3.009   5.445  13.401  0.6592  0.6376 -0.3882
 3727TIP3    H132672   2.915   5.464  13.398  0.8923  2.5619  1.6117
 3727TIP3    H232673   3.017   5.373  13.464  0.5054 -0.0390 -1.1203
 3728TIP3   OH232674   0.882   6.459   0.589  0.0963  0.0477 -0.2495
 3728TIP3    H132675   0.894   6.521   0.516 -1.8096 -0.6742 -1.2464
 3728TIP3    H232676   0.823   6.504   0.649  1.6687  0.6404  0.8989
 3729TIP3   OH232677   1.234   0.278  12.604  0.2157  0.1704  0.0852
 3729TIP3    H132678   1.164   0.255  12.665  0.3509 -0.0077  0.1725
 3729TIP3    H232679   1.204   0.246  12.520 -0.2072  0.8749 -0.0401
 3730TIP3   OH232680   2.114   0.646  11.087 -0.0329  0.0972  0.6170
 3730TIP3    H132681   2.060   0.577  11.125 -1.5938  1.4846  1.0470
 3730TIP3    H232682   2.078   0.659  10.999  0.2403  0.3662  0.5412
 3731TIP3   OH232683   6.744   0.383  16.590  0.3476  0.4606 -0.1071
 3731TIP3    H132684   6.759   0.343  16.675  0.1161  0.1873 -0.1926
 3731TIP3    H232685   6.828   0.422  16.566  0.2338  1.1284  0.5462
 3732TIP3   OH232686   2.367   1.113  16.105 -0.1431 -0.0998 -0.2297
 3732TIP3    H132687   2.308   1.041  16.084  0.9249 -1.3761  0.9156
 3732TIP3    H232688   2.412   1.133  16.023 -0.6126 -0.5692 -0.6063
 3733TIP3   OH232689   3.221   0.899  14.707  1.0568  0.1305 -0.3037
 3733TIP3    H132690   3.151   0.838  14.681  2.2684 -0.1794 -3.1799
 3733TIP3    H232691   3.186   0.986  14.688  1.1876  0.0212 -1.0448
 3734TIP3   OH232692   5.850   0.212  14.437 -0.5081  0.1650  0.1796
 3734TIP3    H132693   5.871   0.207  14.344 -0.0971 -1.5458  0.3318
 3734TIP3    H232694   5.817   0.125  14.460  0.8676  0.0507  1.9662
 3735TIP3   OH232695   1.339   0.520  12.550 -0.3156  0.2982 -0.1693
 3735TIP3    H132696   1.306   0.603  12.584 -1.7241  1.0999 -3.1645
 3735TIP3    H232697   1.266   0.459  12.563 -1.7441  1.1288 -3.3287
 3736TIP3   OH232698   3.693   5.854  12.773 -0.3301 -0.2899  0.0535
 3736TIP3    H132699   3.753   5.909  12.722  1.0638  1.2285  3.0993
 3736TIP3    H232700   3.607   5.891  12.757  0.1573  0.5746 -0.6315
 3737TIP3   OH232701   5.834   3.425  15.620  0.6956 -0.0853  0.2954
 3737TIP3    H132702   5.782   3.351  15.651 -0.7668 -0.3161 -2.4071
 3737TIP3    H232703   5.919   3.387  15.596  0.1491 -0.8253 -0.5277
 3738TIP3   OH232704   0.854   1.910   2.933  0.2389 -0.1588 -0.0793
 3738TIP3    H132705   0.901   1.991   2.916 -0.0547 -0.0239 -0.2512
 3738TIP3    H232706   0.809   1.890   2.851 -0.1691 -0.1760  0.1459
 3739TIP3   OH232707   5.289   6.462  13.668  0.0443 -0.2752  0.0145
 3739TIP3    H132708   5.352   6.418  13.611  1.1587  0.4684  0.6210
 3739TIP3    H232709   5.344   6.512  13.729 -1.1504  0.6684  0.3448
 3740TIP3   OH232710   5.680   3.244   3.513 -0.4969 -0.5687 -0.1298
 3740TIP3    H132711   5.764   3.217   3.551 -0.1331 -0.5821 -0.9316
 3740TIP3    H232712   5.614   3.202   3.569  0.0074  0.0556  0.9632
 3741TIP3   OH232713   3.489   3.539   1.066 -0.3896  0.1315  0.0143
 3741TIP3    H132714   3.488   3.543   1.162  2.0652 -2.2162  0.2591
 3741TIP3    H232715   3.462   3.449   1.046 -2.3109  1.0083 -1.6416
 3742TIP3   OH232716   0.189   6.772   5.033  0.5420  0.7959 -0.2173
 3742TIP3    H132717   0.142   6.693   5.006  0.5089  1.1627 -1.2610
 3742TIP3    H232718   0.120   6.837   5.048  0.6928  1.4072 -1.9884
 3743TIP3   OH232719   6.229   6.236   1.312 -0.0270  0.4548  0.2435
 3743TIP3    H132720   6.307   6.290   1.323  1.5867 -1.3478 -1.5897
 3743TIP3    H232721   6.251   6.175   1.242 -2.1180 -1.9292  1.4983
 3744TIP3   OH232722   6.726   2.322   4.370  0.0088  0.3518  0.0842
 3744TIP3    H132723   6.744   2.262   4.297  0.4650 -1.2918  1.4907
 3744TIP3    H232724   6.713   2.265   4.445 -1.1975  1.9838  1.1637
 3745TIP3   OH232725   4.506   5.501  15.550 -0.0728  0.3657 -0.0724
 3745TIP3    H132726   4.561   5.432  15.512 -1.2264 -0.3781 -0.4483
 3745TIP3    H232727   4.435   5.453  15.592 -0.1539  1.2877  0.8836
 3746TIP3   OH232728   1.054   0.383   3.883  0.1751 -0.0570 -0.0518
 3746TIP3    H132729   0.994   0.374   3.957  0.4186  0.0243  0.1551
 3746TIP3    H232730   0.999   0.414   3.811  0.2015  1.2327  0.4653
 3747TIP3   OH232731   0.847   1.816   5.990  0.3582 -0.6659  0.2890
 3747TIP3    H132732   0.858   1.829   6.084  0.9816  2.4946 -0.1033
 3747TIP3    H232733   0.752   1.815   5.977  0.2372  1.0923  0.7836
 3748TIP3   OH232734   2.337   4.453  17.012 -0.7697 -0.5582  0.5619
 3748TIP3    H132735   2.404   4.425  16.950 -1.3610 -1.2277  0.2177
 3748TIP3    H232736   2.371   4.535  17.048 -0.8488  0.3862 -1.3718
 3749TIP3   OH232737   2.417   3.423  15.625 -0.1264 -0.0462 -0.4050
 3749TIP3    H132738   2.477   3.468  15.566 -0.4128 -0.1593 -0.7883
 3749TIP3    H232739   2.474   3.373  15.683  0.1465 -1.4882 -1.8328
 3750TIP3   OH232740   5.267   4.396  16.054  0.1964 -0.0688  0.8585
 3750TIP3    H132741   5.233   4.381  16.142 -2.3340 -0.4903 -0.1188
 3750TIP3    H232742   5.284   4.490  16.051  1.2235 -0.1868  2.0575
 3751TIP3   OH232743   4.763   5.482   2.928 -0.4751  0.0786  0.6224
 3751TIP3    H132744   4.738   5.402   2.881  3.8525 -1.2900  0.1481
 3751TIP3    H232745   4.744   5.553   2.867  0.3098 -1.1727 -1.1817
 3752TIP3   OH232746   2.128   5.840  13.363 -0.6064  0.2636 -0.5798
 3752TIP3    H132747   2.163   5.929  13.353 -0.1702 -0.0581 -2.3082
 3752TIP3    H232748   2.142   5.819  13.455 -0.5603  1.9126 -0.1756
 3753TIP3   OH232749   1.962   3.709  16.361 -0.6036 -0.0138 -0.0676
 3753TIP3    H132750   1.947   3.649  16.433 -3.6194 -1.7184 -1.9216
 3753TIP3    H232751   2.050   3.687  16.330 -0.2943 -1.0484  1.4279
 3754TIP3   OH232752   5.866   1.663   4.686  0.2037  0.3009  0.0350
 3754TIP3    H132753   5.879   1.736   4.747 -0.0413  0.0998  0.3328
 3754TIP3    H232754   5.798   1.610   4.727 -0.3303  0.4317 -0.6653
 3755TIP3   OH232755   6.566   0.539  13.371  0.1678  0.4696  0.1300
 3755TIP3    H132756   6.547   0.465  13.428  0.8709  0.7591  0.7547
 3755TIP3    H232757   6.556   0.616  13.427  0.6675  0.7703 -0.1848
 3756TIP3   OH232758   5.102   2.130  16.777 -0.4156 -0.1148  0.0532
 3756TIP3    H132759   5.161   2.161  16.708  0.4678 -2.0965 -0.1508
 3756TIP3    H232760   5.157   2.129  16.856 -0.5625 -0.6391  0.1517
 3757TIP3   OH232761   5.545   5.760  13.783 -0.3792  0.4389 -0.1212
 3757TIP3    H132762   5.593   5.810  13.716  1.8524 -1.5123 -0.1077
 3757TIP3    H232763   5.582   5.790  13.866 -1.7364  1.4297  0.1501
 3758TIP3   OH232764   6.430   0.129   2.635 -0.3544  0.3234  0.2599
 3758TIP3    H132765   6.378   0.201   2.600  0.4227  1.1093  0.6805
 3758TIP3    H232766   6.460   0.082   2.557 -0.6394  0.6112 -0.0290
 3759TIP3   OH232767   0.461   3.847  10.906  0.4199  0.3124 -0.2289
 3759TIP3    H132768   0.548   3.854  10.946 -0.8260  0.9347  2.6728
 3759TIP3    H232769   0.413   3.787  10.964 -1.1540  0.1308 -1.6464
 3760TIP3   OH232770   0.922   0.039  16.537  0.6083  0.6117  0.0806
 3760TIP3    H132771   0.873   0.079  16.465 -0.2506  1.0255  0.8845
 3760TIP3    H232772   1.010   0.076  16.529  0.5106  0.6835 -0.7279
 3761TIP3   OH232773   6.134   0.832  11.513  0.1877 -0.5318 -0.2643
 3761TIP3    H132774   6.084   0.910  11.538  0.4951  0.0802 -1.4552
 3761TIP3    H232775   6.180   0.859  11.433  1.5260 -1.4407  0.1723
 3762TIP3   OH232776   0.639   0.777   4.743  0.5285  0.6678  0.2489
 3762TIP3    H132777   0.719   0.731   4.716  0.2130  0.2797 -0.0310
 3762TIP3    H232778   0.671   0.858   4.783  1.1304 -0.1108  1.4157
 3763TIP3   OH232779   6.141   0.943  12.134 -0.2575  0.1504  0.3567
 3763TIP3    H132780   6.119   0.887  12.059 -1.6946  1.8837 -0.5631
 3763TIP3    H232781   6.191   0.885  12.192  1.7316 -1.0291 -2.3091
 3764TIP3   OH232782   3.132   3.453   3.384 -0.2440 -0.0041 -0.0302
 3764TIP3    H132783   3.224   3.430   3.379 -0.2400 -0.1002  0.3885
 3764TIP3    H232784   3.096   3.393   3.450 -0.7339 -0.3625 -0.6184
 3765TIP3   OH232785   3.624   5.048   0.053 -0.2214 -0.0607 -0.1312
 3765TIP3    H132786   3.671   5.109  -0.003 -0.0468  0.9866  1.1101
 3765TIP3    H232787   3.584   4.985  -0.007  3.2620 -1.4219 -1.2720
 3766TIP3   OH232788   6.723   3.203   3.090 -0.0381  0.4456 -0.1864
 3766TIP3    H132789   6.759   3.282   3.049 -1.1762  0.6367 -0.8776
 3766TIP3    H232790   6.671   3.162   3.020  0.4265 -0.8503  0.2039
 3767TIP3   OH232791   3.572   2.806  13.123 -0.4280  0.1998  0.1616
 3767TIP3    H132792   3.555   2.772  13.035  0.5470  1.1038 -0.4020
 3767TIP3    H232793   3.575   2.728  13.179 -1.2209 -0.3754 -0.5685
 3768TIP3   OH232794   1.454   2.263   2.384 -0.0396  0.3031  0.1448
 3768TIP3    H132795   1.458   2.194   2.317  1.0548  2.2201 -1.9174
 3768TIP3    H232796   1.524   2.241   2.446  0.3435 -0.4098 -0.5254
 3769TIP3   OH232797   5.201   0.610   1.827 -0.0249 -0.4161 -0.8639
 3769TIP3    H132798   5.202   0.596   1.922 -0.2934 -0.3736 -0.8522
 3769TIP3    H232799   5.287   0.645   1.806 -0.9076  2.3902 -0.2025
 3770TIP3   OH232800   1.011   5.260  12.813  0.1309  0.0281  0.4152
 3770TIP3    H132801   0.983   5.218  12.894 -1.2530  0.6148  0.2703
 3770TIP3    H232802   0.930   5.291  12.773  0.7301 -0.7118 -1.4569
 3771TIP3   OH232803   2.281   3.641  17.148 -0.3733  0.4675  0.1533
 3771TIP3    H132804   2.220   3.707  17.116  1.0491  2.6893  1.7745
 3771TIP3    H232805   2.344   3.632  17.077 -0.2916  1.2539  0.1144
 3772TIP3   OH232806   3.669   3.621   4.277  0.6121 -0.2455  0.4932
 3772TIP3    H132807   3.699   3.686   4.215 -1.0942  0.4148  0.2877
 3772TIP3    H232808   3.621   3.557   4.224 -2.2416  1.1509  1.1522
 3773TIP3   OH232809   6.193   3.194   1.103  0.3474 -0.4252 -0.1106
 3773TIP3    H132810   6.273   3.236   1.136  0.2611 -0.7419  0.5211
 3773TIP3    H232811   6.205   3.191   1.008 -0.0666  1.9156 -0.2884
 3774TIP3   OH232812   5.860   4.253   4.212 -0.0342  0.0116  0.0649
 3774TIP3    H132813   5.783   4.230   4.161 -1.3838 -0.9377  2.3711
 3774TIP3    H232814   5.922   4.182   4.196 -0.2393 -0.0231 -0.5959
 3775TIP3   OH232815   5.276   2.201   5.508 -0.0261 -0.4585  0.7459
 3775TIP3    H132816   5.350   2.154   5.547  0.9287 -0.8949 -1.4413
 3775TIP3    H232817   5.314   2.282   5.474 -1.2219  0.8763  2.4306
 3776TIP3   OH232818   0.974   5.953  11.548 -0.1414 -0.8084 -0.0113
 3776TIP3    H132819   1.048   5.960  11.487 -1.0234 -0.3912 -1.0718
 3776TIP3    H232820   0.996   5.878  11.603  1.5497 -0.0700  0.3813
 3777TIP3   OH232821   0.234   4.984  17.173  0.0741  0.1146  0.7650
 3777TIP3    H132822   0.252   4.908  17.228 -1.1696 -0.3771  0.5493
 3777TIP3    H232823   0.148   5.015  17.203  0.1790  0.9120  0.2738
 3778TIP3   OH232824   5.761   5.054   6.839 -0.0595  0.0308 -0.3362
 3778TIP3    H132825   5.776   4.964   6.868  0.9922  0.1917 -0.3430
 3778TIP3    H232826   5.738   5.045   6.746  2.4830 -0.1009 -1.0160
 3779TIP3   OH232827   2.288   3.277  13.093 -0.0485  0.2087 -0.1032
 3779TIP3    H132828   2.375   3.253  13.064 -0.5634 -2.2697  0.1525
 3779TIP3    H232829   2.270   3.218  13.167 -2.0669  0.3992 -0.3720
 3780TIP3   OH232830   2.069   3.611   4.801 -0.0660  0.5945  0.4354
 3780TIP3    H132831   2.128   3.537   4.784 -0.6823  0.3771 -0.8966
 3780TIP3    H232832   2.036   3.595   4.889  0.3176 -0.3629  0.4196
 3781TIP3   OH232833   1.792   4.193  14.421  0.1828 -0.3788  0.1256
 3781TIP3    H132834   1.784   4.099  14.437  0.5533 -0.3157  0.7141
 3781TIP3    H232835   1.767   4.233  14.504  1.3707 -0.0089  0.3256
 3782TIP3   OH232836   1.939   2.080   3.304  0.7164 -0.9139  0.2837
 3782TIP3    H132837   2.031   2.096   3.286  0.1585  0.9774 -1.2501
 3782TIP3    H232838   1.894   2.160   3.275 -1.7290 -2.9154 -1.9085
 3783TIP3   OH232839   0.685   0.170  13.903 -0.2309 -0.6313  0.0171
 3783TIP3    H132840   0.599   0.137  13.930 -0.1621  0.6539  1.9922
 3783TIP3    H232841   0.742   0.155  13.978  1.6058 -2.2789 -1.5485
 3784TIP3   OH232842   3.104   1.924  13.617  0.6161  0.6988 -0.2658
 3784TIP3    H132843   3.030   1.892  13.564 -1.1043  1.9438  1.2546
 3784TIP3    H232844   3.169   1.854  13.613 -1.0224 -0.8443 -0.9551
 3785TIP3   OH232845   4.449   3.409   0.813  0.4722 -0.4253  1.0573
 3785TIP3    H132846   4.466   3.484   0.871 -0.1627 -0.3200  1.1091
 3785TIP3    H232847   4.372   3.435   0.763  1.1444 -0.4257  0.0015
 3786TIP3   OH232848   6.492   4.278  13.687  0.6578  0.3787  0.1793
 3786TIP3    H132849   6.441   4.281  13.769  1.3519 -1.4601  0.7204
 3786TIP3    H232850   6.440   4.222  13.629  1.4426 -0.5083  0.3120
 3787TIP3   OH232851   0.899   2.979   4.691  0.1436 -0.3811 -0.2948
 3787TIP3    H132852   0.836   2.968   4.762 -0.1748 -1.0808 -0.6713
 3787TIP3    H232853   0.959   3.047   4.721 -0.6597  0.1294  0.1647
 3788TIP3   OH232854   4.628   1.080   5.709 -0.0710 -0.1336  0.1035
 3788TIP3    H132855   4.686   1.007   5.686 -1.2316 -0.8873 -0.5744
 3788TIP3    H232856   4.543   1.038   5.725 -0.6143  1.0128  0.3294
 3789TIP3   OH232857   4.205   3.578  15.309 -0.0939  0.4070 -0.0513
 3789TIP3    H132858   4.237   3.540  15.227 -2.0063  1.7469 -1.5038
 3789TIP3    H232859   4.266   3.651  15.327 -0.7473  1.3206 -1.3734
 3790TIP3   OH232860   0.383   6.194   3.884 -0.1420  0.2824 -0.3113
 3790TIP3    H132861   0.440   6.190   3.806  1.2842 -0.8164  0.7325
 3790TIP3    H232862   0.404   6.277   3.925 -0.5903  0.6748 -0.8638
 3791TIP3   OH232863   1.937   3.350   3.762  0.0980 -0.3598  0.5919
 3791TIP3    H132864   1.861   3.335   3.706  0.3281 -1.2608  0.5062
 3791TIP3    H232865   2.011   3.322   3.709  0.6368  1.6535  0.2076
 3792TIP3   OH232866   6.021   1.394   3.149 -0.3532  0.2087 -0.3310
 3792TIP3    H132867   5.994   1.485   3.159  0.1063  0.2960  0.1433
 3792TIP3    H232868   6.038   1.384   3.055  0.9703  1.0120 -0.2082
 3793TIP3   OH232869   4.752   3.533   4.558  0.0938  0.0571 -0.1123
 3793TIP3    H132870   4.836   3.574   4.578 -0.5308  0.8950  0.8632
 3793TIP3    H232871   4.693   3.606   4.540 -0.4635 -0.5206 -0.7003
 3794TIP3   OH232872   4.809   0.391  14.659  0.3179 -0.6364 -0.4197
 3794TIP3    H132873   4.809   0.347  14.743 -1.4301 -0.2247 -0.1684
 3794TIP3    H232874   4.732   0.358  14.614 -1.2663  2.2607 -0.0997
 3795TIP3   OH232875   1.136   3.449   3.956 -0.1731  0.1931  0.7768
 3795TIP3    H132876   1.042   3.436   3.962 -0.0894  0.1226  2.9935
 3795TIP3    H232877   1.173   3.374   4.003  1.0147  0.0635 -0.3123
 3796TIP3   OH232878   5.392   6.141   5.042  0.1651 -0.0039 -0.2313
 3796TIP3    H132879   5.415   6.184   4.960  0.5289  0.3133  0.0331
 3796TIP3    H232880   5.464   6.163   5.101  0.9114 -1.8539 -0.3957
 3797TIP3   OH232881   0.608   5.209   4.014  0.1146 -0.3346  0.0593
 3797TIP3    H132882   0.573   5.296   4.032 -0.2010 -0.6526  1.0428
 3797TIP3    H232883   0.660   5.188   4.092  1.5895 -0.3378 -0.8809
 3798TIP3   OH232884   6.272   0.270  16.522  0.3454  0.2502  0.3844
 3798TIP3    H132885   6.220   0.190  16.525 -0.0371  0.4761 -0.1068
 3798TIP3    H232886   6.312   0.276  16.609 -2.3134  1.3270  1.6124
 3799TIP3   OH232887   1.901   5.185   4.543 -0.0328 -0.0532 -0.4817
 3799TIP3    H132888   1.831   5.234   4.587  0.2181  1.0494 -1.2556
 3799TIP3    H232889   1.982   5.227   4.574  0.1801  0.1337 -1.2600
 3800TIP3   OH232890   1.722   2.403  14.927  0.0217  0.1076 -0.2924
 3800TIP3    H132891   1.817   2.391  14.917  0.0710  1.0408 -1.2007
 3800TIP3    H232892   1.712   2.447  15.011  0.4314  0.2632 -0.3209
 3801TIP3   OH232893   4.999   2.529   5.938  0.5095 -0.8195  0.1165
 3801TIP3    H132894   5.082   2.499   5.901 -0.2039 -1.0227 -1.4127
 3801TIP3    H232895   4.933   2.478   5.892 -0.4346 -1.4580  2.0987
 3802TIP3   OH232896   6.193   4.023   2.339  0.0326  0.6974 -0.0244
 3802TIP3    H132897   6.230   4.111   2.351 -0.3565  1.0886 -1.5376
 3802TIP3    H232898   6.099   4.037   2.333  0.0720  0.4194 -1.9509
 3803TIP3   OH232899   4.455   2.518   2.126 -0.4882 -0.5869  0.2713
 3803TIP3    H132900   4.408   2.581   2.181 -1.1030 -1.1692  0.4177
 3803TIP3    H232901   4.546   2.550   2.126 -0.7517  0.1818  0.5068
 3804TIP3   OH232902   6.588   6.632   6.570 -0.1311  0.3083  0.6611
 3804TIP3    H132903   6.565   6.666   6.656 -1.7781 -0.6004  0.6258
 3804TIP3    H232904   6.520   6.666   6.511 -0.7667 -1.4551  0.3022
 3805TIP3   OH232905   2.891   0.251   0.969 -0.3915 -0.4696  0.1249
 3805TIP3    H132906   2.977   0.214   0.950  0.3499  0.2674  1.8018
 3805TIP3    H232907   2.835   0.175   0.982 -0.6304 -1.0075 -3.2269
 3806TIP3   OH232908   4.696   2.615  12.706  0.4441 -0.1994 -0.2946
 3806TIP3    H132909   4.741   2.682  12.654 -1.0660 -0.0352 -1.4511
 3806TIP3    H232910   4.632   2.664  12.757  0.2178 -0.6315 -0.1624
 3807TIP3   OH232911   0.918   1.218  16.592 -0.2414  0.1169  0.3177
 3807TIP3    H132912   0.973   1.296  16.587 -0.3106  0.1714  0.4138
 3807TIP3    H232913   0.830   1.251  16.610 -0.1887 -0.0091  0.8188
 3808TIP3   OH232914   4.933   3.204   5.421 -0.5174  0.5577  0.7701
 3808TIP3    H132915   4.976   3.278   5.466  0.3243  0.9444 -0.6184
 3808TIP3    H232916   4.996   3.177   5.354 -1.4441 -0.4703  0.2923
 3809TIP3   OH232917   5.200   5.136   2.972  0.0051  0.3454 -0.8472
 3809TIP3    H132918   5.131   5.072   2.952  0.4725  0.0203 -1.4511
 3809TIP3    H232919   5.258   5.133   2.896  1.8169 -0.8916  0.5089
 3810TIP3   OH232920   6.324   6.531  15.575 -0.1185  0.1939  0.3691
 3810TIP3    H132921   6.265   6.538  15.649  3.2376 -0.4163  3.3893
 3810TIP3    H232922   6.310   6.443  15.541 -0.4286 -0.2243  1.5416
 3811TIP3   OH232923   5.330   2.834  16.885 -0.5461  0.2082 -0.0792
 3811TIP3    H132924   5.408   2.886  16.864 -1.4901  1.6158 -0.2811
 3811TIP3    H232925   5.289   2.817  16.800  0.6502 -2.4388 -0.1985
 3812TIP3   OH232926   2.987   2.109   2.402 -0.7587 -0.1048 -0.0818
 3812TIP3    H132927   2.977   2.198   2.368  0.7163  0.0057 -0.3065
 3812TIP3    H232928   3.082   2.096   2.406 -0.9017 -0.8819  2.0419
 3813TIP3   OH232929   5.860   6.674  11.343  0.3982 -0.6071 -0.8430
 3813TIP3    H132930   5.871   6.583  11.318  3.2041 -0.3704 -0.8593
 3813TIP3    H232931   5.878   6.676  11.437  1.2083  0.0012 -0.9940
 3814TIP3   OH232932   0.330   3.442   0.012 -0.0525  0.1568  0.1947
 3814TIP3    H132933   0.239   3.470   0.010 -0.6470 -1.6464 -0.5596
 3814TIP3    H232934   0.341   3.399   0.097  0.8538  2.4775  1.3503
 3815TIP3   OH232935   5.827   4.686  16.900 -0.0107 -0.4604  0.5681
 3815TIP3    H132936   5.897   4.621  16.894 -2.0916 -2.7871 -0.1054
 3815TIP3    H232937   5.824   4.710  16.992  0.3537 -1.9117  0.9782
 3816TIP3   OH232938   2.207   5.001   3.587 -0.2493 -0.0228 -0.9043
 3816TIP3    H132939   2.132   4.987   3.529 -0.5356  1.2062 -0.8371
 3816TIP3    H232940   2.171   5.046   3.663  0.3762 -0.4012 -0.3705
 3817TIP3   OH232941   3.994   5.322  16.760  0.2805  0.8444  0.1253
 3817TIP3    H132942   4.073   5.329  16.707 -0.4926  1.3245 -1.0030
 3817TIP3    H232943   3.931   5.277  16.704 -0.0860 -0.0606  1.2179
 3818TIP3   OH232944   1.973   5.732  13.989  0.2721 -0.6292 -0.0242
 3818TIP3    H132945   1.912   5.658  13.990 -0.2706 -0.1928  1.1888
 3818TIP3    H232946   1.923   5.805  14.025  0.7189  0.4296 -1.4520
 3819TIP3   OH232947   5.759   0.764  17.005  0.3065  0.1029 -0.2419
 3819TIP3    H132948   5.835   0.822  16.993  2.7631 -2.8327 -0.1694
 3819TIP3    H232949   5.737   0.734  16.917 -0.9952  1.1374 -0.2874
 3820TIP3   OH232950   1.580   3.791  15.994 -0.0224 -0.0370  0.4407
 3820TIP3    H132951   1.555   3.722  15.933 -1.5824  1.1239 -0.3325
 3820TIP3    H232952   1.623   3.746  16.066  0.0703 -1.6649 -0.5910
 3821TIP3   OH232953   2.241   6.797   0.337  0.1792  0.0434 -0.0067
 3821TIP3    H132954   2.273   6.712   0.307 -1.4590 -1.2089  1.5677
 3821TIP3    H232955   2.246   6.853   0.259 -0.3525 -1.9922 -1.5952
 3822TIP3   OH232956   4.517   0.308   2.098 -0.4200 -0.0298  0.2763
 3822TIP3    H132957   4.574   0.375   2.061  1.0322 -2.2771 -1.8413
 3822TIP3    H232958   4.429   0.333   2.069  0.0891  0.9368 -0.4895
 3823TIP3   OH232959   4.083   5.125   2.330  0.2043  0.7466  0.1245
 3823TIP3    H132960   4.004   5.155   2.285  0.4529  1.3995  0.1043
 3823TIP3    H232961   4.060   5.040   2.366  0.3783 -0.4217 -2.3078
 3824TIP3   OH232962   6.118   4.316  12.205 -0.1627  0.0080 -0.4468
 3824TIP3    H132963   6.162   4.240  12.169 -1.8175 -0.5557 -1.4096
 3824TIP3    H232964   6.072   4.355  12.130  2.2843  3.2281 -0.4612
 3825TIP3   OH232965   2.524   2.317  10.628  0.0619  0.1131 -0.6178
 3825TIP3    H132966   2.566   2.241  10.668 -0.1866  0.9483  1.3841
 3825TIP3    H232967   2.448   2.282  10.581 -1.1454 -0.7562  1.8284
 3826TIP3   OH232968   4.141   0.004  14.039 -0.1461 -0.5740 -0.2342
 3826TIP3    H132969   4.137  -0.091  14.037 -0.2986 -0.5727  0.0097
 3826TIP3    H232970   4.056   0.032  14.074 -0.3573 -0.3238 -0.9300
 3827TIP3   OH232971   1.318   5.585   4.644  0.1039 -0.2803 -0.5032
 3827TIP3    H132972   1.335   5.664   4.695  0.7623 -1.2280  0.7885
 3827TIP3    H232973   1.361   5.602   4.560  2.2517 -0.1507  0.5432
 3828TIP3   OH232974   1.421   1.498  10.817 -0.2695  0.0355  0.5479
 3828TIP3    H132975   1.469   1.500  10.900 -0.2471 -0.6160  0.5528
 3828TIP3    H232976   1.427   1.407  10.788  0.2914  0.3960 -0.5011
 3829TIP3   OH232977   4.079   3.048  15.458  0.4433 -0.1160 -0.2631
 3829TIP3    H132978   4.049   3.137  15.439 -2.1487 -0.4950  1.6413
 3829TIP3    H232979   4.163   3.060  15.502 -0.2151  1.4357  0.6225
 3830TIP3   OH232980   2.757   4.250   2.187 -0.1197  0.0004  1.0321
 3830TIP3    H132981   2.841   4.240   2.143 -1.0647  1.3577 -1.2326
 3830TIP3    H232982   2.765   4.333   2.235 -0.3252  0.4050  0.3785
 3831TIP3   OH232983   5.266   3.316  14.143  0.3078  0.3981 -0.6000
 3831TIP3    H132984   5.344   3.302  14.089  1.4955  1.2841  0.8334
 3831TIP3    H232985   5.196   3.331  14.079  1.7685  1.9713 -1.9306
 3832TIP3   OH232986   0.210   4.667   0.799  0.1484 -0.4716 -0.5489
 3832TIP3    H132987   0.224   4.712   0.882 -2.2438  0.9662 -0.8028
 3832TIP3    H232988   0.292   4.677   0.752  0.5377  1.5242  0.4174
 3833TIP3   OH232989   0.761   5.599  14.807 -0.5741 -0.0382 -0.1263
 3833TIP3    H132990   0.764   5.531  14.740  0.0871 -0.2295  0.0905
 3833TIP3    H232991   0.738   5.679  14.759 -3.3080 -0.6992 -0.1252
 3834TIP3   OH232992   4.887   3.372   4.124  0.6111  0.3113  0.1484
 3834TIP3    H132993   4.894   3.341   4.215  2.0377  1.9072  0.6381
 3834TIP3    H232994   4.937   3.453   4.123  1.4743 -0.1706 -2.3183
 3835TIP3   OH232995   4.362   5.172   4.320  0.3638  0.7864  0.0953
 3835TIP3    H132996   4.405   5.093   4.353  1.0180  1.0369 -0.1388
 3835TIP3    H232997   4.308   5.202   4.393 -0.8370 -0.5261 -0.1975
 3836TIP3   OH232998   1.240   5.809  14.852  0.7709 -0.4896  0.3573
 3836TIP3    H132999   1.156   5.835  14.890  0.9823 -1.2451  1.3787
 3836TIP3    H233000   1.217   5.768  14.769  0.3155  1.3300 -0.4710
 3837TIP3   OH233001   1.484   0.956   4.882 -0.7313  0.5682  0.7354
 3837TIP3    H133002   1.478   1.005   4.800  0.3027  1.3425  1.1106
 3837TIP3    H233003   1.570   0.915   4.880 -0.8833  0.2129  1.2364
 3838TIP3   OH233004   1.118   5.378  15.295  0.5245 -0.9605  0.1183
 3838TIP3    H133005   1.024   5.398  15.295  0.3245 -1.3641 -2.9431
 3838TIP3    H233006   1.123   5.286  15.320  0.0850 -0.9793  0.1418
 3839TIP3   OH233007   4.261   0.847  11.499 -0.4014  0.3830 -0.5081
 3839TIP3    H133008   4.181   0.794  11.500  0.1713 -0.5250  0.6893
 3839TIP3    H233009   4.275   0.868  11.407 -0.2625 -2.2443 -1.1675
 3840TIP3   OH233010   4.189   5.200   3.778  0.0912 -0.4753  0.4291
 3840TIP3    H133011   4.177   5.293   3.756 -0.8621 -0.6124  0.3292
 3840TIP3    H233012   4.237   5.201   3.860 -1.1991  0.1521  1.2111
 3841TIP3   OH233013   1.806   0.300   5.572 -0.1975  0.0762 -0.5174
 3841TIP3    H133014   1.894   0.314   5.538 -0.1407 -0.4915 -0.6025
 3841TIP3    H233015   1.819   0.250   5.652 -0.3486  1.1516  0.2057
 3842TIP3   OH233016   4.993   5.667  12.612 -0.4080 -0.0789 -0.3547
 3842TIP3    H133017   5.085   5.693  12.613 -0.5002  0.3953  1.8868
 3842TIP3    H233018   4.994   5.576  12.642 -0.7064  0.2695  0.7742
 3843TIP3   OH233019   6.004   0.124  14.168  0.5111  0.1032  0.2756
 3843TIP3    H133020   5.960   0.183  14.107 -1.4633 -1.5049  0.0182
 3843TIP3    H233021   6.097   0.135  14.150  0.1604  2.2937 -0.4894
 3844TIP3   OH233022   5.188   1.537   4.016  0.0483 -0.2517 -0.3395
 3844TIP3    H133023   5.270   1.489   4.030 -0.2293 -0.9554 -1.0498
 3844TIP3    H233024   5.144   1.489   3.945 -1.5432 -0.6251  0.8399
 3845TIP3   OH233025   2.281   0.928   4.310 -0.2195  0.1027 -0.0961
 3845TIP3    H133026   2.368   0.889   4.307 -0.2741 -0.0086 -2.3098
 3845TIP3    H233027   2.286   1.003   4.251 -1.4781  0.4143  0.1539
 3846TIP3   OH233028   5.184   2.872   4.099  0.5324 -0.2282  0.4578
 3846TIP3    H133029   5.254   2.904   4.041 -0.6925 -1.4457 -1.8302
 3846TIP3    H233030   5.149   2.952   4.140  3.0987  0.4243  1.5989
 3847TIP3   OH233031   3.570   2.733  15.270  0.3375  0.6958  0.4668
 3847TIP3    H133032   3.611   2.726  15.357 -0.1578 -1.2663  0.5908
 3847TIP3    H233033   3.476   2.729  15.288  0.2429 -1.0977 -0.1946
 3848TIP3   OH233034   2.056   2.719   0.434  0.0730  0.7117 -0.5274
 3848TIP3    H133035   1.982   2.728   0.495  0.9169  1.5691  0.3927
 3848TIP3    H233036   2.132   2.708   0.490  0.3903 -3.3053 -1.4287
 3849TIP3   OH233037   1.671   4.845  12.751  0.5263 -0.1804  0.2160
 3849TIP3    H133038   1.682   4.932  12.790  2.7938  0.0502 -0.7941
 3849TIP3    H233039   1.733   4.790  12.797  0.3625 -0.8503 -0.3539
 3850TIP3   OH233040   6.710   5.768  17.171 -0.5152 -0.1565  0.5087
 3850TIP3    H133041   6.660   5.692  17.199  0.3110 -0.3659  1.5076
 3850TIP3    H233042   6.786   5.732  17.126 -0.1825  0.0680  0.8808
 3851TIP3   OH233043   2.129   4.888  13.955 -0.0269  0.2021  0.2575
 3851TIP3    H133044   2.129   4.793  13.945  0.3593  0.2377 -0.1185
 3851TIP3    H233045   2.206   4.906  14.009  1.9337  0.5522 -2.4496
 3852TIP3   OH233046   2.230   3.796  11.380 -0.1047 -0.0596 -0.1590
 3852TIP3    H133047   2.163   3.865  11.379 -0.3473 -0.2947 -0.4871
 3852TIP3    H233048   2.190   3.724  11.330 -0.5205 -1.0705  1.5534
 3853TIP3   OH233049   4.730   0.009  11.455  0.2862 -0.8685 -0.2031
 3853TIP3    H133050   4.804  -0.037  11.414 -0.0110 -1.4035 -0.1524
 3853TIP3    H233051   4.664   0.012  11.386 -0.5174 -2.4834  0.4471
 3854TIP3   OH233052   1.522   5.562  13.034  0.4817 -0.2418  0.6470
 3854TIP3    H133053   1.491   5.652  13.049  1.1174 -0.2772  2.3656
 3854TIP3    H233054   1.567   5.539  13.115 -1.7785 -3.0465  1.2399
 3855TIP3   OH233055   6.647   3.532  12.608  0.2612 -0.1517 -0.1385
 3855TIP3    H133056   6.689   3.610  12.570  2.0687 -1.6292 -1.3623
 3855TIP3    H233057   6.661   3.463  12.543 -3.9158 -0.9196 -0.5056
 3856TIP3   OH233058   3.846   5.852   2.917 -0.5263  0.2193  0.3063
 3856TIP3    H133059   3.840   5.757   2.908 -1.1668  0.4032 -2.1064
 3856TIP3    H233060   3.938   5.869   2.938 -0.0713 -0.8887 -0.6876
 3857TIP3   OH233061   0.139   2.370  14.670  0.0352 -0.0189  0.5569
 3857TIP3    H133062   0.049   2.355  14.642 -0.1160 -1.9827  1.9102
 3857TIP3    H233063   0.138   2.458  14.708 -1.0139  0.4386 -0.4738
 3858TIP3   OH233064   4.842   1.277  13.001 -0.5834  0.4635 -0.2922
 3858TIP3    H133065   4.766   1.255  13.055 -0.7585  0.0062 -0.7095
 3858TIP3    H233066   4.877   1.357  13.039 -2.3391  1.7051 -1.1754
 3859TIP3   OH233067   0.235   5.841  12.544  0.4352 -1.0500  0.2977
 3859TIP3    H133068   0.267   5.904  12.478 -0.1541 -0.4032  0.6128
 3859TIP3    H233069   0.264   5.756  12.511 -0.5924 -0.8481 -1.2668
 3860TIP3   OH233070   4.821   1.272  11.931 -0.0916 -0.3514  0.4511
 3860TIP3    H133071   4.871   1.347  11.964 -0.3723  0.3233 -0.6134
 3860TIP3    H233072   4.886   1.220  11.883 -0.1391 -0.1654  0.1843
 3861TIP3   OH233073   3.155   1.843  11.363 -0.6071  0.1754  0.0853
 3861TIP3    H133074   3.106   1.769  11.399  0.3744  0.2858  1.7571
 3861TIP3    H233075   3.246   1.826  11.388 -0.4882  2.4410  1.4721
 3862TIP3   OH233076   4.740   5.123  14.880  0.1209 -0.2473 -0.0453
 3862TIP3    H133077   4.700   5.208  14.902 -2.1861 -1.7641  2.3092
 3862TIP3    H233078   4.818   5.118  14.935  2.7173  1.8786 -3.1679
 3863TIP3   OH233079   4.876   4.846   6.083  0.2210 -0.6708  0.3194
 3863TIP3    H133080   4.964   4.876   6.105 -0.2969  0.5027  0.8604
 3863TIP3    H233081   4.823   4.866   6.160 -1.3088  2.1663 -1.3176
 3864TIP3   OH233082   6.524   2.871   1.335 -0.2160 -0.1931 -0.3696
 3864TIP3    H133083   6.541   2.927   1.259  0.9925  0.4458  0.3337
 3864TIP3    H233084   6.437   2.897   1.365 -0.8961 -0.7561 -1.7622
 3865TIP3   OH233085   3.329   6.221   4.515 -0.3584 -0.5352  0.3114
 3865TIP3    H133086   3.421   6.197   4.518  0.2563  1.5896  0.1968
 3865TIP3    H233087   3.305   6.212   4.423  0.6820  1.8906 -0.2821
 3866TIP3   OH233088   1.690   0.383   2.599  0.0082  0.4150  0.1421
 3866TIP3    H133089   1.675   0.423   2.684 -1.5732  0.7047 -0.2450
 3866TIP3    H233090   1.702   0.290   2.618  1.5819  0.7348  0.8396
 3867TIP3   OH233091   2.719   5.738   5.429 -0.4352 -0.3727  0.6940
 3867TIP3    H133092   2.814   5.735   5.445 -0.3496 -1.0856  0.0998
 3867TIP3    H233093   2.695   5.830   5.443  0.1177 -0.4149  2.1110
 3868TIP3   OH233094   6.683   1.126   1.862  0.5624  0.0731  0.2221
 3868TIP3    H133095   6.645   1.060   1.804 -0.7633  1.7338 -0.9197
 3868TIP3    H233096   6.640   1.208   1.835  2.6663  1.5294  1.0699
 3869TIP3   OH233097   1.053   0.060   3.193  0.2694  0.5936  0.4785
 3869TIP3    H133098   1.133   0.023   3.232 -0.1729  0.2773  1.1055
 3869TIP3    H233099   0.984   0.037   3.255 -0.6574 -0.8558 -1.0238
 3870TIP3   OH233100   2.536   0.714   5.546 -0.0042 -0.1269 -0.1280
 3870TIP3    H133101   2.459   0.747   5.594  0.4891  0.1189  0.5049
 3870TIP3    H233102   2.508   0.715   5.455 -0.5280  0.6108  0.0225
 3871TIP3   OH233103   0.535   3.378  16.036 -0.0291  0.3465 -0.3796
 3871TIP3    H133104   0.515   3.435  15.961 -1.2719 -0.1791 -0.4743
 3871TIP3    H233105   0.479   3.412  16.107 -0.6604 -0.6337 -0.3926
 3872TIP3   OH233106   2.736   5.258  13.133 -0.4379  0.1195 -0.3338
 3872TIP3    H133107   2.661   5.243  13.190 -1.5956  0.4543 -1.7309
 3872TIP3    H233108   2.710   5.330  13.076  1.0854  0.4850 -0.6154
 3873TIP3   OH233109   0.480   2.654  11.615  0.3091 -0.4981  0.2610
 3873TIP3    H133110   0.575   2.660  11.603  0.4939 -0.3002  1.6681
 3873TIP3    H233111   0.444   2.723  11.560  1.2283  1.7538  2.2816
 3874TIP3   OH233112   0.001   5.241  16.479 -0.2041  0.4023  0.1874
 3874TIP3    H133113  -0.024   5.223  16.388 -0.6447  1.8934 -0.0292
 3874TIP3    H233114  -0.070   5.203  16.531  0.4662 -1.1854 -0.0263
 3875TIP3   OH233115   0.749   5.178  16.127  0.2022  0.5417  0.2961
 3875TIP3    H133116   0.778   5.149  16.041  0.0067 -1.1015  0.7427
 3875TIP3    H233117   0.725   5.270  16.116  0.8068  0.5328 -1.2310
 3876TIP3   OH233118   4.640   0.452  12.397 -0.3363 -0.7080 -0.1804
 3876TIP3    H133119   4.576   0.494  12.453  0.4277 -0.9504  0.9073
 3876TIP3    H233120   4.721   0.500  12.413 -0.0367 -0.9824 -0.8403
 3877TIP3   OH233121   5.330   2.374   0.904  0.4314  0.0925  0.3429
 3877TIP3    H133122   5.425   2.376   0.897  0.6393 -0.9016  2.1151
 3877TIP3    H233123   5.307   2.456   0.947  0.5407  0.1186  0.3500
 3878TIP3   OH233124   1.989   2.745  16.458  0.0531 -0.2932 -0.3867
 3878TIP3    H133125   1.932   2.817  16.484  0.1750 -0.2139 -0.3358
 3878TIP3    H233126   1.999   2.693  16.538  0.3224 -0.1212 -0.3053
 3879TIP3   OH233127   2.301   3.166   2.836  0.3564  0.4117  0.4849
 3879TIP3    H133128   2.212   3.144   2.807  1.1056 -3.9035  0.7726
 3879TIP3    H233129   2.355   3.156   2.758  1.1718 -2.3103  1.2930
 3880TIP3   OH233130   0.808   3.438   6.416  0.3740  0.1929 -0.0659
 3880TIP3    H133131   0.832   3.499   6.346  0.1339  0.5262  0.1416
 3880TIP3    H233132   0.888   3.427   6.467  0.5348 -0.0063 -0.3550
 3881TIP3   OH233133   2.252   5.243  11.002 -0.6745 -0.2028 -0.2197
 3881TIP3    H133134   2.250   5.308  11.071 -3.3042  0.2864 -0.6207
 3881TIP3    H233135   2.288   5.164  11.043 -0.4976  0.5850  1.1733
 3882TIP3   OH233136   5.879   0.187  11.389 -0.4154  0.1739  0.2854
 3882TIP3    H133137   5.784   0.199  11.391 -0.3884  0.2905  1.2301
 3882TIP3    H233138   5.915   0.275  11.380 -0.3792  0.2392  0.9914
 3883TIP3   OH233139   3.823   3.184   1.464 -0.1437  0.2883  0.6004
 3883TIP3    H133140   3.764   3.234   1.408 -1.2613 -2.5762 -1.0165
 3883TIP3    H233141   3.910   3.219   1.446 -0.7759  1.1154 -1.0208
 3884TIP3   OH233142   2.219   3.264  11.936  0.7391 -0.2943  0.2035
 3884TIP3    H133143   2.230   3.347  11.983  2.2712 -1.5049  2.1402
 3884TIP3    H233144   2.306   3.224  11.937 -0.6136 -3.6804  2.9457
 3885TIP3   OH233145   6.254   5.205  15.585 -0.1054 -0.4143 -0.2250
 3885TIP3    H133146   6.262   5.110  15.591 -0.6770 -0.5159 -0.8800
 3885TIP3    H233147   6.334   5.234  15.540 -0.1372 -0.6362 -0.4248
 3886TIP3   OH233148   1.163   2.143   5.620  0.1704 -0.0498  0.7787
 3886TIP3    H133149   1.169   2.049   5.608  1.5057  0.1252 -0.1429
 3886TIP3    H233150   1.246   2.168   5.661 -0.6328  0.6020  2.1119
 3887TIP3   OH233151   2.688   4.954   6.310  0.3237  0.2848 -0.5832
 3887TIP3    H133152   2.658   4.864   6.301 -0.6622  0.4972  0.3322
 3887TIP3    H233153   2.750   4.951   6.383  1.3485  0.1298 -1.4339
 3888TIP3   OH233154   0.798   4.094  17.106  0.0835  0.0250  0.6329
 3888TIP3    H133155   0.727   4.047  17.062  0.4586 -0.5338  0.6111
 3888TIP3    H233156   0.774   4.187  17.098 -0.8352 -0.1765  0.9757
 3889TIP3   OH233157   0.777   2.934  13.993 -0.0464  0.3739 -0.4080
 3889TIP3    H133158   0.858   2.897  13.958 -0.3897 -0.1933 -0.6160
 3889TIP3    H233159   0.782   3.027  13.972  0.3431  0.2614 -0.8207
 3890TIP3   OH233160   2.208   5.059  15.152  0.0397 -0.6598 -0.6164
 3890TIP3    H133161   2.117   5.074  15.125  0.0418 -1.8973 -1.3683
 3890TIP3    H233162   2.241   4.993  15.092  1.4797 -0.1915 -0.3931
 3891TIP3   OH233163   4.594   2.740   4.484  0.4290  0.0266 -0.0584
 3891TIP3    H133164   4.585   2.683   4.408  1.4929  1.2355 -1.1346
 3891TIP3    H233165   4.682   2.723   4.517  0.5650  0.6608 -0.0809
 3892TIP3   OH233166   2.695   1.163  11.744 -0.1279  0.2133 -0.2386
 3892TIP3    H133167   2.763   1.155  11.810  1.2291 -2.9868 -1.8057
 3892TIP3    H233168   2.617   1.124  11.785  0.0009  0.5127  0.2949
 3893TIP3   OH233169   6.482   3.476  11.588  0.3636 -0.4846  0.1986
 3893TIP3    H133170   6.569   3.489  11.551 -0.2700 -0.4689 -1.3689
 3893TIP3    H233171   6.443   3.407  11.534  0.5532 -2.9617  2.9313
 3894TIP3   OH233172   5.874   3.912   0.057 -0.0647  0.0053  0.0770
 3894TIP3    H133173   5.891   3.945   0.145  1.1188  1.1192 -0.5389
 3894TIP3    H233174   5.796   3.959   0.028 -1.4869 -1.6039  1.1247
 3895TIP3   OH233175   4.820   3.504  12.892  0.0411  0.3148 -0.0958
 3895TIP3    H133176   4.843   3.567  12.823 -0.4333  0.7210  0.1047
 3895TIP3    H233177   4.894   3.508  12.953  0.0082  0.6930 -0.0761
 3896TIP3   OH233178   0.470   2.274   4.249  0.6564 -0.3815 -0.4661
 3896TIP3    H133179   0.387   2.312   4.277  0.4043 -0.0742 -1.5865
 3896TIP3    H233180   0.502   2.227   4.326 -0.1375  0.2055  0.2396
 3897TIP3   OH233181   3.544   2.828  15.730  0.2979 -0.2487 -0.3289
 3897TIP3    H133182   3.602   2.832  15.806  0.6867 -0.5163 -0.6055
 3897TIP3    H233183   3.593   2.778  15.665 -0.1550 -0.2853 -0.6489
 3898TIP3   OH233184   0.824   3.989  15.145 -0.3741  0.0742  0.2722
 3898TIP3    H133185   0.815   3.939  15.226  0.9371 -1.5843 -0.5512
 3898TIP3    H233186   0.855   4.075  15.174  2.4993 -1.2153  1.4722
 3899TIP3   OH233187   3.284   1.615  15.118 -0.3220 -0.4603 -0.1397
 3899TIP3    H133188   3.300   1.709  15.116 -0.8969 -0.1651  3.0232
 3899TIP3    H233189   3.204   1.605  15.171 -0.6508 -2.7022 -0.9194
 3900TIP3   OH233190   0.591   4.718  11.122  0.0457  0.5711  0.5641
 3900TIP3    H133191   0.538   4.638  11.127  2.0013 -0.7254  1.6950
 3900TIP3    H233192   0.680   4.687  11.103  0.9879  2.4294  1.6677
 3901TIP3   OH233193   0.158   3.059   3.408  0.1784 -0.3505  0.3549
 3901TIP3    H133194   0.238   3.085   3.452  0.2203 -0.8361  0.5741
 3901TIP3    H233195   0.115   2.999   3.469 -0.2244 -0.2939  0.1323
 3902TIP3   OH233196   1.202   5.103   2.531 -0.3658  0.4103  0.1107
 3902TIP3    H133197   1.156   5.052   2.464 -0.7651 -0.6941  1.1870
 3902TIP3    H233198   1.133   5.135   2.589 -0.0146  1.2648  0.0709
 3903TIP3   OH233199   2.493   5.117  12.745  0.3493 -0.1478  0.1448
 3903TIP3    H133200   2.557   5.091  12.811  2.5944 -1.2703 -2.2937
 3903TIP3    H233201   2.447   5.036  12.722  0.2447  0.0430 -0.3308
 3904TIP3   OH233202   4.697   0.236  16.863 -0.0513  0.4602  0.1066
 3904TIP3    H133203   4.616   0.285  16.875  0.2348  0.8820  0.3479
 3904TIP3    H233204   4.673   0.145  16.882 -0.0664  0.8292  1.9675
 3905TIP3   OH233205   4.623   5.731   4.836  0.5211 -0.0987 -0.4324
 3905TIP3    H133206   4.599   5.701   4.748  3.2629  1.1342 -1.7489
 3905TIP3    H233207   4.623   5.827   4.829  3.3822  0.0081  0.0293
 3906TIP3   OH233208   2.331   2.721  12.783  0.6461  0.2136  0.8011
 3906TIP3    H133209   2.275   2.698  12.709 -0.8007  0.8170  1.6758
 3906TIP3    H233210   2.396   2.650  12.787  1.5890  0.8189 -1.8137
 3907TIP3   OH233211   2.518   6.397   1.531 -0.2065  0.1440 -0.4643
 3907TIP3    H133212   2.574   6.442   1.468 -1.1097  1.6757 -0.2372
 3907TIP3    H233213   2.435   6.446   1.528 -0.4102  0.0192  1.5798
 3908TIP3   OH233214   0.990   2.372   1.998 -0.4281  0.0849  0.1327
 3908TIP3    H133215   1.043   2.316   2.054 -0.1421  0.7459  0.5427
 3908TIP3    H233216   1.004   2.460   2.033 -1.5711  0.3012  0.0576
 3909TIP3   OH233217   2.565   1.229   1.221 -0.3885  0.8545 -0.3292
 3909TIP3    H133218   2.565   1.242   1.126 -0.7536 -2.0020 -0.8106
 3909TIP3    H233219   2.481   1.186   1.239  1.0159 -1.6820  0.7189
 3910TIP3   OH233220   0.201   0.808  14.907  0.2456  0.0282 -0.5487
 3910TIP3    H133221   0.131   0.743  14.896 -0.5772  1.1808 -2.6724
 3910TIP3    H233222   0.267   0.783  14.842  0.3130  0.8374 -0.7922
 3911TIP3   OH233223   5.300   0.571   4.687 -0.5218 -0.2414  0.3206
 3911TIP3    H133224   5.228   0.524   4.645 -0.3227 -0.5423  0.3138
 3911TIP3    H233225   5.314   0.524   4.770 -0.0431 -0.4595  0.1236
 3912TIP3   OH233226   6.431   4.066   5.008  0.1404  0.1615 -0.0417
 3912TIP3    H133227   6.378   4.064   4.928  0.6880  0.2404 -0.4171
 3912TIP3    H233228   6.516   4.031   4.980  0.2116 -0.1790  0.6026
 3913TIP3   OH233229   6.815   6.437   3.654 -0.2474  0.0896 -0.0337
 3913TIP3    H133230   6.765   6.518   3.644 -1.7181 -1.0293 -3.3112
 3913TIP3    H233231   6.903   6.459   3.623 -0.0248  0.8838  1.1016
 3914TIP3   OH233232   1.694   2.816   4.352 -0.0346  0.3689 -0.1175
 3914TIP3    H133233   1.709   2.728   4.386  1.5854  1.2071  1.4911
 3914TIP3    H233234   1.602   2.833   4.372  0.1021 -0.2950  1.2056
 3915TIP3   OH233235   1.445   2.531  16.002 -0.0872  0.0566  0.0388
 3915TIP3    H133236   1.526   2.565  16.039 -0.0324  0.9964 -0.8928
 3915TIP3    H233237   1.436   2.443  16.039  2.2979 -0.7896 -1.2264
 3916TIP3   OH233238   6.288   0.197  12.282 -0.4721 -0.3736  0.1203
 3916TIP3    H133239   6.259   0.106  12.289  0.1197 -0.7432 -1.7448
 3916TIP3    H233240   6.221   0.239  12.228 -0.8329  0.3563  1.1161
 3917TIP3   OH233241   0.048   1.045   1.544 -0.1461  0.4320  0.1909
 3917TIP3    H133242   0.014   0.990   1.473 -2.7306  0.7308  1.1031
 3917TIP3    H233243   0.110   1.104   1.501 -0.3896 -0.4885 -1.5143
 3918TIP3   OH233244   0.775   5.779  16.526 -0.2162  1.1080 -0.0171
 3918TIP3    H133245   0.821   5.789  16.609 -1.0023  3.1350  0.2286
 3918TIP3    H233246   0.712   5.851  16.524 -0.5596  0.8306 -2.1551
 3919TIP3   OH233247   2.631   5.022   3.698 -0.2981  0.0043  0.2692
 3919TIP3    H133248   2.597   4.972   3.623  0.4696  0.4551 -0.3935
 3919TIP3    H233249   2.673   5.098   3.659  2.4831 -1.0808  0.9397
 3920TIP3   OH233250   5.384   6.562  12.938 -0.0513 -0.1132  0.5576
 3920TIP3    H133251   5.457   6.518  12.982  1.5122 -0.1825 -1.9150
 3920TIP3    H233252   5.308   6.509  12.960  0.9866 -1.3003  1.4824
 3921TIP3   OH233253   5.863   1.539  13.698 -0.5632  0.1541 -0.2027
 3921TIP3    H133254   5.811   1.620  13.698 -0.6888  0.0746  0.1582
 3921TIP3    H233255   5.900   1.535  13.610  0.3783  1.1993  0.1145
 3922TIP3   OH233256   4.207   4.721   5.343  0.0063  0.3945  0.6044
 3922TIP3    H133257   4.118   4.725   5.379 -0.3306 -0.8974 -0.0188
 3922TIP3    H233258   4.255   4.664   5.403  0.1597  0.3344  0.4250
 3923TIP3   OH233259   1.793   4.350   4.502 -0.1026  0.3892  0.0878
 3923TIP3    H133260   1.869   4.315   4.548  0.2737  1.2972  0.1782
 3923TIP3    H233261   1.805   4.445   4.504  0.4304  0.4769 -2.7114
 3924TIP3   OH233262   0.642   3.820   0.018  0.1690  0.6537  0.0689
 3924TIP3    H133263   0.555   3.791  -0.008  0.7879  0.1676 -1.5637
 3924TIP3    H233264   0.702   3.758  -0.024  1.4193  2.5551 -1.0931
 3925TIP3   OH233265   5.878   5.669   0.462 -0.4201  0.4915 -0.3053
 3925TIP3    H133266   5.958   5.641   0.508 -0.7198  0.5625  0.2670
 3925TIP3    H233267   5.877   5.616   0.382  0.5261  0.9406 -0.6322
 3926TIP3   OH233268   6.068   2.007  15.128 -0.1611  0.3730  0.6866
 3926TIP3    H133269   5.973   2.002  15.130 -0.1060 -2.4510 -0.0530
 3926TIP3    H233270   6.090   2.013  15.035  0.3804 -1.6981  0.6295
 3927TIP3   OH233271   0.625   2.599  12.824  0.5181 -0.6426 -0.3188
 3927TIP3    H133272   0.558   2.629  12.763 -0.3911  3.0209  2.1229
 3927TIP3    H233273   0.582   2.530  12.874 -0.7142  0.0760 -0.3202
 3928TIP3   OH233274   0.964   2.156  14.731  0.1164  0.3659  0.6044
 3928TIP3    H133275   1.054   2.184  14.743 -0.1745  1.8326 -0.3803
 3928TIP3    H233276   0.962   2.066  14.764  1.8654  0.3893  0.8551
 3929TIP3   OH233277   0.611   6.491   2.312  0.3544  0.4650 -0.0344
 3929TIP3    H133278   0.656   6.456   2.235 -1.0505  0.2506 -0.7978
 3929TIP3    H233279   0.636   6.583   2.314  1.6190  0.1438  0.1756
 3930TIP3   OH233280   2.749   4.495  16.830  0.5710 -0.4255 -0.6319
 3930TIP3    H133281   2.782   4.582  16.804  1.1078 -0.5777 -0.4819
 3930TIP3    H233282   2.811   4.434  16.789  1.7906 -0.6663  1.4536
 3931TIP3   OH233283   2.343   6.714  13.190 -0.1333  0.1086 -0.0089
 3931TIP3    H133284   2.402   6.773  13.143 -0.3169  0.3347  0.0461
 3931TIP3    H233285   2.302   6.661  13.121  1.1206 -0.9713  0.0331
 3932TIP3   OH233286   2.690   3.217  17.140 -0.6135  1.0266  0.0701
 3932TIP3    H133287   2.772   3.203  17.189 -0.0848  1.0967 -0.7703
 3932TIP3    H233288   2.707   3.179  17.054 -1.7851  0.2541  0.1542
 3933TIP3   OH233289   5.925   6.409   0.484 -0.1655 -0.5173  0.0309
 3933TIP3    H133290   5.897   6.328   0.442  0.4478 -1.6056  1.6514
 3933TIP3    H233291   5.843   6.456   0.501 -0.5332 -0.8361 -0.7892
 3934TIP3   OH233292   2.437   6.758  13.766  0.2738 -0.9498 -0.5468
 3934TIP3    H133293   2.447   6.703  13.843  1.5239 -1.0789 -0.7798
 3934TIP3    H233294   2.351   6.735  13.731 -0.6201 -0.3877  1.1708
 3935TIP3   OH233295   5.481   5.443   2.891 -0.3013 -0.2826 -0.0173
 3935TIP3    H133296   5.435   5.361   2.875 -2.4037  0.3434  2.1722
 3935TIP3    H233297   5.528   5.429   2.974 -3.0521  1.4472  2.0313
 3936TIP3   OH233298   4.652   4.055  15.160  0.6974 -1.0185 -0.0809
 3936TIP3    H133299   4.599   4.123  15.120  0.0531 -0.6334  1.3429
 3936TIP3    H233300   4.648   4.075  15.254  0.4413 -3.0277  0.3781
 3937TIP3   OH233301   3.920   4.553   5.790  0.4821  0.4706 -0.2185
 3937TIP3    H133302   3.852   4.584   5.850  1.3075 -0.6004  1.3495
 3937TIP3    H233303   3.874   4.497   5.728 -0.3210  1.1891 -0.2934
 3938TIP3   OH233304   2.349   1.982  13.176 -0.0449 -0.1988  1.1072
 3938TIP3    H133305   2.285   2.004  13.243  0.1727  0.7665  1.0188
 3938TIP3    H233306   2.314   1.904  13.133 -2.0744  1.2950 -0.1217
 3939TIP3   OH233307   6.703   6.261  12.565 -0.0235 -0.3790 -0.6962
 3939TIP3    H133308   6.695   6.224  12.653 -0.6298 -0.9790 -0.9880
 3939TIP3    H233309   6.637   6.214  12.514 -0.2292  0.5211 -1.2849
 3940TIP3   OH233310   2.985   3.137   4.095 -0.9161  0.2092  0.0976
 3940TIP3    H133311   2.984   3.217   4.148 -1.1274  1.7900 -2.1365
 3940TIP3    H233312   2.896   3.132   4.059 -0.1874  0.4264 -1.8035
 3941TIP3   OH233313   4.888   5.250   4.655 -0.2573  0.2159  0.4628
 3941TIP3    H133314   4.815   5.204   4.613 -0.1508  0.5955 -0.1520
 3941TIP3    H233315   4.932   5.296   4.583  1.7498 -1.5315  0.4686
 3942TIP3   OH233316   5.613   4.911   3.865  0.1202  0.0398  0.1369
 3942TIP3    H133317   5.544   4.966   3.829  0.1481  0.1543  0.2575
 3942TIP3    H233318   5.641   4.957   3.944 -0.2055 -0.4066  0.5154
 3943TIP3   OH233319   4.920   3.906   0.901 -0.0020  0.1472  0.6683
 3943TIP3    H133320   4.907   3.984   0.954  0.2136 -0.4929  1.7028
 3943TIP3    H233321   4.978   3.850   0.954 -0.3246 -0.8019  0.0538
 3944TIP3   OH233322   2.379   3.443   1.041 -0.1550 -0.2009  0.1971
 3944TIP3    H133323   2.461   3.404   1.071  0.4655  0.5168 -0.5240
 3944TIP3    H233324   2.324   3.368   1.018  0.2451 -0.6940  0.8038
 3945TIP3   OH233325   1.345   1.582   1.906  0.0355  0.7279 -0.5847
 3945TIP3    H133326   1.333   1.644   1.834  0.2363  0.3269 -0.9680
 3945TIP3    H233327   1.348   1.637   1.985  1.3115  1.3074 -1.0154
 3946TIP3   OH233328   5.403   4.995   5.048  0.3345 -0.4558  0.3290
 3946TIP3    H133329   5.338   5.036   4.991 -1.0089 -0.6589  1.6350
 3946TIP3    H233330   5.356   4.979   5.130  1.2499 -3.1029  0.4397
 3947TIP3   OH233331   4.854   6.704  15.310 -0.5166 -0.2263 -0.0684
 3947TIP3    H133332   4.855   6.636  15.378  0.9415  0.2864  0.4720
 3947TIP3    H233333   4.935   6.753  15.325 -0.5104  0.3267 -1.7661
 3948TIP3   OH233334   1.614   5.584   0.770  0.2243 -0.1501 -0.0979
 3948TIP3    H133335   1.562   5.638   0.830  1.4370 -0.0024  0.8742
 3948TIP3    H233336   1.549   5.533   0.722 -0.9309  1.6158 -0.5333
 3949TIP3   OH233337   2.016   5.209  17.159  0.2982  0.3576  0.0926
 3949TIP3    H133338   2.111   5.202  17.171  0.3824 -0.2078 -0.8413
 3949TIP3    H233339   1.998   5.161  17.078 -1.0039 -0.8956  1.0717
 3950TIP3   OH233340   1.208   3.005  15.950 -0.0052  0.0373 -0.4160
 3950TIP3    H133341   1.123   2.981  15.988 -0.8097  2.0554 -0.8373
 3950TIP3    H233342   1.260   3.033  16.026  0.1140 -0.6623 -0.2279
 3951TIP3   OH233343   1.611   4.818   2.599  0.3073  0.2918 -0.3766
 3951TIP3    H133344   1.573   4.731   2.612 -0.8031  0.9982  1.3021
 3951TIP3    H233345   1.550   4.863   2.541 -0.0514  0.5345  0.1828
 3952TIP3   OH233346   2.734   3.566   1.014  0.1366  0.4426 -0.3748
 3952TIP3    H133347   2.772   3.538   0.930  3.0125  2.0374  0.2549
 3952TIP3    H233348   2.710   3.657   1.000 -3.6349 -0.4353 -0.6715
 3953TIP3   OH233349   5.607   5.054   5.258  0.6753 -0.1231  0.2576
 3953TIP3    H133350   5.665   4.980   5.242  0.1086 -0.4449 -0.3492
 3953TIP3    H233351   5.535   5.042   5.197  0.1357  0.4570  0.7661
 3954TIP3   OH233352   3.712   2.973   2.166 -0.0050 -0.3813 -0.3705
 3954TIP3    H133353   3.657   3.037   2.210 -1.2316 -0.4080 -1.7564
 3954TIP3    H233354   3.701   2.892   2.216 -0.6090 -0.1822 -0.1815
 3955TIP3   OH233355   4.332   1.514  12.378  0.4919  0.4475  0.3879
 3955TIP3    H133356   4.404   1.453  12.393  0.2301 -0.6887 -2.3614
 3955TIP3    H233357   4.323   1.519  12.283 -2.4738  1.2601  0.5815
 3956TIP3   OH233358   3.775   1.963  13.049 -0.2156 -0.2766  0.0502
 3956TIP3    H133359   3.765   2.042  13.101 -2.8384  0.4366 -1.3918
 3956TIP3    H233360   3.752   1.892  13.108  0.4818  0.1417  0.8580
 3957TIP3   OH233361   2.709   0.444   0.407  0.1157  0.1975 -0.3326
 3957TIP3    H133362   2.786   0.456   0.351  0.6689  0.8375  0.5545
 3957TIP3    H233363   2.713   0.352   0.433  0.3815  0.1454 -0.5524
 3958TIP3   OH233364   4.211   0.669   3.217  0.7780 -0.5087  0.1333
 3958TIP3    H133365   4.268   0.643   3.290  2.6737 -0.5268 -1.2838
 3958TIP3    H233366   4.235   0.609   3.146 -0.2868  0.1715 -0.8296
 3959TIP3   OH233367   0.131   1.170  15.444 -0.3458  0.1161  0.3577
 3959TIP3    H133368   0.202   1.230  15.464  0.4986 -0.8168  0.2446
 3959TIP3    H233369   0.119   1.119  15.524 -1.5657  0.9033  0.7117
 3960TIP3   OH233370   4.081   2.855   5.681 -0.7951  0.1910 -0.1465
 3960TIP3    H133371   4.052   2.774   5.641 -1.6501  0.7915 -0.7720
 3960TIP3    H233372   4.021   2.922   5.648  1.1065  1.4538 -1.3169
 3961TIP3   OH233373   0.934   2.914   3.609  0.9228  0.6974  0.1134
 3961TIP3    H133374   0.865   2.978   3.623  0.7950  0.4746  0.5504
 3961TIP3    H233375   0.915   2.844   3.673  0.3462 -0.3707 -1.1795
 3962TIP3   OH233376   6.515   2.164   2.790 -1.0409  0.1838  0.0305
 3962TIP3    H133377   6.547   2.086   2.744 -1.4235  0.4061 -0.6261
 3962TIP3    H233378   6.545   2.153   2.880  0.1438 -0.0261 -0.3722
 3963TIP3   OH233379   1.606   4.761  15.319  0.0359 -0.0591  0.0971
 3963TIP3    H133380   1.562   4.846  15.324 -0.6681 -0.3824 -0.3452
 3963TIP3    H233381   1.556   4.704  15.377  1.4764  0.2088  1.6610
 3964TIP3   OH233382   0.107   4.271   4.157  0.1137 -0.0479 -0.5808
 3964TIP3    H133383   0.042   4.323   4.203  0.4575 -0.1104 -0.0179
 3964TIP3    H233384   0.174   4.334   4.130  1.9868 -0.5093  2.5800
 3965TIP3   OH233385   4.283   4.008  10.597 -0.6619 -0.1538 -0.5035
 3965TIP3    H133386   4.278   4.102  10.615 -0.0762 -0.2911  0.4631
 3965TIP3    H233387   4.269   4.001  10.503 -0.3384  0.9404 -0.6526
 3966TIP3   OH233388   3.309   3.284   5.000  0.0506 -0.2277 -0.0699
 3966TIP3    H133389   3.403   3.266   5.004 -0.0755 -1.2271 -1.2114
 3966TIP3    H233390   3.270   3.203   4.968 -1.3456 -0.2003  1.4417
 3967TIP3   OH233391   2.229   3.978  15.380  0.0067  0.0651 -0.3937
 3967TIP3    H133392   2.319   3.959  15.352  0.3423  3.1573 -1.8111
 3967TIP3    H233393   2.176   3.958  15.303 -0.2660  0.0397 -0.1982
 3968TIP3   OH233394   4.001   2.399   4.903  0.4619 -0.4726 -0.2249
 3968TIP3    H133395   3.993   2.305   4.917  1.5055 -0.9538 -2.4939
 3968TIP3    H233396   4.003   2.410   4.808  0.0073  1.8882 -0.0314
 3969TIP3   OH233397   4.265   4.576   2.647 -0.4235 -0.0225  0.1811
 3969TIP3    H133398   4.314   4.518   2.706  0.4640  1.1507  0.6413
 3969TIP3    H233399   4.286   4.545   2.559  1.3730  0.5925  0.3584
 3970TIP3   OH233400   0.544   3.338   3.274  0.2677 -0.1828 -0.4217
 3970TIP3    H133401   0.498   3.258   3.298  0.7431 -0.2114  0.4275
 3970TIP3    H233402   0.611   3.348   3.341  0.3284  0.8351 -0.6200
 3971TIP3   OH233403   0.393   4.061  14.684 -0.2125  0.5033  0.2578
 3971TIP3    H133404   0.410   4.145  14.641 -1.5382  1.3023  1.2019
 3971TIP3    H233405   0.462   4.003  14.653  0.2364  1.7038 -1.0814
 3972TIP3   OH233406   4.366   2.074  12.094 -0.0399  0.8817 -0.6573
 3972TIP3    H133407   4.341   1.987  12.124 -1.1315  0.9231 -1.3907
 3972TIP3    H233408   4.309   2.091  12.019  0.9023  1.7858 -1.2012
 3973TIP3   OH233409   3.197   3.841  14.602  0.2177  0.2843  0.7833
 3973TIP3    H133410   3.104   3.817  14.599 -0.1454  1.4287 -3.5888
 3973TIP3    H233411   3.243   3.759  14.585 -0.1973  0.1862  0.0784
 3974TIP3   OH233412   4.153   3.478   3.209 -0.8076 -0.0574 -0.4518
 3974TIP3    H133413   4.240   3.508   3.236 -2.1321  2.0407  1.9404
 3974TIP3    H233414   4.113   3.554   3.166 -1.5916 -0.9073 -1.2846
 3975TIP3   OH233415   3.908   4.803   6.068 -0.0199  0.8129  0.8788
 3975TIP3    H133416   3.914   4.875   6.131 -0.9318  1.0938  0.6690
 3975TIP3    H233417   3.834   4.827   6.013  0.8904  0.6709 -0.4401
 3976TIP3   OH233418   6.735   6.019  13.748 -0.5120  0.2287 -0.4572
 3976TIP3    H133419   6.677   6.069  13.690 -0.2470  1.1348  0.0408
 3976TIP3    H233420   6.680   5.948  13.781 -1.1319  0.6446 -0.5740
 3977TIP3   OH233421   2.101   6.263  13.073  0.3279  0.0411  0.0854
 3977TIP3    H133422   2.061   6.191  13.024 -0.0153  0.7148 -0.6468
 3977TIP3    H233423   2.038   6.283  13.142  1.0234 -1.2230  1.1373
 3978TIP3   OH233424   1.701   2.135   5.130 -0.2224 -0.1601  0.5675
 3978TIP3    H133425   1.769   2.076   5.160 -0.0353 -0.1217  0.2258
 3978TIP3    H233426   1.739   2.222   5.139 -0.8846 -0.0024  2.0866
 3979TIP3   OH233427   3.335   2.339   3.182 -0.4793 -0.2996 -0.2462
 3979TIP3    H133428   3.291   2.262   3.147  2.1397 -1.2570 -1.6980
 3979TIP3    H233429   3.312   2.410   3.122  0.9233 -1.0928 -1.8002
 3980TIP3   OH233430   5.351   0.744   1.610 -0.0451  0.2984  0.0800
 3980TIP3    H133431   5.296   0.774   1.537  1.9664  1.2117 -1.1471
 3980TIP3    H233432   5.347   0.816   1.673 -1.6067 -0.3960  0.8293
 3981TIP3   OH233433   5.041   4.849  10.994 -0.1786 -0.4174 -0.1452
 3981TIP3    H133434   4.951   4.820  11.005 -0.0470 -0.8920 -0.2588
 3981TIP3    H233435   5.093   4.769  11.008  0.2348 -0.0991  0.1610
 3982TIP3   OH233436   5.880   3.736  13.391  0.4548 -0.0334  0.6693
 3982TIP3    H133437   5.845   3.654  13.357  0.6470 -0.1242  0.6871
 3982TIP3    H233438   5.959   3.710  13.439  0.4638  0.1506  0.7564
 3983TIP3   OH233439   0.136   6.321  10.849 -0.3704  0.0468  0.0197
 3983TIP3    H133440   0.199   6.383  10.886  3.7496 -3.4076 -0.3354
 3983TIP3    H233441   0.095   6.280  10.925  1.2932 -0.7473  0.5382
 3984TIP3   OH233442   6.698   5.357   2.369  0.3124 -0.2244  0.0985
 3984TIP3    H133443   6.615   5.321   2.400  0.4306 -0.8109 -0.2447
 3984TIP3    H233444   6.737   5.286   2.318  0.0279  0.7667 -1.5677
 3985TIP3   OH233445   2.929   0.414  13.787 -0.3346  0.4802 -0.4927
 3985TIP3    H133446   2.866   0.368  13.842 -0.0902 -2.1091 -2.2065
 3985TIP3    H233447   3.008   0.420  13.841 -0.4793 -0.9069 -0.0931
 3986TIP3   OH233448   6.523   2.010   3.021 -0.5557  0.0648  0.0222
 3986TIP3    H133449   6.511   2.031   3.113 -0.7315  2.2135 -0.4371
 3986TIP3    H233450   6.445   1.962   2.997 -0.8805  0.1807  0.8164
 3987TIP3   OH233451   0.553   5.080  16.336 -0.2169 -0.3148  0.3105
 3987TIP3    H133452   0.556   5.148  16.269 -1.0149 -0.5340  0.0496
 3987TIP3    H233453   0.470   5.035  16.322  0.3705 -1.4628  0.3702
 3988TIP3   OH233454   6.243   0.680   0.502  0.1656  0.0121  0.2186
 3988TIP3    H133455   6.168   0.728   0.537 -1.0371 -0.6609 -1.3290
 3988TIP3    H233456   6.283   0.740   0.439  1.0610  0.4280  1.1505
 3989TIP3   OH233457   6.504   3.854  13.402  0.7446 -0.1868 -0.2146
 3989TIP3    H133458   6.471   3.900  13.325  1.1271  0.4007 -0.0363
 3989TIP3    H233459   6.438   3.787  13.420  0.2197  0.2344 -0.5300
 3990TIP3   OH233460   2.741   2.099   1.342 -0.2931  0.1854 -0.6279
 3990TIP3    H133461   2.782   2.186   1.349  0.8717 -0.3813 -0.1055
 3990TIP3    H233462   2.766   2.068   1.255  1.4424 -0.6445  0.1267
 3991TIP3   OH233463   5.697   0.864   1.491  0.2285 -0.8929 -0.3157
 3991TIP3    H133464   5.726   0.948   1.527  2.8938 -0.7462 -2.5619
 3991TIP3    H233465   5.682   0.809   1.568  1.0844  0.8117  1.1283
 3992TIP3   OH233466   2.922   3.800  11.707 -0.0776 -0.1970  0.0663
 3992TIP3    H133467   2.927   3.717  11.755  0.2986  0.0154  0.3983
 3992TIP3    H233468   2.908   3.774  11.616  0.2070 -0.6317  0.1415
 3993TIP3   OH233469   2.146   3.232  16.746 -0.1446  0.1462 -0.0001
 3993TIP3    H133470   2.093   3.191  16.815 -1.7457  0.3207 -1.0933
 3993TIP3    H233471   2.197   3.160  16.709  0.1307 -0.0928  0.8167
 3994TIP3   OH233472   3.677   5.832   2.500  0.0536  0.1950 -0.2263
 3994TIP3    H133473   3.663   5.753   2.552 -1.0993 -0.8480 -2.0079
 3994TIP3    H233474   3.762   5.817   2.457 -0.7889 -0.7712 -1.6376
 3995TIP3   OH233475   3.876   1.259  16.991 -0.0105 -0.0869 -0.0104
 3995TIP3    H133476   3.884   1.330  17.055  0.5803  2.6860 -2.8745
 3995TIP3    H233477   3.785   1.230  16.997  0.1493 -0.2418  2.3157
 3996TIP3   OH233478   5.857   5.569   1.739 -0.2533  0.0434  0.0605
 3996TIP3    H133479   5.904   5.611   1.667 -0.8102  0.1591 -0.2461
 3996TIP3    H233480   5.765   5.575   1.714 -0.4620  0.1381  0.8165
 3997TIP3   OH233481   6.298   6.225   0.695  0.0454  0.3263  0.8474
 3997TIP3    H133482   6.296   6.130   0.704 -0.6001  0.2694  0.2227
 3997TIP3    H233483   6.205   6.251   0.699  0.2108  0.9209  0.9232
 3998TIP3   OH233484   5.787   4.395   2.845  0.1483 -0.0339  0.0139
 3998TIP3    H133485   5.741   4.394   2.761 -0.8618 -0.6388  0.5513
 3998TIP3    H233486   5.830   4.310   2.851  0.0123 -0.0916  0.2084
 3999TIP3   OH233487   1.586   0.440   5.094 -0.1552 -0.0803  0.1204
 3999TIP3    H133488   1.651   0.370   5.094  2.1556  1.9151  1.5053
 3999TIP3    H233489   1.529   0.419   5.168 -1.6443 -2.2010 -1.5086
 4000TIP3   OH233490   3.570   3.317   2.667 -0.0358  0.8550 -0.2465
 4000TIP3    H133491   3.525   3.331   2.584  2.7451 -2.4100 -2.5838
 4000TIP3    H233492   3.656   3.359   2.655  0.5947 -0.1031  0.7047
 4001TIP3   OH233493   6.482   5.307  16.776  0.7074 -0.2244  0.4710
 4001TIP3    H133494   6.536   5.332  16.851  0.4617  2.2773 -0.0962
 4001TIP3    H233495   6.428   5.384  16.758 -1.2102 -1.7240 -0.5981
 4002TIP3   OH233496   0.733   6.001  12.511 -0.8613 -0.7310 -0.3654
 4002TIP3    H133497   0.661   6.064  12.521 -0.0658  0.5554 -2.1611
 4002TIP3    H233498   0.739   5.958  12.596 -1.9233  1.1230  0.7240
 4003TIP3   OH233499   6.273   0.004   2.870  0.2515 -0.3181 -0.0705
 4003TIP3    H133500   6.335   0.021   2.799  0.2072 -0.5944 -0.1750
 4003TIP3    H233501   6.191  -0.020   2.825  0.2195 -0.4775  0.0728
 4004TIP3   OH233502   5.485   2.857  16.178  0.1242 -0.2891 -0.0520
 4004TIP3    H133503   5.470   2.812  16.261 -0.9871 -0.2896 -0.2372
 4004TIP3    H233504   5.537   2.796  16.126  2.2575  0.3527  1.2014
 4005TIP3   OH233505   5.419   0.591   4.244 -0.3335  0.3784  0.1065
 4005TIP3    H133506   5.415   0.495   4.241  1.0553  0.3019  0.0968
 4005TIP3    H233507   5.389   0.618   4.157  2.5131 -0.2328 -1.1739
 4006TIP3   OH233508   0.258   2.621   2.859 -0.5762  0.2217 -0.4602
 4006TIP3    H133509   0.189   2.687   2.871 -1.0772 -0.4038  0.1397
 4006TIP3    H233510   0.265   2.612   2.764 -0.1943  1.4462 -0.5745
 4007TIP3   OH233511   4.674   4.595  10.437  0.4764  0.1963  0.3249
 4007TIP3    H133512   4.737   4.651  10.483  0.9785  0.2076 -0.3564
 4007TIP3    H233513   4.615   4.656  10.393  1.8328  0.2470 -1.5254
 4008TIP3   OH233514   4.246   3.850   5.592  0.5275  0.2463 -0.3129
 4008TIP3    H133515   4.297   3.827   5.514  1.2633  1.3538 -0.1802
 4008TIP3    H233516   4.288   3.801   5.663 -0.4882 -1.2050 -0.6656
 4009TIP3   OH233517   4.146   4.465   2.172  0.6385  0.3633  0.4241
 4009TIP3    H133518   4.087   4.539   2.186  0.7053  0.5304 -0.1301
 4009TIP3    H233519   4.222   4.503   2.128  1.0106  0.0897  0.8233
 4010TIP3   OH233520   2.992   5.960  11.863  0.2084 -0.0871  0.0776
 4010TIP3    H133521   3.030   6.040  11.899  2.1823 -0.2893 -1.4372
 4010TIP3    H233522   2.935   5.990  11.792 -0.5651  0.0602  0.7440
 4011TIP3   OH233523   1.727   6.028   2.444  0.7647 -0.3562  0.2222
 4011TIP3    H133524   1.770   6.111   2.426  3.2531 -1.5312  0.3174
 4011TIP3    H233525   1.716   5.987   2.359  1.0444 -0.6167  0.3101
 4012TIP3   OH233526   1.256   0.648  12.260 -0.3804  0.8927  0.3341
 4012TIP3    H133527   1.212   0.618  12.339  0.1565 -3.2869 -0.7254
 4012TIP3    H233528   1.350   0.638  12.280 -0.2222  0.4565 -0.5924
 4013TIP3   OH233529   1.553   4.232   4.650  0.5185  0.2006  0.5388
 4013TIP3    H133530   1.541   4.290   4.725  0.1117 -0.1710  0.7666
 4013TIP3    H233531   1.628   4.268   4.602 -1.7774  3.0081 -1.2608
 4014TIP3   OH233532   0.771   5.819  14.621 -0.3566  0.0325 -0.0982
 4014TIP3    H133533   0.684   5.857  14.611 -0.9232 -1.3966 -0.8960
 4014TIP3    H233534   0.776   5.752  14.553  1.6195  0.5215 -0.4984
 4015TIP3   OH233535   5.493   2.442  13.889  0.3092  0.3701  0.0345
 4015TIP3    H133536   5.408   2.413  13.857  0.4927  1.1005 -1.1773
 4015TIP3    H233537   5.554   2.425  13.817  1.4869 -1.3587  1.3431
 4016TIP3   OH233538   4.448   3.219  16.997  0.7476  0.0746  0.1012
 4016TIP3    H133539   4.454   3.156  16.924  1.4560  0.3190 -0.0617
 4016TIP3    H233540   4.364   3.262  16.984  1.1689  0.6066 -0.9891
 4017TIP3   OH233541   3.300   2.298  13.600 -0.0300  0.2045 -0.1030
 4017TIP3    H133542   3.206   2.300  13.581 -0.4550  2.6079  1.7940
 4017TIP3    H233543   3.306   2.312  13.695  2.2661  1.4417 -0.3596
 4018TIP3   OH233544   4.157   3.515   3.989  0.2117 -0.4088  0.1417
 4018TIP3    H133545   4.083   3.460   4.013 -0.7098  1.1074  0.9229
 4018TIP3    H233546   4.134   3.551   3.903 -1.4270  2.3057  1.5502
 4019TIP3   OH233547   1.755   0.365   4.058  0.1318  0.0922  0.0608
 4019TIP3    H133548   1.678   0.318   4.092 -0.6398  0.0811 -1.6121
 4019TIP3    H233549   1.741   0.456   4.084 -2.0525  0.6964 -2.6898
 4020TIP3   OH233550   3.581   1.627   4.527  0.2385 -0.1278 -0.1428
 4020TIP3    H133551   3.515   1.620   4.597  0.7749  0.6342  0.4609
 4020TIP3    H233552   3.628   1.544   4.530  2.4446  1.0384  2.6964
 4021TIP3   OH233553   0.201   1.432   4.300  0.3019 -0.0207  0.4090
 4021TIP3    H133554   0.138   1.486   4.251  0.6128 -0.8129 -0.8911
 4021TIP3    H233555   0.147   1.389   4.366 -1.1840 -2.8280 -2.3592
 4022TIP3   OH233556   3.524   4.525  14.470 -0.0268 -0.4698 -0.0269
 4022TIP3    H133557   3.587   4.595  14.456 -1.1927  0.5101 -0.6599
 4022TIP3    H233558   3.576   4.450  14.499  1.1685  0.9288  1.6825
 4023TIP3   OH233559   3.859   3.557  13.990  0.0222 -0.0017 -0.4542
 4023TIP3    H133560   3.884   3.649  13.998 -0.5727  0.2995 -1.7479
 4023TIP3    H233561   3.775   3.559  13.944 -1.2706 -1.0821  1.6765
 4024TIP3   OH233562   2.246   3.132   1.693 -0.2983  0.1389 -0.3861
 4024TIP3    H133563   2.248   3.135   1.597 -2.4641 -1.1349 -0.5466
 4024TIP3    H233564   2.312   3.066   1.716 -0.1552  0.0508 -1.0293
 4025TIP3   OH233565   0.479   1.602   4.542  0.3188 -0.4466  0.2602
 4025TIP3    H133566   0.400   1.622   4.593 -0.9039 -4.5043  0.2853
 4025TIP3    H233567   0.546   1.586   4.608 -0.0921 -1.4465  0.4440
 4026TIP3   OH233568   0.125   2.980   0.318  0.1488  0.3270 -0.4234
 4026TIP3    H133569   0.144   3.020   0.402 -2.5111 -1.6818  1.2988
 4026TIP3    H233570   0.037   3.011   0.295  0.4384  0.0982 -2.0130
 4027TIP3   OH233571   1.374   6.564   3.067  0.2046  0.4568 -0.1180
 4027TIP3    H133572   1.397   6.590   2.977 -0.8891  0.2949 -0.4648
 4027TIP3    H233573   1.288   6.522   3.058  0.4957 -0.3962  0.8805
 4028TIP3   OH233574   5.409   5.646   4.910  0.1933  0.6882 -0.3299
 4028TIP3    H133575   5.356   5.664   4.833  0.4460  0.6992 -0.5007
 4028TIP3    H233576   5.456   5.727   4.927 -0.0308  0.7596 -0.0267
 4029TIP3   OH233577   5.326   4.743   5.599  0.0466 -0.2786  0.3242
 4029TIP3    H133578   5.386   4.786   5.538 -0.8108 -0.0706 -0.4106
 4029TIP3    H233579   5.370   4.661   5.623  0.3494 -0.4352 -0.7001
 4030TIP3   OH233580   3.144   4.971   4.484  0.1499 -0.1687  0.2229
 4030TIP3    H133581   3.179   4.924   4.559 -0.1467 -0.2910  0.2832
 4030TIP3    H233582   3.172   4.920   4.408  0.4774 -0.0271  0.2464
 4031TIP3   OH233583   5.516   5.832  16.813  0.3531 -0.4089 -0.0544
 4031TIP3    H133584   5.573   5.879  16.752  1.0448  0.4262  1.1845
 4031TIP3    H233585   5.437   5.814  16.763  1.2639 -0.6075 -1.4848
 4032TIP3   OH233586   0.793   0.212   5.200  0.2952  0.5643 -0.1959
 4032TIP3    H133587   0.766   0.124   5.228 -2.8119  1.7197  0.8683
 4032TIP3    H233588   0.873   0.229   5.249  2.0664 -2.2753 -1.8072
 4033TIP3   OH233589   4.569   6.133  16.570 -0.2130 -1.0179  0.1225
 4033TIP3    H133590   4.627   6.106  16.642  0.2686 -1.3374 -0.3776
 4033TIP3    H233591   4.626   6.135  16.493 -0.1936  1.3945  0.0948
 4034TIP3   OH233592   2.118   6.326  14.095 -0.1910 -0.1904 -0.2317
 4034TIP3    H133593   2.084   6.416  14.098  1.5572  0.5449 -1.1086
 4034TIP3    H233594   2.102   6.297  14.006  1.0428  0.0112 -0.5325
 4035TIP3   OH233595   6.453   2.707   0.214  0.0012  0.1865 -0.3346
 4035TIP3    H133596   6.515   2.647   0.174 -0.0344  0.3726 -0.6705
 4035TIP3    H233597   6.439   2.775   0.148  0.7064  1.0366  0.3641
 4036TIP3   OH233598   4.062   0.626  11.574 -0.0002  0.1757 -0.3069
 4036TIP3    H133599   3.978   0.630  11.619  0.2306 -0.6723  0.2283
 4036TIP3    H233600   4.111   0.558  11.621  2.3461  2.9931  1.6343
 4037TIP3   OH233601   1.493   5.296  15.527 -0.3645 -0.5104  0.3798
 4037TIP3    H133602   1.421   5.357  15.513  0.2684  0.3396  0.7694
 4037TIP3    H233603   1.561   5.322  15.465 -0.0236 -0.7063  0.6625
 4038TIP3   OH233604   5.174   0.114   3.003 -0.3929  0.1310 -0.2802
 4038TIP3    H133605   5.107   0.072   3.056 -1.2005  0.8697 -0.6912
 4038TIP3    H233606   5.255   0.105   3.054 -1.2268  1.2802  1.3270
 4039TIP3   OH233607   2.163   3.928   4.659  0.1526  0.5728  0.1478
 4039TIP3    H133608   2.073   3.944   4.631 -0.3796 -1.0829  0.7342
 4039TIP3    H233609   2.181   3.839   4.629  0.2089 -0.5889  3.2023
 4040TIP3   OH233610   3.716   1.638   1.438 -0.4905  0.5226 -0.3327
 4040TIP3    H133611   3.692   1.546   1.451  1.4317  0.0338  0.0779
 4040TIP3    H233612   3.641   1.675   1.392 -2.4928 -0.5660  1.7998
 4041TIP3   OH233613   0.987   5.777   6.038  0.0865 -0.2298 -0.1122
 4041TIP3    H133614   1.007   5.758   6.130  0.1298 -1.3137 -0.3361
 4041TIP3    H233615   0.949   5.865   6.039  1.8453  0.5786  0.7207
 4042TIP3   OH233616   5.460   5.973  16.140 -0.9342 -0.3072 -0.1507
 4042TIP3    H133617   5.552   5.999  16.133 -1.5408  1.9885 -0.5954
 4042TIP3    H233618   5.448   5.907  16.072  0.4355 -0.8765  0.1262
 4043TIP3   OH233619   3.183   4.049  13.651 -0.7092  0.0529  0.1881
 4043TIP3    H133620   3.107   4.072  13.597  0.5414  1.2678 -1.1308
 4043TIP3    H233621   3.200   4.127  13.702 -1.4580 -0.8622  1.9166
 4044TIP3   OH233622   5.178   4.701   3.466  0.1726  0.3120 -0.3143
 4044TIP3    H133623   5.262   4.745   3.477 -0.0123  0.6145 -0.1156
 4044TIP3    H233624   5.119   4.746   3.526 -0.3365  0.6554 -1.0593
 4045TIP3   OH233625   3.263   5.268   4.341  0.3787  0.4506 -0.2369
 4045TIP3    H133626   3.254   5.173   4.341  0.8182  0.3571  2.0140
 4045TIP3    H233627   3.304   5.288   4.257 -1.2134 -1.1450 -1.4665
 4046TIP3   OH233628   0.343   2.672  14.047  0.0459  0.3752 -0.6915
 4046TIP3    H133629   0.283   2.701  14.115 -0.5262 -3.3327  0.6392
 4046TIP3    H233630   0.429   2.700  14.077 -0.4867  1.1830  0.1289
 4047TIP3   OH233631   3.963   2.999   2.401 -0.5067 -0.1188 -0.1647
 4047TIP3    H133632   3.903   2.927   2.419  1.4705 -1.3602  2.0569
 4047TIP3    H233633   3.978   3.039   2.487  3.0233 -0.9224 -0.2573
 4048TIP3   OH233634   5.772   5.851   1.479  0.1869 -0.4719 -0.0431
 4048TIP3    H133635   5.798   5.909   1.408 -0.3366 -0.7518 -0.4706
 4048TIP3    H233636   5.855   5.820   1.516  0.5131 -1.9120 -1.8476
 4049TIP3   OH233637   0.852   2.485  11.697 -0.2859 -0.1318  0.5829
 4049TIP3    H133638   0.800   2.533  11.762  0.6744  0.6577  0.8039
 4049TIP3    H233639   0.820   2.395  11.702 -2.2431  0.4907  0.0477
 4050TIP3   OH233640   6.147   0.751  16.045 -0.3108 -0.0735 -0.1322
 4050TIP3    H133641   6.169   0.660  16.067  2.8904  0.4313 -0.7653
 4050TIP3    H233642   6.156   0.798  16.127  1.9539  0.2376 -0.5018
 4051TIP3   OH233643   1.640   6.765  16.121 -0.0462  0.1303  0.7561
 4051TIP3    H133644   1.568   6.826  16.102 -0.1018 -0.0488  0.3910
 4051TIP3    H233645   1.647   6.711  16.042  0.2598 -0.0808  0.9293
 4052TIP3   OH233646   3.321   1.883  15.120  0.0267 -0.9656  0.1390
 4052TIP3    H133647   3.391   1.893  15.184 -1.4880  2.5615  1.5391
 4052TIP3    H233648   3.345   1.942  15.049 -1.2324 -0.0226  0.4506
 4053TIP3   OH233649   4.709   3.264   0.769 -0.8114  1.0544 -0.3083
 4053TIP3    H133650   4.739   3.338   0.822 -0.0445  1.0220 -0.6779
 4053TIP3    H233651   4.635   3.298   0.719  1.4102  2.5444 -2.8064
 4054TIP3   OH233652   5.699   1.517   3.580  0.7771 -0.1225 -0.4626
 4054TIP3    H133653   5.677   1.508   3.673  3.0144  0.1574  0.1667
 4054TIP3    H233654   5.650   1.448   3.537 -1.0993  0.3657  0.7597
 4055TIP3   OH233655   4.511   6.417   1.094  0.3005 -0.2110  0.2899
 4055TIP3    H133656   4.429   6.372   1.074  1.4091 -0.8498 -3.4821
 4055TIP3    H233657   4.569   6.349   1.127  0.5147 -0.6535 -0.9460
 4056TIP3   OH233658   1.947   2.442   2.035 -0.1224  0.4671 -0.1597
 4056TIP3    H133659   2.009   2.492   2.088  0.1349  0.2871 -0.2899
 4056TIP3    H233660   1.954   2.479   1.947  1.0925 -0.7115 -0.5801
 4057TIP3   OH233661   1.382   6.555  13.024  1.3030 -0.0613 -0.0153
 4057TIP3    H133662   1.370   6.525  12.934 -1.4666 -0.1191  0.2896
 4057TIP3    H233663   1.358   6.648  13.021 -0.4403 -0.4411  0.9027
 4058TIP3   OH233664   4.787   3.338   6.541 -0.3518  0.0681 -1.1007
 4058TIP3    H133665   4.753   3.260   6.497  0.7062 -1.3226  0.4299
 4058TIP3    H233666   4.859   3.306   6.595  2.3389  2.6051 -2.8756
 4059TIP3   OH233667   1.424   4.637  15.502  0.5157  0.0813 -0.0051
 4059TIP3    H133668   1.359   4.568  15.490 -0.4635  0.6805  1.5286
 4059TIP3    H233669   1.372   4.716  15.521  1.6579  0.5747  1.2976
 4060TIP3   OH233670   0.128   4.179   1.405 -0.0362  0.4750 -0.1149
 4060TIP3    H133671   0.074   4.203   1.330  2.0758 -0.1816 -1.9268
 4060TIP3    H233672   0.083   4.102   1.441 -2.2202  2.0041  0.6793
 4061TIP3   OH233673   1.843   0.133  15.851  0.4769  0.4957 -0.7207
 4061TIP3    H133674   1.881   0.173  15.929  0.5745  1.3362 -1.1756
 4061TIP3    H233675   1.903   0.157  15.780  0.1752  0.1027 -1.1184
 4062TIP3   OH233676   3.777   6.168   1.550  0.0132 -0.3548  0.4757
 4062TIP3    H133677   3.742   6.258   1.553 -2.0713 -1.1145  3.0641
 4062TIP3    H233678   3.868   6.177   1.579 -0.8972  0.7713  3.3900
 4063TIP3   OH233679   5.492   4.447  12.074  0.2215  0.4795  0.3775
 4063TIP3    H133680   5.492   4.435  12.169  0.6760  0.2102  0.3442
 4063TIP3    H233681   5.487   4.359  12.039 -0.6545  0.6073  0.1477
 4064TIP3   OH233682   2.900   1.610  11.190  0.4367  0.5871 -0.3921
 4064TIP3    H133683   2.813   1.573  11.174  1.1533 -0.7222 -1.4437
 4064TIP3    H233684   2.946   1.601  11.107  2.1362 -0.3019  0.5969
 4065TIP3   OH233685   4.456   2.352   0.831 -0.2207  0.6073  0.4969
 4065TIP3    H133686   4.386   2.312   0.881  0.6614 -1.5162  0.1527
 4065TIP3    H233687   4.421   2.436   0.802 -2.0139  0.2937  1.6451
 4066TIP3   OH233688   3.768   1.429  14.775  0.4185  0.3169 -0.0349
 4066TIP3    H133689   3.810   1.505  14.816  0.3351  0.3167  0.0515
 4066TIP3    H233690   3.691   1.412  14.830 -0.2927  0.9735 -0.8012
 4067TIP3   OH233691   2.336   0.480  13.490  0.3364  0.1048 -0.7278
 4067TIP3    H133692   2.353   0.451  13.580 -1.0451  2.8242  0.5394
 4067TIP3    H233693   2.298   0.404  13.447 -0.2704 -0.8829  1.4336
 4068TIP3   OH233694   3.455   6.008   4.089 -0.2128  1.1842  0.6237
 4068TIP3    H133695   3.425   5.956   4.163  2.6123  0.0242  1.0657
 4068TIP3    H233696   3.494   6.086   4.129 -0.6153  1.6248  0.1846
 4069TIP3   OH233697   1.089   4.056   0.524  0.0327 -0.1196  0.0127
 4069TIP3    H133698   0.996   4.051   0.548 -0.4635  0.4207 -1.6502
 4069TIP3    H233699   1.091   4.114   0.448  1.5693 -1.2682 -0.8698
 4070TIP3   OH233700   0.860   1.924   5.630 -0.4526  0.1620  0.3367
 4070TIP3    H133701   0.781   1.939   5.682 -0.0804  3.7305  0.0964
 4070TIP3    H233702   0.828   1.904   5.543 -1.0513 -1.0025  0.8007
 4071TIP3   OH233703   1.275   2.799   0.915 -0.1783  0.0800  0.0401
 4071TIP3    H133704   1.230   2.836   0.839 -0.9455 -0.3557  0.2728
 4071TIP3    H233705   1.320   2.722   0.880 -3.5626 -2.4061  0.6079
 4072TIP3   OH233706   5.446   5.276   3.144  0.1825 -0.2614 -0.2935
 4072TIP3    H133707   5.403   5.198   3.176 -0.3838 -0.1468 -0.7621
 4072TIP3    H233708   5.513   5.244   3.083  1.5831 -0.5073  1.3257
 4073TIP3   OH233709   0.035   4.316  11.964 -0.6030  0.0973 -0.0423
 4073TIP3    H133710   0.124   4.284  11.951 -0.5386 -0.5485  1.6458
 4073TIP3    H233711   0.030   4.334  12.058 -2.0352  0.8153 -0.2313
 4074TIP3   OH233712   2.963   2.057  11.450  0.3137  0.6144  0.4674
 4074TIP3    H133713   2.890   1.998  11.469  0.0186  0.7549 -0.2109
 4074TIP3    H233714   3.035   1.998  11.427 -0.9491  0.4261 -3.8950
 4075TIP3   OH233715   3.791   3.748  14.255 -0.0520  0.0434 -0.0002
 4075TIP3    H133716   3.783   3.652  14.252 -2.2644  0.0956  1.5516
 4075TIP3    H233717   3.712   3.779  14.210  1.6652  1.2324 -2.3823
 4076TIP3   OH233718   4.909   6.580   0.253 -0.8375 -0.1791 -0.3708
 4076TIP3    H133719   4.924   6.563   0.346 -2.0917  1.5951  0.2002
 4076TIP3    H233720   4.920   6.675   0.243 -3.4291  0.0904 -1.4559
 4077TIP3   OH233721   3.662   2.617  16.657 -0.1120  0.2450  0.0481
 4077TIP3    H133722   3.680   2.527  16.685  0.3119 -0.4984 -2.3896
 4077TIP3    H233723   3.654   2.611  16.561  1.6597  3.0739 -0.3690
 4078TIP3   OH233724   6.249   3.560  16.718 -0.4729  0.3750  0.1649
 4078TIP3    H133725   6.230   3.640  16.669  0.3515  0.5063  0.0529
 4078TIP3    H233726   6.255   3.492  16.652  1.1482  0.6403 -0.0032
 4079TIP3   OH233727   5.257   6.294   4.291 -0.4052  0.1150 -0.0789
 4079TIP3    H133728   5.321   6.362   4.273  1.3411 -1.4596 -0.1146
 4079TIP3    H233729   5.236   6.257   4.205 -2.0838  1.1749 -0.1742
 4080TIP3   OH233730   5.663   2.508  15.127  0.3105  0.3162 -0.4690
 4080TIP3    H133731   5.679   2.487  15.035  0.0982 -0.0115 -0.4320
 4080TIP3    H233732   5.628   2.597  15.126 -1.0859 -0.2095 -0.8400
 4081TIP3   OH233733   3.537   1.893   2.695 -0.1843  0.1404 -0.2316
 4081TIP3    H133734   3.458   1.909   2.746  0.6817 -2.4801  2.1948
 4081TIP3    H233735   3.510   1.832   2.626 -0.2300 -1.3553  1.0544
 4082TIP3   OH233736   2.288   5.709   5.651 -0.3049 -0.0909 -0.4578
 4082TIP3    H133737   2.296   5.672   5.740 -1.4343  0.5487 -0.0759
 4082TIP3    H233738   2.255   5.636   5.598  0.8925 -0.6361 -0.4932
 4083TIP3   OH233739   6.788   6.289  12.240 -0.0715  0.5127  0.2070
 4083TIP3    H133740   6.699   6.319  12.255 -0.0940 -0.3004  1.9492
 4083TIP3    H233741   6.817   6.256  12.325  1.8551  0.6496 -0.3480
 4084TIP3   OH233742   5.828   6.349   3.629 -0.0027  0.0654 -0.4733
 4084TIP3    H133743   5.818   6.311   3.542 -1.5918  0.8218 -0.6675
 4084TIP3    H233744   5.866   6.435   3.614  0.6282 -0.1825 -0.3223
 4085TIP3   OH233745   0.028   2.396   2.220 -0.8927 -0.1111 -0.5283
 4085TIP3    H133746  -0.004   2.482   2.249 -0.2902 -0.4673  1.2865
 4085TIP3    H233747  -0.050   2.352   2.186 -1.0812  1.3850 -2.1908
 4086TIP3   OH233748   2.787   3.661   1.298 -0.7264 -0.7584 -0.2768
 4086TIP3    H133749   2.756   3.708   1.221 -1.2788 -2.4206 -1.1039
 4086TIP3    H233750   2.790   3.570   1.271 -0.3093 -1.3015  1.4833
 4087TIP3   OH233751   4.743   2.434   5.357  0.0150 -0.1510 -0.1123
 4087TIP3    H133752   4.683   2.437   5.431 -0.6926  0.0895 -0.6830
 4087TIP3    H233753   4.825   2.469   5.392 -0.8094  1.7093  0.1068
 4088TIP3   OH233754   1.953   5.910   0.104  0.0976 -0.0403  0.5163
 4088TIP3    H133755   1.877   5.852   0.115  0.2580 -0.8477 -2.0217
 4088TIP3    H233756   1.981   5.929   0.194 -3.5027  0.9206  1.6431
 4089TIP3   OH233757   1.807   2.429   3.330  0.5534 -0.0553  0.2920
 4089TIP3    H133758   1.781   2.506   3.381 -1.2631 -0.6625  0.3473
 4089TIP3    H233759   1.842   2.465   3.249 -0.4202  0.8273  0.2519
 4090TIP3   OH233760   0.645   1.074  12.273  0.0886  0.1170 -0.1948
 4090TIP3    H133761   0.621   1.013  12.203  0.0579 -1.4313  1.0784
 4090TIP3    H233762   0.641   1.160  12.233 -2.6228 -0.4593 -1.3946
 4091TIP3   OH233763   0.820   2.051   2.088  0.1851 -0.3369 -0.1530
 4091TIP3    H133764   0.816   1.964   2.127 -0.0410 -0.5441 -0.6371
 4091TIP3    H233765   0.909   2.058   2.053 -0.5817 -1.4098 -2.4703
 4092TIP3   OH233766   1.825   3.881  12.908  0.4794  0.3441  0.1501
 4092TIP3    H133767   1.879   3.856  12.833  0.3622  1.7619 -0.4469
 4092TIP3    H233768   1.808   3.799  12.954  2.0529 -0.3063 -0.3611
 4093TIP3   OH233769   6.393   5.136  14.837 -0.6654  0.0516 -0.7275
 4093TIP3    H133770   6.397   5.225  14.803  1.2579  0.9582  1.5965
 4093TIP3    H233771   6.351   5.145  14.923  3.5755 -0.3633  1.6657
 4094TIP3   OH233772   2.649   5.804   2.423 -0.0218  0.3679 -0.0586
 4094TIP3    H133773   2.722   5.866   2.427  1.3241 -1.1544 -0.1142
 4094TIP3    H233774   2.622   5.793   2.514 -1.2701  2.1066 -0.1638
 4095TIP3   OH233775   0.786   4.243  14.714  0.1111 -0.0610 -0.2000
 4095TIP3    H133776   0.781   4.152  14.686 -0.6721  0.2793 -1.2188
 4095TIP3    H233777   0.857   4.245  14.779 -1.1192 -1.7708  1.3024
 4096TIP3   OH233778   2.250   3.769   4.990 -0.1581 -0.2954 -0.5342
 4096TIP3    H133779   2.209   3.706   4.931  2.2963 -2.2118 -0.3357
 4096TIP3    H233780   2.231   3.737   5.078 -0.9367  0.6480 -0.3402
 4097TIP3   OH233781   5.942   1.549  14.273 -0.0400 -0.0472  0.3289
 4097TIP3    H133782   5.974   1.596  14.196 -0.3537  1.1493  0.8992
 4097TIP3    H233783   5.865   1.501  14.242  0.1299  0.0196 -0.2092
 4098TIP3   OH233784   5.242   5.990  13.134 -0.0592 -0.3968  0.1716
 4098TIP3    H133785   5.201   6.075  13.124 -0.9078 -0.8030  0.1049
 4098TIP3    H233786   5.335   6.006  13.117 -0.2476  0.4610 -0.0906
 4099TIP3   OH233787   5.025   5.611   4.875 -0.6076 -0.0116 -0.0794
 4099TIP3    H133788   5.099   5.634   4.932  2.3811  0.3801 -3.7614
 4099TIP3    H233789   4.994   5.695   4.842  1.0985 -0.2969 -2.7433
 4100TIP3   OH233790   6.192   5.397  12.156 -0.1471 -0.0241  0.1650
 4100TIP3    H133791   6.101   5.425  12.170 -1.4638 -1.8690 -3.4834
 4100TIP3    H233792   6.191   5.303  12.175  1.2961  0.1007  1.0025
 4101TIP3   OH233793   3.881   5.451   1.149 -0.6822 -0.0765 -0.4656
 4101TIP3    H133794   3.899   5.431   1.241 -0.5924  0.3368 -0.3925
 4101TIP3    H233795   3.891   5.546   1.142 -1.6049  0.0141 -0.7008
 4102TIP3   OH233796   1.116   6.401   3.276 -0.3953 -0.2544 -0.2101
 4102TIP3    H133797   1.089   6.416   3.185  0.5483 -0.8029 -0.5896
 4102TIP3    H233798   1.037   6.366   3.318  0.2348 -4.3209 -1.9152
 4103TIP3   OH233799   5.036   3.318  15.312 -0.0763 -0.9167  0.2050
 4103TIP3    H133800   5.054   3.225  15.319 -0.5026 -0.9990  0.2407
 4103TIP3    H233801   4.947   3.323  15.277  0.5411 -0.5136 -1.3801
 4104TIP3   OH233802   1.515   0.753  12.775  0.4395 -0.1431  0.1140
 4104TIP3    H133803   1.519   0.657  12.770 -1.3438 -0.2660  0.1055
 4104TIP3    H233804   1.429   0.774  12.737  1.1817  1.5304 -0.7062
 4105TIP3   OH233805   3.989   2.245  12.243  0.4889 -0.3282  0.3531
 4105TIP3    H133806   3.953   2.186  12.176  1.8630 -0.1341 -0.6169
 4105TIP3    H233807   3.930   2.320  12.243 -0.3066 -0.9365  0.3551
 4106TIP3   OH233808   1.942   1.812   4.656  0.3635 -0.1905  0.8987
 4106TIP3    H133809   1.986   1.895   4.670 -1.9804  0.9670  1.9089
 4106TIP3    H233810   1.919   1.812   4.563 -1.7255  1.4950  1.3335
 4107TIP3   OH233811   0.092   0.766  10.618 -0.5155  0.0897 -0.3125
 4107TIP3    H133812   0.162   0.702  10.633  0.5322  1.0009 -1.0810
 4107TIP3    H233813   0.079   0.809  10.703  0.7612  0.7586 -0.4261
 4108TIP3   OH233814   0.918   6.656   5.564  0.0782  0.0998  0.1347
 4108TIP3    H133815   0.840   6.608   5.533 -1.3707  2.5855 -0.3314
 4108TIP3    H233816   0.930   6.626   5.654 -1.7801  0.0358  0.4075
 4109TIP3   OH233817   2.846   6.740  12.007 -0.3362 -0.3127 -0.3116
 4109TIP3    H133818   2.922   6.751  12.063  0.2304 -3.3913 -0.3052
 4109TIP3    H233819   2.774   6.781  12.055  1.0954  2.1342 -0.0516
 4110TIP3   OH233820   2.387   4.058   4.080 -0.5917 -0.4033  0.1245
 4110TIP3    H133821   2.350   4.058   3.991  0.6345  1.4531 -0.4400
 4110TIP3    H233822   2.354   4.139   4.119  1.5010  0.4834  0.1677
 4111TIP3   OH233823   2.329   6.094   3.504 -0.2138 -0.2070  0.3256
 4111TIP3    H133824   2.402   6.034   3.518 -0.9598 -0.5123  3.8444
 4111TIP3    H233825   2.289   6.066   3.421  1.6045 -2.1876  0.0508
 4112TIP3   OH233826   2.782   0.211   1.799 -0.8356 -1.0694  0.4621
 4112TIP3    H133827   2.817   0.295   1.828  0.2531 -1.1666 -0.5074
 4112TIP3    H233828   2.763   0.225   1.706 -4.2259 -0.7484  1.0594
 4113TIP3   OH233829   3.281   2.049   1.853 -0.3398  0.1341  0.1286
 4113TIP3    H133830   3.243   2.001   1.927 -0.3007  0.8151  0.6075
 4113TIP3    H233831   3.252   2.002   1.776 -0.8678 -0.2545  0.5558
 4114TIP3   OH233832   3.070   1.436   0.488  0.3089  0.1400 -0.2336
 4114TIP3    H133833   2.976   1.427   0.504  0.0230 -0.1893 -1.8946
 4114TIP3    H233834   3.083   1.529   0.473  0.0310  0.0327 -1.1704
 4115TIP3   OH233835   4.929   0.085   3.518 -0.1601  0.9376 -0.5737
 4115TIP3    H133836   4.875   0.091   3.439 -1.3792 -0.0769  0.1493
 4115TIP3    H233837   4.888   0.145   3.580 -1.5775 -1.0585  0.5543
 4116TIP3   OH233838   6.059   3.957  12.623  0.3974  0.7161  0.3232
 4116TIP3    H133839   6.124   3.960  12.553 -1.0398  1.9664 -1.0293
 4116TIP3    H233840   6.040   4.049  12.642  0.2575  0.3966  1.9324
 4117TIP3   OH233841   6.020   0.082  15.915 -0.1050 -0.5763  0.1433
 4117TIP3    H133842   6.010   0.140  15.840 -1.4665  0.4397  1.0578
 4117TIP3    H233843   6.058   0.137  15.983 -0.2076 -1.0960  0.6323
 4118TIP3   OH233844   0.453   4.563  17.144 -0.2638  0.0541 -0.2934
 4118TIP3    H133845   0.513   4.498  17.181 -1.6232 -0.2713  1.5152
 4118TIP3    H233846   0.388   4.511  17.096  0.1664  0.3161 -1.1906
 4119TIP3   OH233847   4.067   6.444  13.801 -0.1882  0.2756 -0.4050
 4119TIP3    H133848   4.109   6.455  13.715  1.1318 -1.4758 -0.0405
 4119TIP3    H233849   4.038   6.532  13.825  0.8968  1.0886 -1.9046
 4120TIP3   OH233850   6.587   4.389   3.825 -0.4436  1.1172  0.3827
 4120TIP3    H133851   6.600   4.314   3.884 -0.3855 -0.7133 -1.8266
 4120TIP3    H233852   6.669   4.396   3.777 -1.2959  1.0094 -1.1373
 4121TIP3   OH233853   5.127   5.992   3.112 -0.0658  0.2130 -0.4917
 4121TIP3    H133854   5.183   5.944   3.174 -0.1313 -1.9395 -1.9978
 4121TIP3    H233855   5.040   5.956   3.126 -0.4380  1.0717 -0.5563
 4122TIP3   OH233856   6.004   5.968  10.955 -0.6457  0.1739 -0.1677
 4122TIP3    H133857   6.096   5.967  10.982 -0.3530 -0.1696 -1.1420
 4122TIP3    H233858   5.998   5.899  10.890 -1.9073 -0.7177  0.8573
 4123TIP3   OH233859   6.176   5.173   3.706  0.0089 -0.0636 -0.5668
 4123TIP3    H133860   6.126   5.242   3.662  0.4636  0.5546 -0.1247
 4123TIP3    H233861   6.141   5.092   3.670  0.8396  0.4276 -2.5777
 4124TIP3   OH233862   2.361   6.312   1.277 -0.1339  0.3770  0.0218
 4124TIP3    H133863   2.445   6.273   1.254  0.1889  1.1455 -0.1296
 4124TIP3    H233864   2.382   6.403   1.298 -0.5540 -0.0176  2.4153
 4125TIP3   OH233865   4.522   0.630   0.955  0.6669 -0.1787  0.3439
 4125TIP3    H133866   4.540   0.627   0.861  1.6507 -0.4202  0.5287
 4125TIP3    H233867   4.453   0.696   0.964  0.0300 -0.6935 -0.6209
 4126TIP3   OH233868   2.166   0.767  14.294  0.2727 -0.0145 -0.2366
 4126TIP3    H133869   2.144   0.859  14.285 -1.5326 -0.3989 -0.2616
 4126TIP3    H233870   2.190   0.756  14.386 -3.2236 -0.1343  0.8304
 4127TIP3   OH233871   1.107   4.565   2.242  0.0040 -0.0718  0.1301
 4127TIP3    H133872   1.169   4.630   2.208 -0.4334  0.6664  0.7079
 4127TIP3    H233873   1.103   4.497   2.174  1.1184  0.0750 -0.0999
 4128TIP3   OH233874   6.769   4.887   2.641  0.5031 -0.0711 -0.4830
 4128TIP3    H133875   6.799   4.897   2.551  1.2961 -1.0000 -0.3471
 4128TIP3    H233876   6.728   4.800   2.644  0.9391 -0.2673  0.1541
 4129TIP3   OH233877   2.490   5.600  14.859 -0.1915  0.1712 -0.0522
 4129TIP3    H133878   2.501   5.550  14.778 -0.8496 -0.8053  0.4465
 4129TIP3    H233879   2.405   5.572  14.893 -0.3852  1.3161  0.4745
 4130TIP3   OH233880   4.177   5.701   2.822  0.3111  0.3284  0.2106
 4130TIP3    H133881   4.168   5.737   2.734 -0.8797  1.1222  0.6212
 4130TIP3    H233882   4.195   5.608   2.809 -0.3998  0.3259 -0.8692
 4131TIP3   OH233883   2.524   0.441  13.271  0.1258  0.1474  0.2655
 4131TIP3    H133884   2.555   0.517  13.222  0.2913 -0.0944 -0.0114
 4131TIP3    H233885   2.465   0.477  13.337  0.1208  0.5054  0.0685
 4132TIP3   OH233886   1.792   5.864   4.378 -0.1096  0.1168 -0.1546
 4132TIP3    H133887   1.702   5.893   4.391 -0.3045 -0.2984 -0.5649
 4132TIP3    H233888   1.784   5.776   4.342  0.4490  0.3493 -0.8615
 4133TIP3   OH233889   5.257   1.741  14.807  0.6912  0.2331 -0.2500
 4133TIP3    H133890   5.315   1.808  14.843 -0.8180  0.7310  1.4635
 4133TIP3    H233891   5.204   1.788  14.742 -0.0963  0.6620  0.6678
 4134TIP3   OH233892   5.525   4.397  17.009 -0.3813  0.2860 -0.3226
 4134TIP3    H133893   5.460   4.443  16.956  0.1085  1.7064  0.2540
 4134TIP3    H233894   5.474   4.347  17.071 -0.9478  1.2910  0.0461
 4135TIP3   OH233895   1.095   6.812  14.221 -0.7339  0.4152 -0.6507
 4135TIP3    H133896   1.059   6.826  14.134  1.0597 -0.6832 -1.6227
 4135TIP3    H233897   1.046   6.737  14.256 -0.6585  0.1018 -1.2109
 4136TIP3   OH233898   1.666   3.053  11.246 -0.0508  0.0200 -0.1142
 4136TIP3    H133899   1.709   3.124  11.293  0.2077 -0.1969 -0.0221
 4136TIP3    H233900   1.574   3.080  11.241  0.4099  1.5008 -2.1414
 4137TIP3   OH233901   4.207   2.215  13.875 -0.0517  0.4798  0.1007
 4137TIP3    H133902   4.212   2.264  13.793  1.8236 -1.1790 -0.8605
 4137TIP3    H233903   4.294   2.227  13.915 -0.1918 -0.5568  0.7303
 4138TIP3   OH233904   0.534   4.675  16.908  0.4998 -0.4073  0.3535
 4138TIP3    H133905   0.498   4.616  16.841  0.8333  1.4957 -1.6227
 4138TIP3    H233906   0.478   4.662  16.984 -1.5015 -0.9028 -1.1188
 4139TIP3   OH233907   0.970   0.943   3.989  0.2427  0.8415  0.2625
 4139TIP3    H133908   0.931   1.031   3.988  2.9291  2.1396 -0.6479
 4139TIP3    H233909   0.992   0.926   3.898 -1.7010 -1.6087  0.1366
 4140TIP3   OH233910   2.989   5.865   2.496 -0.1282 -0.2331 -0.2354
 4140TIP3    H133911   3.009   5.782   2.539  1.5665 -0.3143 -1.0994
 4140TIP3    H233912   3.023   5.855   2.407 -2.7535  0.2446 -1.3981
 4141TIP3   OH233913   4.020   6.616   4.681 -0.0747  0.0063  0.8384
 4141TIP3    H133914   3.926   6.617   4.700  0.1414 -0.1992  1.9569
 4141TIP3    H233915   4.027   6.660   4.596 -1.4175 -2.0288 -0.4364
 4142TIP3   OH233916   3.954   1.244   4.228 -0.1130 -0.7945 -0.0275
 4142TIP3    H133917   3.938   1.325   4.179 -1.5960 -0.6372  0.6767
 4142TIP3    H233918   4.016   1.270   4.296 -0.8389 -0.1435  0.4075
 4143TIP3   OH233919   5.621   2.047  15.931 -0.0308 -0.2535 -0.2634
 4143TIP3    H133920   5.574   1.998  15.864 -0.4869 -1.9036  1.1875
 4143TIP3    H233921   5.710   2.054  15.897 -0.3572 -0.6348 -1.2486
 4144TIP3   OH233922   2.655   5.625  16.771  0.5875 -0.1986 -0.7224
 4144TIP3    H133923   2.674   5.668  16.854 -0.1221  2.1781 -1.7131
 4144TIP3    H233924   2.574   5.577  16.786  0.9802 -0.5997  0.1947
 4145TIP3   OH233925   2.443   1.063  11.896  0.3700 -0.3006  0.2414
 4145TIP3    H133926   2.410   0.978  11.923 -1.2560 -0.7030 -2.6511
 4145TIP3    H233927   2.366   1.120  11.894  0.9719  0.5246 -0.3683
 4146TIP3   OH233928   5.297   1.798  16.443 -0.2020  0.0016 -0.5694
 4146TIP3    H133929   5.277   1.766  16.355  1.5102 -0.2717 -0.8934
 4146TIP3    H233930   5.231   1.865  16.460  0.2447  1.0320 -2.6213
 4147TIP3   OH233931   0.310   5.251  13.466 -0.6115  0.1975 -0.5971
 4147TIP3    H133932   0.335   5.287  13.381  2.9630 -1.7804 -0.5633
 4147TIP3    H233933   0.382   5.273  13.524 -2.0321 -0.2472  1.4622
 4148TIP3   OH233934   0.448   0.173  14.596  0.0382 -0.1838 -0.4203
 4148TIP3    H133935   0.540   0.199  14.610 -0.2206  1.2380 -1.2284
 4148TIP3    H233936   0.426   0.207  14.510 -0.9409 -1.4991 -0.7222
 4149TIP3   OH233937   1.075   2.073   6.426 -0.4083 -0.6250  0.7506
 4149TIP3    H133938   1.166   2.076   6.395 -0.9995 -0.8669 -1.1588
 4149TIP3    H233939   1.081   2.040   6.515  1.5093  1.0949  1.3316
 4150TIP3   OH233940   6.591   3.616  16.757 -0.0314  0.2803  0.5602
 4150TIP3    H133941   6.514   3.564  16.733 -0.0168  1.2580 -1.9107
 4150TIP3    H233942   6.556   3.691  16.805 -0.6798  0.7541 -0.6104
 4151TIP3   OH233943   1.765   1.515  13.931  0.1689  0.3303  0.0265
 4151TIP3    H133944   1.856   1.545  13.929 -0.4886  2.4803 -0.4938
 4151TIP3    H233945   1.715   1.587  13.893 -1.9503 -0.0820  1.7780
 4152TIP3   OH233946   4.418   1.227  10.379 -0.2678 -0.3131  0.0868
 4152TIP3    H133947   4.359   1.243  10.453  0.8045  1.9628  0.5308
 4152TIP3    H233948   4.396   1.295  10.316  1.7375  0.5039  0.2094
 4153TIP3   OH233949   1.194   1.001  11.147  0.4915 -0.2918  0.5572
 4153TIP3    H133950   1.109   0.961  11.166  0.8565 -0.9732  0.7851
 4153TIP3    H233951   1.195   1.013  11.052 -0.0499  0.1749  0.6027
 4154TIP3   OH233952   5.527   1.864  11.831 -0.0193 -0.2340 -0.3948
 4154TIP3    H133953   5.568   1.866  11.918 -0.7970  1.8924 -0.0135
 4154TIP3    H233954   5.543   1.775  11.799  1.7943 -0.5440  1.1855
 4155TIP3   OH233955   3.202   1.605   6.292  0.0099  0.4979 -0.1997
 4155TIP3    H133956   3.264   1.534   6.314  1.1092  1.5680  0.3075
 4155TIP3    H233957   3.145   1.567   6.225 -0.1035 -1.2022  0.7951
 4156TIP3   OH233958   0.267   4.775   4.105  0.0921  0.4677 -0.2486
 4156TIP3    H133959   0.355   4.740   4.120 -0.1959 -0.7826 -1.3360
 4156TIP3    H233960   0.229   4.783   4.193 -0.0557 -2.6310  0.0665
 4157TIP3   OH233961   4.000   5.060  15.037  0.1292  0.2946 -0.3167
 4157TIP3    H133962   4.055   4.981  15.037  0.5750  0.6029 -0.5690
 4157TIP3    H233963   4.060   5.131  15.057  0.1590  0.8521 -2.1738
 4158TIP3   OH233964   2.893   2.960  14.151 -0.3731 -0.0898  0.2361
 4158TIP3    H133965   2.843   2.998  14.223  0.2278  1.1622  0.0201
 4158TIP3    H233966   2.831   2.956  14.078 -0.0465  2.1247 -0.2482
 4159TIP3   OH233967   5.624   2.296   2.535 -0.5273  0.0668  0.1771
 4159TIP3    H133968   5.617   2.221   2.594  0.2484  0.3920  0.6906
 4159TIP3    H233969   5.718   2.310   2.524 -0.6642  1.2115  0.4013
 4160TIP3   OH233970   3.470   3.208  15.655 -0.1551 -0.4184 -0.0171
 4160TIP3    H133971   3.439   3.127  15.614 -1.9196 -0.3135  1.0386
 4160TIP3    H233972   3.526   3.178  15.727 -1.1195 -0.7325  0.6160
 4161TIP3   OH233973   2.365   3.489   5.289 -0.1352  0.4777 -0.0655
 4161TIP3    H133974   2.337   3.461   5.376  1.6938  0.0196  0.4180
 4161TIP3    H233975   2.320   3.572   5.274 -0.0729  0.8206  1.5388
 4162TIP3   OH233976   3.511   2.571  15.010  0.2241  0.5847  0.3321
 4162TIP3    H133977   3.514   2.494  14.953 -2.6723  2.0169 -2.0222
 4162TIP3    H233978   3.541   2.643  14.954 -0.6535  1.7152  1.2885
 4163TIP3   OH233979   4.892   4.523   2.646  0.4084  1.0143 -0.3353
 4163TIP3    H133980   4.800   4.515   2.622  0.3073  0.5929  0.1748
 4163TIP3    H233981   4.900   4.611   2.683 -0.0898  0.5745  0.8624
 4164TIP3   OH233982   4.369   2.501   4.637 -0.3079  0.8600  0.5994
 4164TIP3    H133983   4.453   2.463   4.612 -0.2437  0.9461  0.6870
 4164TIP3    H233984   4.390   2.589   4.669 -0.6073  1.6120 -1.1420
 4165TIP3   OH233985   6.822   5.582  12.409  0.4005 -0.5584 -0.2590
 4165TIP3    H133986   6.824   5.492  12.442  0.1787 -0.5602 -0.2460
 4165TIP3    H233987   6.906   5.593  12.364  0.1310 -1.0170 -0.8946
 4166TIP3   OH233988   5.212   3.988  16.148 -0.6857  0.1335 -0.6503
 4166TIP3    H133989   5.263   4.011  16.226 -2.4792 -1.5655  1.1430
 4166TIP3    H233990   5.148   3.924  16.179 -1.7957 -0.2728 -3.4604
 4167TIP3   OH233991   5.098   4.524   1.850 -0.4079  0.2800 -0.3598
 4167TIP3    H133992   5.022   4.468   1.867  1.4998 -2.3712  0.0308
 4167TIP3    H233993   5.091   4.546   1.757 -1.9235  0.6022 -0.1981
 4168TIP3   OH233994   2.991   6.417   4.948 -0.1372 -0.1039  0.0057
 4168TIP3    H133995   2.995   6.327   4.980 -3.9590  0.2826  2.1983
 4168TIP3    H233996   3.003   6.409   4.853  0.2143 -2.8583  0.2032
 4169TIP3   OH233997   4.312   1.119   1.705  0.0670 -0.1846 -0.4382
 4169TIP3    H133998   4.223   1.112   1.669  0.5989  0.2128 -1.9045
 4169TIP3    H233999   4.366   1.144   1.630  1.4128 -0.3404  0.4492
 4170TIP3   OH234000   4.738   4.601   1.613 -0.4658  0.2978 -0.1505
 4170TIP3    H134001   4.774   4.654   1.684 -0.0064 -0.4352  0.1670
 4170TIP3    H234002   4.812   4.551   1.580 -1.1758 -1.2854  0.5538
 4171TIP3   OH234003   2.776   2.606   2.317  0.4365  0.1520 -0.2880
 4171TIP3    H134004   2.776   2.575   2.408 -0.1443 -0.5146 -0.5065
 4171TIP3    H234005   2.853   2.663   2.312  0.1080  0.7247  0.7977
 4172TIP3   OH234006   2.366   5.044   3.073 -0.0567 -0.3190  0.1032
 4172TIP3    H134007   2.417   5.029   2.993  2.1785  1.2227  1.1171
 4172TIP3    H234008   2.398   4.979   3.135 -0.4787 -0.3575  0.2835
 4173TIP3   OH234009   2.294   6.467  16.722 -0.4003 -0.1036 -0.4279
 4173TIP3    H134010   2.266   6.398  16.662  0.4803 -2.9775  2.2128
 4173TIP3    H234011   2.385   6.484  16.698 -0.2691 -0.7253 -0.4007
 4174TIP3   OH234012   5.442   1.750   2.756  0.2008 -0.3821  0.1600
 4174TIP3    H134013   5.406   1.758   2.845 -3.5021 -0.7048 -1.1514
 4174TIP3    H234014   5.421   1.661   2.729 -2.3744  0.8057 -2.3177
 4175TIP3   OH234015   1.949   6.113   4.032 -0.3936  0.7202 -0.2352
 4175TIP3    H134016   1.998   6.033   4.049 -0.0577  0.4808 -2.0859
 4175TIP3    H234017   1.974   6.138   3.943 -1.6431  2.0433 -0.2558
 4176TIP3   OH234018   5.680   3.426   5.757  0.4318  0.7618  0.5863
 4176TIP3    H134019   5.613   3.445   5.691 -1.1535 -0.0516  1.8996
 4176TIP3    H234020   5.747   3.376   5.710 -0.6006  0.3038 -0.4219
 4177TIP3   OH234021   0.702   1.950   0.533 -0.4844 -0.2461 -0.2018
 4177TIP3    H134022   0.787   1.910   0.516 -0.7886 -1.1008  0.2545
 4177TIP3    H234023   0.723   2.043   0.548  0.2071 -0.2050 -1.3332
 4178TIP3   OH234024   6.464   6.414  17.038  0.3976 -0.3325  0.3124
 4178TIP3    H134025   6.411   6.463  16.974  0.0014 -1.0244  0.1025
 4178TIP3    H234026   6.430   6.442  17.123 -0.4420 -0.9036  0.1788
 4179TIP3   OH234027   3.687   1.606   6.683  0.2947  0.0800  0.4813
 4179TIP3    H134028   3.686   1.698   6.709 -2.0875 -0.0516  1.0829
 4179TIP3    H234029   3.637   1.603   6.601  1.0092 -0.6086  0.0458
 4180TIP3   OH234030   5.899   6.149   0.411 -0.1767  0.5505 -0.2669
 4180TIP3    H134031   5.973   6.097   0.441 -0.2994  0.6864  0.2786
 4180TIP3    H234032   5.840   6.086   0.370  0.4303  0.5041 -1.0835
 4181TIP3   OH234033   6.777   2.852  13.362  0.5038  0.4303  0.4375
 4181TIP3    H134034   6.867   2.853  13.393  0.4181 -0.7834  0.7876
 4181TIP3    H234035   6.784   2.831  13.269  0.5773  0.3136  0.4698
 4182TIP3   OH234036   0.832   6.364  16.045 -0.4370 -0.0215 -0.1167
 4182TIP3    H134037   0.767   6.398  15.983 -0.0906 -1.4538 -1.3194
 4182TIP3    H234038   0.783   6.305  16.102 -0.5326  0.3970  0.2457
 4183TIP3   OH234039   6.033   5.737   2.143 -0.5532 -0.9036  0.2311
 4183TIP3    H134040   6.063   5.753   2.232  1.0204  1.5440 -0.6501
 4183TIP3    H234041   5.938   5.754   2.146 -0.1564  1.5883  1.0050
 4184TIP3   OH234042   6.512   1.675  11.687  0.0736  0.1177  0.6705
 4184TIP3    H134043   6.423   1.684  11.652  0.3147 -0.1638 -0.0347
 4184TIP3    H234044   6.503   1.613  11.760 -0.3380  0.2359  0.7211
 4185TIP3   OH234045   2.454   1.306  11.652  0.2171 -0.2654 -0.0850
 4185TIP3    H134046   2.491   1.393  11.636  0.4639 -0.3010  0.2819
 4185TIP3    H234047   2.530   1.251  11.668  0.1015 -0.6773 -0.8818
 4186TIP3   OH234048   0.452   5.383   4.274 -0.6649 -0.7185  0.2848
 4186TIP3    H134049   0.458   5.424   4.187 -0.9960  1.4673  1.2167
 4186TIP3    H234050   0.363   5.350   4.280 -0.9016 -0.1196  0.0966
 4187TIP3   OH234051   5.555   1.828  16.469  0.0209  0.0330 -0.0752
 4187TIP3    H134052   5.579   1.909  16.424 -0.3289  0.1381 -0.0743
 4187TIP3    H234053   5.460   1.828  16.468 -0.0932  1.1621  2.6439
 4188TIP3   OH234054   2.959   0.314  12.303 -0.1055  1.0765 -0.1512
 4188TIP3    H134055   2.914   0.367  12.237 -1.3042  0.8880  0.4952
 4188TIP3    H234056   2.987   0.377  12.369 -0.6430  1.0303  0.1234
 4189TIP3   OH234057   4.299   6.138   0.776 -0.7215 -0.0261 -0.3268
 4189TIP3    H134058   4.327   6.047   0.784 -1.1857 -0.1760 -0.3888
 4189TIP3    H234059   4.355   6.174   0.708 -0.1892 -0.1256  0.0558
 4190TIP3   OH234060   1.174   5.621   5.184  0.0347 -0.7682  0.2124
 4190TIP3    H134061   1.259   5.657   5.208  1.3851 -1.0439 -3.4985
 4190TIP3    H234062   1.186   5.526   5.186  0.1179 -0.8029 -1.0519
 4191TIP3   OH234063   6.323   6.640   4.983  0.2058  0.6075 -0.4680
 4191TIP3    H134064   6.246   6.624   5.038  1.4354 -1.9366  0.6442
 4191TIP3    H234065   6.287   6.651   4.894 -1.4260 -0.8085 -0.0338
 4192TIP3   OH234066   5.449   2.207  15.740 -0.5741 -0.0613  0.4327
 4192TIP3    H134067   5.437   2.114  15.759  0.2047 -0.2912 -0.1182
 4192TIP3    H234068   5.534   2.211  15.696 -0.8859  0.8295 -0.1132
 4193TIP3   OH234069   1.881   1.989  16.887 -0.8508 -0.0882 -0.0865
 4193TIP3    H134070   1.907   2.074  16.849 -0.8975 -0.4761 -1.0139
 4193TIP3    H234071   1.786   1.995  16.895 -0.8556 -0.0543 -0.1624
 4194TIP3   OH234072   3.484   2.723  10.600 -0.7385 -0.3155 -0.4813
 4194TIP3    H134073   3.458   2.653  10.539  0.9187 -2.1931  0.8512
 4194TIP3    H234074   3.577   2.736  10.583 -0.6278  0.3003  0.5502
 4195TIP3   OH234075   2.158   5.012  10.621 -0.4912 -0.1558 -0.0540
 4195TIP3    H134076   2.114   4.927  10.621 -0.7625 -0.0645 -2.5539
 4195TIP3    H234077   2.247   4.993  10.590 -0.5334  0.4668 -0.5681
 4196TIP3   OH234078   4.907   4.153  13.746 -0.3276 -0.3234 -0.5519
 4196TIP3    H134079   4.815   4.129  13.732 -0.6099 -0.4772  1.2978
 4196TIP3    H234080   4.903   4.231  13.801  0.6615 -0.0160 -0.8992
 4197TIP3   OH234081   0.353   4.603  13.948  0.0194 -0.5608 -0.4190
 4197TIP3    H134082   0.369   4.679  13.892 -0.4043 -1.7476 -2.2277
 4197TIP3    H234083   0.338   4.530  13.887  1.1414 -2.2816  1.2281
 4198TIP3   OH234084   4.308   2.850  16.873 -0.1295 -0.3271 -0.3967
 4198TIP3    H134085   4.343   2.765  16.898  0.0155 -0.6247 -1.5546
 4198TIP3    H234086   4.213   2.837  16.868  0.0012 -0.8616 -2.0702
 4199TIP3   OH234087   3.528   4.881   5.269  0.1539  0.6187  0.4530
 4199TIP3    H134088   3.602   4.871   5.209 -1.5507  0.7337 -1.7994
 4199TIP3    H234089   3.511   4.976   5.269 -1.7158  0.3664 -1.4105
 4200TIP3   OH234090   2.535   0.436  12.021  0.0747  0.4397 -0.1151
 4200TIP3    H134091   2.573   0.514  12.062 -0.5376  0.7573 -0.1447
 4200TIP3    H234092   2.466   0.408  12.082  0.1944  0.0061 -0.1766
 4201TIP3   OH234093   0.683   1.264  12.635  0.1055 -0.0092  0.4455
 4201TIP3    H134094   0.666   1.358  12.632 -0.7894  0.0453  3.3520
 4201TIP3    H234095   0.599   1.226  12.662  1.1568 -1.2681  2.1541
 4202TIP3   OH234096   6.783   1.971  17.119  0.7156  0.4571  0.4276
 4202TIP3    H134097   6.695   1.936  17.131  1.7822 -1.9272  1.8835
 4202TIP3    H234098   6.773   2.037  17.050 -1.5277 -2.4826 -2.3520
 4203TIP3   OH234099   2.500   5.257   3.541  0.9779 -0.2410  0.0090
 4203TIP3    H134100   2.435   5.188   3.525  0.3706  0.1021  0.9470
 4203TIP3    H234101   2.521   5.290   3.453 -1.6590  1.0380 -0.2438
 4204TIP3   OH234102   0.964   4.345  14.874  0.5625 -0.0594 -0.1772
 4204TIP3    H134103   0.963   4.426  14.824 -2.9716 -0.0653 -0.3334
 4204TIP3    H234104   0.957   4.373  14.965 -0.8869 -0.1405 -0.2450
 4205TIP3   OH234105   0.040   6.736   3.467 -0.1336 -0.0574  0.6380
 4205TIP3    H134106   0.120   6.685   3.450 -1.6209 -2.3880  0.0443
 4205TIP3    H234107   0.046   6.761   3.559  2.2630  1.7972  0.0777
 4206TIP3   OH234108   5.706   5.625   0.029  0.5529  0.9762  0.1002
 4206TIP3    H134109   5.635   5.563   0.041  0.3616  1.1203 -0.2761
 4206TIP3    H234110   5.663   5.706   0.001  0.6573  1.6834  1.8088
 4207TIP3   OH234111   4.089   2.579  15.655  0.1213 -0.4516  0.3639
 4207TIP3    H134112   4.102   2.510  15.720 -0.5105 -3.1316 -2.1078
 4207TIP3    H234113   4.164   2.569  15.595 -1.5389 -1.1124 -1.7113
 4208TIP3   OH234114   1.822   6.585   3.140  0.2151  0.5962  0.4960
 4208TIP3    H134115   1.880   6.579   3.216 -0.0003  0.9057  0.6867
 4208TIP3    H234116   1.739   6.551   3.171  0.5028 -0.5951 -0.0035
 4209TIP3   OH234117   5.643   2.858  15.909  0.2615 -0.0100 -0.5788
 4209TIP3    H134118   5.684   2.796  15.970 -0.8197 -1.7162 -1.5123
 4209TIP3    H234119   5.649   2.816  15.824 -1.2322  0.7742 -1.1150
 4210TIP3   OH234120   5.298   0.304   2.840 -0.1978 -0.0192  0.0989
 4210TIP3    H134121   5.243   0.329   2.766 -1.6704  1.6285  1.6565
 4210TIP3    H234122   5.249   0.235   2.884 -0.7295  0.9685  1.0992
 4211TIP3   OH234123   4.084   6.816  15.728  0.3486 -0.1392  0.0544
 4211TIP3    H134124   4.040   6.817  15.813  0.8090 -0.2166  0.2978
 4211TIP3    H234125   4.168   6.774  15.745  0.3635 -0.3375 -0.4820
 4212TIP3   OH234126   4.475   3.380   2.928  0.5632  0.0546 -0.5319
 4212TIP3    H134127   4.389   3.342   2.944  0.6098  0.1256 -0.0837
 4212TIP3    H234128   4.520   3.316   2.873  1.1529 -1.2750  1.3787
 4213TIP3   OH234129   0.187   5.178   5.493  0.1880 -0.3934  0.3432
 4213TIP3    H134130   0.204   5.261   5.537  0.4967 -0.1913 -0.1512
 4213TIP3    H234131   0.106   5.146   5.533 -1.6626  1.6223 -1.5228
 4214TIP3   OH234132   2.481   5.834  11.894 -0.3555  0.2552 -0.0196
 4214TIP3    H134133   2.451   5.756  11.849 -1.3162  0.1537  0.7549
 4214TIP3    H234134   2.469   5.905  11.831 -0.2594 -0.1043 -0.4387
 4215TIP3   OH234135   0.563   1.975  14.978  0.0218 -0.7544  0.0515
 4215TIP3    H134136   0.491   1.935  15.029 -0.8375 -0.0116 -0.5598
 4215TIP3    H234137   0.581   2.057  15.023  0.0134 -0.6083 -0.2172
 4216TIP3   OH234138   4.451   0.581  14.006 -0.0722 -0.3294 -0.6349
 4216TIP3    H134139   4.385   0.602  14.072 -0.8100  1.6124 -1.9109
 4216TIP3    H234140   4.534   0.604  14.049 -0.3704 -0.8564  0.2574
 4217TIP3   OH234141   5.779   0.777  13.733 -0.9264 -1.0023  0.0919
 4217TIP3    H134142   5.708   0.716  13.715 -2.5465  1.2161 -1.5143
 4217TIP3    H234143   5.756   0.817  13.817 -0.9164 -1.1757  0.1771
 4218TIP3   OH234144   6.764   4.469  14.476 -0.2763  0.1915 -0.4637
 4218TIP3    H134145   6.705   4.441  14.546 -0.1371 -0.9813 -0.8000
 4218TIP3    H234146   6.758   4.565  14.477 -0.0473  0.2139  1.3312
 4219TIP3   OH234147   5.338   1.503  16.319 -0.1236  0.7678 -0.9443
 4219TIP3    H134148   5.260   1.505  16.375  1.4015 -3.4203  1.8071
 4219TIP3    H234149   5.313   1.448  16.245  0.1433 -0.4960 -0.1116
 4220TIP3   OH234150   6.674   2.037  15.542 -0.1635  0.1711  0.5845
 4220TIP3    H134151   6.635   2.105  15.488  0.9571 -0.3922 -0.9794
 4220TIP3    H234152   6.638   2.053  15.630 -2.4608  0.7671 -0.3882
 4221TIP3   OH234153   4.346   0.311  14.291  0.1074 -0.5210 -0.2891
 4221TIP3    H134154   4.300   0.271  14.365  0.3351  0.4223  0.3865
 4221TIP3    H234155   4.334   0.405  14.304 -0.7215 -0.3483 -2.0179
 4222TIP3   OH234156   6.399   4.295  12.839  0.1320 -0.1973 -0.0469
 4222TIP3    H134157   6.325   4.237  12.821 -0.3334  0.7658 -1.4702
 4222TIP3    H234158   6.476   4.238  12.837 -0.5775 -1.2627  1.7598
 4223TIP3   OH234159   1.138   6.658   3.561  0.1847  0.4460  0.3964
 4223TIP3    H134160   1.189   6.644   3.482 -1.9922 -2.3095 -0.7208
 4223TIP3    H234161   1.104   6.747   3.553  0.5817  0.4664 -1.4297
 4224TIP3   OH234162   3.039   3.138   1.096  0.0961 -0.3757  0.6648
 4224TIP3    H134163   2.946   3.143   1.118  0.1573 -0.8863  1.0422
 4224TIP3    H234164   3.072   3.065   1.148  0.8752  0.2912  1.1207
 4225TIP3   OH234165   5.096   1.536  16.448 -0.2979  0.4595  0.5270
 4225TIP3    H134166   5.061   1.543  16.537  0.5894  0.4354  0.8890
 4225TIP3    H234167   5.057   1.609  16.401  0.6131  1.5624  1.4283
 4226TIP3   OH234168   6.211   0.691  12.236  0.0441  0.5958 -0.4011
 4226TIP3    H134169   6.276   0.622  12.223  0.6586  0.6592  1.9745
 4226TIP3    H234170   6.146   0.676  12.167  0.8643 -1.5133 -0.7773
 4227TIP3   OH234171   3.919   0.732  16.928  0.2621 -0.3133  0.1875
 4227TIP3    H134172   3.916   0.826  16.912 -2.0124 -0.5501 -1.2928
 4227TIP3    H234173   3.867   0.720  17.008  0.3190 -0.3192  0.2243
 4228TIP3   OH234174   3.113   4.430   4.144 -0.2078 -0.8830  0.0820
 4228TIP3    H134175   3.083   4.495   4.208  0.8447  0.9828 -1.2263
 4228TIP3    H234176   3.087   4.467   4.059 -2.5389 -3.7899 -0.6366
 4229TIP3   OH234177   0.675   2.011   4.061 -0.2387 -0.1090  0.3572
 4229TIP3    H134178   0.672   1.918   4.040  2.5415 -0.6379  1.8344
 4229TIP3    H234179   0.703   2.015   4.153  1.6101  2.1437 -0.1943
 4230TIP3   OH234180   4.304   5.189   1.771 -0.1594  0.4346  0.3234
 4230TIP3    H134181   4.276   5.211   1.860  0.9372  1.0609  0.5267
 4230TIP3    H234182   4.253   5.247   1.715  0.5384  1.3974  0.6710
 4231TIP3   OH234183   5.204   1.201   1.421  0.4308 -0.5963 -0.5242
 4231TIP3    H134184   5.202   1.203   1.326  0.5256  0.9570 -0.5186
 4231TIP3    H234185   5.214   1.293   1.447 -0.5799 -0.8766  0.9986
 4232TIP3   OH234186   0.635   3.046   1.153 -0.0503  0.1981 -0.4716
 4232TIP3    H134187   0.664   2.956   1.163 -1.4297 -0.2524 -0.2571
 4232TIP3    H234188   0.628   3.080   1.242 -0.3415  0.2327 -0.5043
 4233TIP3   OH234189   6.040   0.188  12.128  0.0635 -0.9573 -0.0752
 4233TIP3    H134190   5.991   0.232  12.059  0.2035 -1.4094 -0.4671
 4233TIP3    H234191   5.998   0.102  12.136 -0.0004 -0.8823  0.4571
 4234TIP3   OH234192   6.477   6.067   1.367 -0.0167  0.3612 -0.1519
 4234TIP3    H134193   6.501   6.160   1.367  0.7654  0.1685 -0.5256
 4234TIP3    H234194   6.451   6.048   1.277 -0.2726  0.2424 -0.0535
 4235TIP3   OH234195   6.232   3.085  15.200  0.4058  0.1209  0.4959
 4235TIP3    H134196   6.228   2.999  15.158  1.0828  1.6311 -2.9960
 4235TIP3    H234197   6.322   3.114  15.188  0.3086  1.1985  2.0129
 4236TIP3   OH234198   1.655   1.417   0.533  0.4763  0.0641 -0.4779
 4236TIP3    H134199   1.594   1.426   0.606  0.6192  0.2731 -0.3823
 4236TIP3    H234200   1.687   1.327   0.538 -0.2117 -0.2079 -0.8353
 4237TIP3   OH234201   0.121   0.086   6.278  0.1758 -0.0720 -0.4402
 4237TIP3    H134202   0.198   0.061   6.329  0.5913  1.2056 -0.4231
 4237TIP3    H234203   0.056   0.018   6.297  0.5428  0.0382  1.2825
 4238TIP3   OH234204   0.570   6.570   5.482 -0.0567 -0.3089 -0.0297
 4238TIP3    H134205   0.596   6.478   5.475  1.0619  0.0432 -0.8433
 4238TIP3    H234206   0.487   6.576   5.434 -1.2291 -1.2726  1.7776
 4239TIP3   OH234207   1.708   6.825  14.733 -0.0315 -0.1812  0.1212
 4239TIP3    H134208   1.713   6.733  14.758 -1.2560 -0.3362 -0.1458
 4239TIP3    H234209   1.759   6.871  14.800  0.4937 -1.0301  0.3250
 4240TIP3   OH234210   4.497   3.341   5.605  0.6007  0.3024  0.7744
 4240TIP3    H134211   4.554   3.393   5.662 -0.2156  3.4792 -1.0531
 4240TIP3    H234212   4.553   3.316   5.531  0.4628  0.5115  0.5972
 4241TIP3   OH234213   5.467   3.109   0.911  0.0318  0.6326 -0.7049
 4241TIP3    H134214   5.500   3.057   0.837  1.0372  1.0044 -0.5276
 4241TIP3    H234215   5.504   3.197   0.897  0.2060  0.7145  0.2243
 4242TIP3   OH234216   5.053   1.857   4.493  0.2817 -0.2461  0.3249
 4242TIP3    H134217   5.141   1.861   4.531  0.2207  0.1450  0.4223
 4242TIP3    H234218   5.049   1.770   4.453  1.3442  0.3627 -1.1961
 4243TIP3   OH234219   0.360   3.288   0.250  0.1333  0.7470  1.2081
 4243TIP3    H134220   0.278   3.294   0.300  0.2695  1.0878  1.3911
 4243TIP3    H234221   0.428   3.278   0.317  0.2477  0.5347  1.0592
 4244TIP3   OH234222   5.400   5.508  16.363  0.1652 -0.5193 -0.7032
 4244TIP3    H134223   5.312   5.490  16.329 -0.0061 -0.6894 -0.1848
 4244TIP3    H234224   5.394   5.486  16.456  0.6374 -0.1113 -0.5739
 4245TIP3   OH234225   4.234   6.365  12.858 -0.1159 -0.7135 -0.5981
 4245TIP3    H134226   4.225   6.383  12.952  0.7671 -0.1616 -0.6068
 4245TIP3    H234227   4.187   6.437  12.816  0.4045 -0.3627 -0.5872
 4246TIP3   OH234228   3.790   0.661  15.513  0.5780  0.0984  0.3068
 4246TIP3    H134229   3.735   0.727  15.556  0.1907 -1.1076  1.7300
 4246TIP3    H234230   3.850   0.713  15.459 -0.2422  1.5742  0.7382
 4247TIP3   OH234231   2.958   4.510  12.154  0.0261 -0.3928 -0.2939
 4247TIP3    H134232   3.019   4.449  12.112  1.1514 -0.2529  1.0647
 4247TIP3    H234233   2.897   4.535  12.084  0.1036 -2.3255 -1.1101
 4248TIP3   OH234234   4.774   4.303  15.919  0.5154 -0.0965  0.0441
 4248TIP3    H134235   4.709   4.364  15.885  2.1383  1.6896 -0.0052
 4248TIP3    H234236   4.744   4.285  16.009  0.8810  2.1743  0.6874
 4249TIP3   OH234237   6.197   1.924  14.068 -0.2174  0.2391 -0.1032
 4249TIP3    H134238   6.266   1.861  14.047 -0.1432 -0.4413  1.8870
 4249TIP3    H234239   6.201   1.931  14.164 -1.3278  2.0326 -0.1487
 4250TIP3   OH234240   0.518   2.656  14.403  0.1446 -0.5898 -0.0330
 4250TIP3    H134241   0.526   2.679  14.310  0.7608 -2.7342 -0.5791
 4250TIP3    H234242   0.515   2.560  14.403  0.2017 -0.6342  2.1804
 4251TIP3   OH234243   5.531   4.965   0.070  0.0998  0.8348  0.3870
 4251TIP3    H134244   5.575   4.889   0.032 -0.9564  1.1616 -1.6566
 4251TIP3    H234245   5.535   4.951   0.165  1.7216 -0.7117  0.1461
 4252TIP3   OH234246   2.490   2.588   4.658 -0.2112  0.3195  0.0368
 4252TIP3    H134247   2.466   2.559   4.746 -0.7868  1.3022  0.2219
 4252TIP3    H234248   2.586   2.581   4.656 -0.2041  0.1193  0.6780
 4253TIP3   OH234249   2.063   5.818  12.142 -0.6054 -0.2591 -0.5032
 4253TIP3    H134250   1.975   5.802  12.108 -0.5099  0.9118 -1.3427
 4253TIP3    H234251   2.075   5.913  12.135  0.1769 -0.2123  0.9881
 4254TIP3   OH234252   6.474   4.148   3.982  0.0589 -0.2846 -0.1410
 4254TIP3    H134253   6.568   4.145   3.999 -0.2123  1.7496  2.3224
 4254TIP3    H234254   6.434   4.107   4.059 -1.0929  1.7412  0.4082
 4255TIP3   OH234255   4.244   5.210  16.122  0.1497 -0.4408 -0.0937
 4255TIP3    H134256   4.307   5.169  16.182 -0.0002  0.9474  1.0491
 4255TIP3    H234257   4.159   5.177  16.151  0.0403  0.5397  0.7489
 4256TIP3   OH234258   3.584   3.763  16.197  0.4216 -0.1064 -0.0377
 4256TIP3    H134259   3.519   3.737  16.262  0.8090  1.1097  0.8774
 4256TIP3    H234260   3.533   3.807  16.128  0.0480 -1.0886 -0.3955
 4257TIP3   OH234261   5.945   4.787  10.759  0.2544  0.2783  0.1419
 4257TIP3    H134262   5.878   4.756  10.698 -0.4665  1.4443  0.3184
 4257TIP3    H234263   5.972   4.871  10.723  1.4528 -0.0638  0.2167
 4258TIP3   OH234264   4.062   4.957  16.777  0.3249 -0.2077  0.3210
 4258TIP3    H134265   3.977   4.966  16.734  0.0276 -1.4639  0.6335
 4258TIP3    H234266   4.072   5.038  16.827  0.3247  0.9598 -1.4403
 4259TIP3   OH234267   5.872   4.467   0.534 -0.2542  0.1865  0.1762
 4259TIP3    H134268   5.817   4.542   0.510 -0.3081  0.0309 -0.1874
 4259TIP3    H234269   5.953   4.507   0.565  0.6537  0.3813 -2.2421
 4260TIP3   OH234270   6.453   2.835  11.182 -0.1864  0.2667 -0.9238
 4260TIP3    H134271   6.438   2.795  11.096  0.6252 -1.1992 -0.4093
 4260TIP3    H234272   6.523   2.899  11.167 -1.7524  1.8557 -1.8298
 4261TIP3   OH234273   4.395   6.156   3.665  0.2579  0.3212 -0.2398
 4261TIP3    H134274   4.328   6.197   3.721  0.6068 -1.3316  1.5001
 4261TIP3    H234275   4.344   6.104   3.602 -0.1187  0.1008  0.2384
 4262TIP3   OH234276   0.077   3.259   2.436 -0.7197  0.2302  0.0522
 4262TIP3    H134277   0.124   3.329   2.391 -1.4207 -1.7345 -4.2167
 4262TIP3    H234278   0.011   3.304   2.489  0.4155  2.7855 -0.5630
 4263TIP3   OH234279   5.829   0.047   6.513  0.0572 -0.0318  0.4157
 4263TIP3    H134280   5.759   0.111   6.501 -1.0958 -1.5682 -1.5637
 4263TIP3    H234281   5.886   0.060   6.437  0.4235 -0.6033  0.5869
 4264TIP3   OH234282   6.180   4.926   2.687 -0.4974 -0.2063  0.3997
 4264TIP3    H134283   6.131   4.979   2.625 -0.8857 -1.3276 -0.2865
 4264TIP3    H234284   6.257   4.979   2.709 -1.0149  0.7429 -0.0363
 4265TIP3   OH234285   3.404   4.626  15.054 -0.4617 -0.3654 -0.4687
 4265TIP3    H134286   3.415   4.681  14.976 -0.7211 -1.6459 -1.4491
 4265TIP3    H234287   3.488   4.582  15.063 -1.2434 -2.2087 -1.6458
 4266TIP3   OH234288   5.389   4.597  14.431 -0.0541 -0.3084  0.2649
 4266TIP3    H134289   5.464   4.649  14.402  0.0814 -1.0534 -0.7923
 4266TIP3    H234290   5.313   4.646  14.400  0.0606 -0.4980 -0.3336
 4267TIP3   OH234291   0.606   6.480  14.727  0.0961  0.1621 -0.4352
 4267TIP3    H134292   0.523   6.433  14.732 -1.4966  2.8619  1.3346
 4267TIP3    H234293   0.583   6.565  14.689  2.3006  0.5758 -0.9886
 4268TIP3   OH234294   0.860   1.845  11.565 -0.5380  0.0042 -0.0665
 4268TIP3    H134295   0.883   1.841  11.657 -0.2279  0.6426 -0.1141
 4268TIP3    H234296   0.769   1.876  11.564  0.3508  2.8848 -0.0427
 4269TIP3   OH234297   6.339   1.646   5.081  0.3163 -0.1340 -0.3261
 4269TIP3    H134298   6.287   1.695   5.018  0.2804 -1.2114 -1.1562
 4269TIP3    H234299   6.430   1.663   5.057  0.3602  1.1636  0.6743
 4270TIP3   OH234300   2.380   4.000  15.839 -0.0804  0.3032 -0.0087
 4270TIP3    H134301   2.370   4.039  15.753  0.6239 -1.7859 -1.1139
 4270TIP3    H234302   2.292   3.969  15.862 -0.3804  1.3367  0.3179
 4271TIP3   OH234303   6.163   4.454   2.526 -0.0211  0.1612 -0.3977
 4271TIP3    H134304   6.185   4.534   2.573  0.4452 -0.1260 -0.1187
 4271TIP3    H234305   6.137   4.392   2.595  0.5872 -0.2361 -0.5245
 4272TIP3   OH234306   5.049   3.475  13.064 -0.6803  0.4113  0.9148
 4272TIP3    H134307   5.134   3.440  13.036  0.0108  3.0106 -0.5412
 4272TIP3    H234308   5.070   3.544  13.127 -1.3436  3.2110 -1.6890
 4273TIP3   OH234309   5.034   5.037  16.316  0.6478 -0.5589 -0.4706
 4273TIP3    H134310   5.103   5.004  16.373 -0.2138  0.5926  1.3253
 4273TIP3    H234311   4.954   4.995  16.348  0.2166 -0.3105 -1.2010
 4274TIP3   OH234312   3.668   2.910  12.034 -0.0929  0.0620 -0.0192
 4274TIP3    H134313   3.635   2.916  11.944  2.1947  0.1239 -0.9103
 4274TIP3    H234314   3.668   2.816  12.053 -1.2281  0.0893  0.2140
 4275TIP3   OH234315   0.424   3.163  12.841 -0.5099  0.6933  0.1495
 4275TIP3    H134316   0.470   3.088  12.805  0.3316  1.3438 -0.1709
 4275TIP3    H234317   0.458   3.173  12.929  0.4364  1.5377 -0.2948
 4276TIP3   OH234318   0.581   5.584  16.432  0.2893 -0.3886  0.1684
 4276TIP3    H134319   0.619   5.665  16.464 -0.8173 -0.1317  0.9219
 4276TIP3    H234320   0.527   5.610  16.358  0.9065 -0.6252 -0.3702
 4277TIP3   OH234321   0.515   0.359   3.181 -0.7909 -0.1167 -0.1821
 4277TIP3    H134322   0.570   0.297   3.230 -2.0744 -0.9384  0.2596
 4277TIP3    H234323   0.426   0.325   3.190 -1.2438  0.5190 -1.8791
 4278TIP3   OH234324   0.496   5.447   4.898 -0.0543  0.1665  0.1749
 4278TIP3    H134325   0.514   5.531   4.941  0.9010  1.2561 -2.1622
 4278TIP3    H234326   0.549   5.383   4.945  0.5578  1.1991  0.9221
 4279TIP3   OH234327   4.571   5.678  12.890  0.1511 -0.2765 -0.0909
 4279TIP3    H134328   4.661   5.683  12.921 -0.2447  2.6996  0.8974
 4279TIP3    H234329   4.533   5.604  12.938  1.2190  0.4369  1.9831
 4280TIP3   OH234330   1.157   2.953   5.292  0.4597  0.1701 -0.9989
 4280TIP3    H134331   1.252   2.939   5.287  0.5270  0.8039 -1.6889
 4280TIP3    H234332   1.126   2.939   5.202 -0.2185 -0.8005 -0.6259
 4281TIP3   OH234333   6.051   5.399   5.527  0.2404 -0.1021  0.6337
 4281TIP3    H134334   6.047   5.304   5.518 -2.5659 -0.0515  0.6118
 4281TIP3    H234335   6.029   5.415   5.619 -1.4811  0.5501  0.1486
 4282TIP3   OH234336   2.833   6.160  15.875  0.5403  0.4077 -0.7309
 4282TIP3    H134337   2.839   6.234  15.815 -3.4081 -0.0437 -2.0129
 4282TIP3    H234338   2.807   6.086  15.819  0.0691 -0.8738  1.0693
 4283TIP3   OH234339   0.562   4.655  12.254  0.6577  0.2613 -0.1908
 4283TIP3    H134340   0.649   4.652  12.295 -0.2133 -1.4163  1.6804
 4283TIP3    H234341   0.501   4.637  12.326 -1.0484 -1.4235 -1.9538
 4284TIP3   OH234342   6.744   4.643   5.196 -0.0543 -0.4695  0.9434
 4284TIP3    H134343   6.820   4.593   5.166 -0.7210 -1.5870  1.0567
 4284TIP3    H234344   6.750   4.639   5.292 -0.7502 -1.3688  0.9613
 4285TIP3   OH234345   3.484   2.537  13.551  0.5560  0.6125  0.3537
 4285TIP3    H134346   3.424   2.464  13.566  1.5095  0.0907  1.8271
 4285TIP3    H234347   3.571   2.500  13.564  1.3343  1.1313 -2.5940
 4286TIP3   OH234348   1.456   0.007   3.154  0.4264  0.1297 -0.2033
 4286TIP3    H134349   1.537   0.024   3.105  0.4112  1.6258  0.2603
 4286TIP3    H234350   1.389   0.056   3.107  0.3653  1.3966  1.1236
 4287TIP3   OH234351   6.179   2.405  12.791  0.4773 -0.3213 -0.6889
 4287TIP3    H134352   6.224   2.362  12.864  0.9840  0.6095 -0.4437
 4287TIP3    H234353   6.088   2.376  12.800  0.9356 -2.0167 -1.0415
 4288TIP3   OH234354   4.479   5.261  15.365  0.1649 -0.6061  0.3001
 4288TIP3    H134355   4.410   5.212  15.408  0.6064 -1.3286  0.2012
 4288TIP3    H234356   4.433   5.317  15.302 -0.5671  1.0869  2.2220
 4289TIP3   OH234357   3.706   1.271   3.409 -0.1395 -0.3406  0.1052
 4289TIP3    H134358   3.648   1.296   3.337 -0.4114 -0.4469  0.2873
 4289TIP3    H234359   3.765   1.206   3.370  0.5187  0.5089 -0.3510
 4290TIP3   OH234360   1.600   2.116  13.557 -0.6068 -0.1910 -0.1946
 4290TIP3    H134361   1.648   2.038  13.582  1.2656  0.6542 -0.9212
 4290TIP3    H234362   1.644   2.147  13.477 -2.4906  0.5550 -1.0194
 4291TIP3   OH234363   3.177   1.399   1.178 -0.1038  0.2689 -0.2342
 4291TIP3    H134364   3.128   1.391   1.260 -2.5504 -1.5186 -1.7346
 4291TIP3    H234365   3.231   1.320   1.175 -0.5681 -0.0381 -0.6488
 4292TIP3   OH234366   6.635   4.380  13.092 -0.1660 -0.4317 -0.4442
 4292TIP3    H134367   6.728   4.379  13.071 -0.2215  0.4156 -0.7600
 4292TIP3    H234368   6.597   4.308  13.042  0.1776 -0.2427 -0.9713
 4293TIP3   OH234369   4.188   0.139   0.065 -0.2113  0.6645 -0.0172
 4293TIP3    H134370   4.234   0.065   0.104 -0.6055 -0.6520 -1.9546
 4293TIP3    H234371   4.258   0.200   0.040  0.1277  0.8893  1.3902
 4294TIP3   OH234372   2.515   3.219  12.623 -0.4112  0.3400  0.0557
 4294TIP3    H134373   2.608   3.207  12.608 -0.9461 -0.6872 -3.2748
 4294TIP3    H234374   2.488   3.140  12.670  0.0253 -0.5526 -1.1547
 4295TIP3   OH234375   4.237   1.238  10.572 -0.0956 -0.2875 -0.2547
 4295TIP3    H134376   4.216   1.203  10.658 -1.1262 -1.7269 -1.0497
 4295TIP3    H234377   4.158   1.285  10.545  0.2699  0.2755 -0.3637
 4296TIP3   OH234378   6.822   2.280  13.228 -0.7173 -0.3400 -0.0583
 4296TIP3    H134379   6.818   2.270  13.323  1.7058  0.2296  0.1482
 4296TIP3    H234380   6.762   2.352  13.209 -3.1502 -2.0236  0.6727
 4297TIP3   OH234381   0.179   4.114  12.233 -0.1059 -0.4638  0.5273
 4297TIP3    H134382   0.266   4.097  12.197  0.1738 -0.8290  1.3514
 4297TIP3    H234383   0.164   4.042  12.294 -1.2084 -0.6854  0.0182
 4298TIP3   OH234384   0.512   1.545  16.881  0.4342  0.1306 -0.6706
 4298TIP3    H134385   0.537   1.472  16.824  0.6689 -0.2944 -0.0271
 4298TIP3    H234386   0.558   1.529  16.963  0.4636  0.9927 -0.5122
 4299TIP3   OH234387   2.800   5.243   3.604  0.5574 -0.5264  0.5971
 4299TIP3    H134388   2.740   5.317   3.593  0.5928 -0.2829  1.9312
 4299TIP3    H234389   2.877   5.280   3.646  1.6501 -0.8648 -0.9934
 4300TIP3   OH234390   5.089   4.521   2.858  0.2334  0.2204 -0.1653
 4300TIP3    H134391   5.146   4.445   2.845  0.7677  0.7416 -0.9010
 4300TIP3    H234392   5.001   4.489   2.837  0.3687 -0.3511  0.1229
 4301TIP3   OH234393   3.271   4.731   1.336  0.1377  0.3619  0.9346
 4301TIP3    H134394   3.193   4.786   1.329 -0.6348 -0.2723  3.4675
 4301TIP3    H234395   3.310   4.756   1.420  1.3407 -1.0119  0.8253
 4302TIP3   OH234396   0.532   4.739  12.704  0.0126  0.1149  0.0579
 4302TIP3    H134397   0.532   4.834  12.698  1.0951  0.1162 -0.1138
 4302TIP3    H234398   0.439   4.715  12.713 -0.2696  1.1709  0.0444
 4303TIP3   OH234399   5.599   0.606   5.009  0.4547 -0.1585 -0.3634
 4303TIP3    H134400   5.618   0.694   5.040  0.6911 -0.1607 -0.5014
 4303TIP3    H234401   5.505   0.606   4.992  0.5073  0.1573 -0.6460
 4304TIP3   OH234402   0.693   0.886   1.907 -0.1223 -0.5458 -0.5268
 4304TIP3    H134403   0.617   0.862   1.960 -0.1453 -3.2785 -1.6407
 4304TIP3    H234404   0.669   0.861   1.818  1.1178  1.0062 -1.3518
 4305TIP3   OH234405   2.993   5.468   1.337 -0.6701  0.7987 -0.1742
 4305TIP3    H134406   2.923   5.441   1.397  1.1808 -2.1602  0.8762
 4305TIP3    H234407   3.061   5.504   1.394  0.0624  0.3625 -0.7604
 4306TIP3   OH234408   2.627   4.076   6.667 -0.6631 -0.0382 -0.2702
 4306TIP3    H134409   2.546   4.089   6.716 -0.7508  0.7393 -0.6004
 4306TIP3    H234410   2.686   4.144   6.701 -0.6545  0.3733 -1.0791
 4307TIP3   OH234411   4.635   4.619  14.335 -0.3088 -0.2894  0.1117
 4307TIP3    H134412   4.629   4.707  14.372  0.5334 -0.1136 -0.1282
 4307TIP3    H234413   4.567   4.569  14.379 -0.1009  0.2192  1.0322
 4308TIP3   OH234414   0.315   4.956   5.602 -0.4003 -0.2609 -0.0635
 4308TIP3    H134415   0.282   5.022   5.541 -0.1205  0.5207  0.6179
 4308TIP3    H234416   0.335   4.880   5.546 -1.0961  0.0781 -0.8023
 4309TIP3   OH234417   5.045   1.905   3.322  0.4980  0.3229 -0.0631
 4309TIP3    H134418   5.091   1.839   3.271 -0.9377 -0.0959 -0.8771
 4309TIP3    H234419   5.061   1.880   3.413  0.1570 -1.0383 -0.3553
 4310TIP3   OH234420   1.921   4.603  11.718 -0.6610  0.0433  0.0252
 4310TIP3    H134421   1.900   4.529  11.661 -3.6135  0.1635  0.7877
 4310TIP3    H234422   1.836   4.642  11.739  0.2415  0.1816  4.3134
 4311TIP3   OH234423   4.471   0.301  15.321 -0.1703  0.1393  0.0954
 4311TIP3    H134424   4.557   0.272  15.350 -0.5844  0.2352  1.4846
 4311TIP3    H234425   4.483   0.393  15.297  0.0240  0.2757  0.7047
 4312TIP3   OH234426   2.339   4.844   0.564 -0.2423  0.6094 -0.1341
 4312TIP3    H134427   2.372   4.816   0.478 -0.2600 -0.2896  0.1351
 4312TIP3    H234428   2.313   4.935   0.552  1.5756  1.1154 -0.5813
 4313TIP3   OH234429   6.439   4.036   1.974 -0.3035  0.2127  0.3677
 4313TIP3    H134430   6.504   3.972   2.002  0.0328  1.5781  3.1358
 4313TIP3    H234431   6.428   4.021   1.881  1.0538 -2.6532  0.5630
 4314TIP3   OH234432   2.426   5.986   2.986  0.2604  0.2456 -0.4906
 4314TIP3    H134433   2.443   6.013   2.895  0.7419 -1.3140 -0.9117
 4314TIP3    H234434   2.489   5.914   3.001 -1.1864 -0.8905  0.3745
 4315TIP3   OH234435   6.636   0.007  13.276  0.2040  0.3962  0.5127
 4315TIP3    H134436   6.614   0.086  13.226 -0.3912 -0.0488  0.0468
 4315TIP3    H234437   6.580   0.012  13.353  0.7839  0.8491  0.9129
 4316TIP3   OH234438   1.526   1.496   3.338 -0.2129  0.2043  0.4811
 4316TIP3    H134439   1.479   1.576   3.361  0.4076  0.3765  1.1856
 4316TIP3    H234440   1.601   1.494   3.397  0.6852 -0.0592 -0.6340
 4317TIP3   OH234441   6.535   5.876  14.902  0.2839 -0.3925 -0.1204
 4317TIP3    H134442   6.501   5.802  14.851 -0.9510  1.4140 -2.0830
 4317TIP3    H234443   6.497   5.953  14.860  2.2966  1.4365  1.2380
 4318TIP3   OH234444   1.019   0.328  12.737  0.2474 -0.2385 -0.1566
 4318TIP3    H134445   0.965   0.262  12.694 -0.4422  0.0974  0.1816
 4318TIP3    H234446   0.979   0.411  12.712  2.1603  0.1902 -2.0691
 4319TIP3   OH234447   2.210   1.922  15.708  0.2760 -0.0408  0.3916
 4319TIP3    H134448   2.294   1.963  15.691 -0.1566  1.0969  0.8803
 4319TIP3    H234449   2.161   1.930  15.626  0.4637 -0.2505  0.2601
 4320TIP3   OH234450   2.039   0.911  12.304 -0.2153  0.6215 -0.2060
 4320TIP3    H134451   2.055   0.952  12.219 -0.0312  2.1945  0.5511
 4320TIP3    H234452   2.116   0.934  12.357 -0.4036 -0.1924  0.4422
 4321TIP3   OH234453   6.286   1.309   1.449  0.5344 -0.0391  0.0031
 4321TIP3    H134454   6.347   1.241   1.421 -1.4225 -1.7781 -0.2092
 4321TIP3    H234455   6.287   1.304   1.545  1.2425  0.4523  0.0314
 4322TIP3   OH234456   3.217   2.439   3.406 -0.1233 -0.4938 -0.1488
 4322TIP3    H134457   3.255   2.404   3.325  0.1820 -2.7993  0.9165
 4322TIP3    H234458   3.208   2.363   3.463 -1.9400  0.7814  1.3904
 4323TIP3   OH234459   6.749   0.065  15.682 -0.0845  0.1580 -0.2109
 4323TIP3    H134460   6.731   0.077  15.775 -0.5782  0.7254 -0.3702
 4323TIP3    H234461   6.717  -0.023  15.663 -0.3488  0.1882  0.0789
 4324TIP3   OH234462   1.447   6.247   1.192  0.3689 -0.2686 -0.4964
 4324TIP3    H134463   1.451   6.293   1.108  0.0936  0.9073  0.1122
 4324TIP3    H234464   1.358   6.209   1.194  0.2667 -0.0368 -0.5995
 4325TIP3   OH234465   1.910   5.246   2.004 -0.1417  0.0598 -0.0370
 4325TIP3    H134466   1.997   5.275   1.975 -0.9000  1.8699 -0.6825
 4325TIP3    H234467   1.895   5.294   2.086 -0.2968 -0.7013  0.3860
 4326TIP3   OH234468   2.346   6.646  14.964  0.1502 -0.3021  0.2886
 4326TIP3    H134469   2.271   6.638  15.023 -0.5247  0.4224 -0.4382
 4326TIP3    H234470   2.399   6.717  15.000 -0.2510  0.1258  0.0438
 4327TIP3   OH234471   4.864   5.386  14.396  0.4073  0.2957  0.1454
 4327TIP3    H134472   4.872   5.438  14.477  0.6214  0.1266  0.2330
 4327TIP3    H234473   4.809   5.312  14.420 -0.3180  0.7457 -0.1091
 4328TIP3   OH234474   3.230   3.324  12.789 -0.0712 -0.2413  0.0119
 4328TIP3    H134475   3.296   3.255  12.797 -0.7641 -0.8271  0.8430
 4328TIP3    H234476   3.151   3.286  12.827 -0.3279  1.1980  0.9733
 4329TIP3   OH234477   3.691   0.632  16.110  0.2000 -0.1332  0.4795
 4329TIP3    H134478   3.693   0.539  16.090 -0.5139 -0.2826  1.0405
 4329TIP3    H234479   3.698   0.636  16.206  0.4045  0.3982  0.4460
 4330TIP3   OH234480   0.864   1.751  15.642 -0.0973  0.5098 -0.0919
 4330TIP3    H134481   0.822   1.836  15.653 -1.7330  0.0002 -1.7417
 4330TIP3    H234482   0.957   1.770  15.628  0.0329  1.7979  2.2149
 4331TIP3   OH234483   5.192   1.368   1.888  0.2989 -0.1295  0.0224
 4331TIP3    H134484   5.100   1.389   1.872 -0.2753 -2.0053  0.6414
 4331TIP3    H234485   5.240   1.440   1.846 -1.3292 -0.7379 -3.2778
 4332TIP3   OH234486   4.669   4.820   2.421  0.1698 -0.0462  0.0505
 4332TIP3    H134487   4.601   4.861   2.368  0.8496  1.1122  0.0445
 4332TIP3    H234488   4.654   4.854   2.509 -1.2612 -2.3386  0.7763
 4333TIP3   OH234489   2.600   3.071  15.440  0.1828 -0.3539 -0.2984
 4333TIP3    H134490   2.531   3.050  15.504  0.4971  0.6374  0.3893
 4333TIP3    H234491   2.664   3.121  15.490  1.6922 -1.7090 -0.7966
 4334TIP3   OH234492   2.291   4.886   2.252  0.5606  0.5538  0.0861
 4334TIP3    H134493   2.261   4.813   2.306 -0.1175  0.7874  0.0338
 4334TIP3    H234494   2.215   4.944   2.245  0.9231  0.9902 -0.3380
 4335TIP3   OH234495   0.943   5.413  13.065 -0.8559  0.3166  0.1130
 4335TIP3    H134496   1.002   5.340  13.084 -1.3687 -0.1766 -0.1665
 4335TIP3    H234497   0.980   5.487  13.113 -0.6827 -0.2744  0.9104
 4336TIP3   OH234498   6.079   1.198  15.983  0.7562 -0.0130  0.2744
 4336TIP3    H134499   6.038   1.185  16.068 -0.5799  1.0076 -0.1728
 4336TIP3    H234500   6.027   1.146  15.922  0.4838  0.7918 -0.2047
 4337TIP3   OH234501   5.309   5.192  14.296 -0.4343 -0.1671  0.2906
 4337TIP3    H134502   5.255   5.114  14.281  0.7149 -0.8245 -0.6293
 4337TIP3    H234503   5.276   5.229  14.377 -2.4326 -0.3811 -0.3720
 4338TIP3   OH234504   3.491   2.331  14.651 -0.0786 -0.2036  0.1907
 4338TIP3    H134505   3.536   2.414  14.637 -0.9251  0.3777  0.8435
 4338TIP3    H234506   3.538   2.269  14.595  0.4346  0.7524 -0.4701
 4339TIP3   OH234507   4.734   3.221  13.579  0.1241 -0.5125 -0.1583
 4339TIP3    H134508   4.728   3.182  13.666  1.1722  1.2750  0.7847
 4339TIP3    H234509   4.669   3.292  13.580  2.2228  1.5503  0.4061
 4340TIP3   OH234510   3.577   0.805   5.050  0.0369 -0.6508  0.0467
 4340TIP3    H134511   3.635   0.730   5.033 -1.5860 -2.3458  1.5149
 4340TIP3    H234512   3.493   0.765   5.076 -0.8225  1.6861  1.1534
 4341TIP3   OH234513   6.791   4.254   0.742  0.0508 -0.0146 -0.4286
 4341TIP3    H134514   6.875   4.209   0.756  0.4350  1.5604  3.7135
 4341TIP3    H234515   6.816   4.346   0.731 -1.0517  0.6090  1.7664
 4342TIP3   OH234516   3.668   0.325   3.509  0.3765  0.4327  0.2029
 4342TIP3    H134517   3.682   0.244   3.557 -2.8957 -0.0433  0.5953
 4342TIP3    H234518   3.727   0.388   3.549  0.2494 -0.8220  2.5129
 4343TIP3   OH234519   6.379   5.865  12.664 -0.1082  0.5336 -0.0275
 4343TIP3    H134520   6.294   5.883  12.623 -0.1051 -0.0470 -0.3074
 4343TIP3    H234521   6.432   5.942  12.643 -0.2086  0.3865 -0.8597
 4344TIP3   OH234522   1.557   1.281   1.625  0.1070 -0.5001  0.1397
 4344TIP3    H134523   1.487   1.320   1.574 -0.6433 -2.7219 -0.6641
 4344TIP3    H234524   1.632   1.279   1.565 -0.0671 -0.9158 -0.0701
 4345TIP3   OH234525   4.653   4.819  14.848  0.8298 -0.6246 -0.2894
 4345TIP3    H134526   4.574   4.767  14.859  1.6055 -1.6105  0.9344
 4345TIP3    H234527   4.623   4.910  14.846 -0.3290 -0.9921  0.0113
 4346TIP3   OH234528   5.327   0.322  16.791  0.0631  0.3255 -0.2503
 4346TIP3    H134529   5.360   0.330  16.702 -1.9171 -1.3498 -1.2081
 4346TIP3    H234530   5.253   0.384  16.795  0.1176  0.3632  0.2137
 4347TIP3   OH234531   4.732   5.927   6.111 -0.1695  0.2530  0.3233
 4347TIP3    H134532   4.825   5.942   6.128  0.0547 -2.1040  1.7025
 4347TIP3    H234533   4.726   5.911   6.017  0.7197  0.9521  0.1389
 4348TIP3   OH234534   3.250   1.639  16.110 -0.1095  0.2930  0.4158
 4348TIP3    H134535   3.233   1.547  16.131  3.1098 -0.5472 -0.1379
 4348TIP3    H234536   3.279   1.678  16.192  0.1079  0.3870  0.2944
 4349TIP3   OH234537   6.597   5.312  17.032  0.1923 -0.2726 -0.8810
 4349TIP3    H134538   6.612   5.389  17.087 -0.7303  1.0927 -2.4414
 4349TIP3    H234539   6.515   5.275  17.064 -0.8014  1.0223 -1.7888
 4350TIP3   OH234540   0.615   3.037   2.275  0.2339  0.0468 -0.2147
 4350TIP3    H134541   0.577   2.976   2.339  0.0500 -0.8520 -1.1576
 4350TIP3    H234542   0.687   3.079   2.322 -1.8639  1.7953  1.6253
 4351TIP3   OH234543   4.669   4.597   0.581  0.0686  0.3824 -0.0003
 4351TIP3    H134544   4.763   4.593   0.564 -0.0698  0.0169 -0.7211
 4351TIP3    H234545   4.630   4.545   0.511 -0.6703  0.5092  0.3100
 4352TIP3   OH234546   5.793   0.426   0.462  0.2583  0.4039 -0.3245
 4352TIP3    H134547   5.745   0.386   0.389  0.6280  0.1260 -0.4208
 4352TIP3    H234548   5.740   0.405   0.539 -0.0992  0.6412 -0.5016
 4353TIP3   OH234549   0.361   2.399   4.677  0.0447 -0.2168 -0.0533
 4353TIP3    H134550   0.389   2.377   4.766  1.5352 -0.2260 -0.4880
 4353TIP3    H234551   0.401   2.332   4.622  0.9921  1.0001 -0.9350
 4354TIP3   OH234552   0.808   2.213   0.120 -0.4284 -0.8455  0.3212
 4354TIP3    H134553   0.818   2.236   0.212  3.3169  0.5385 -0.2544
 4354TIP3    H234554   0.766   2.289   0.080  0.5208 -0.2211  0.4764
 4355TIP3   OH234555   1.693   5.498  16.358  0.1997  0.4640  0.3566
 4355TIP3    H134556   1.690   5.487  16.263  1.4682  1.4815  0.1812
 4355TIP3    H234557   1.746   5.424  16.389  0.0078  0.2841  0.2634
 4356TIP3   OH234558   0.351   6.621  12.211 -0.0791  0.0727  0.1380
 4356TIP3    H134559   0.444   6.637  12.227 -0.4042  1.4106  0.8217
 4356TIP3    H234560   0.341   6.628  12.116  0.6978 -1.2183 -0.0631
 4357TIP3   OH234561   2.130   6.212  11.342 -0.3242 -0.1433 -0.4639
 4357TIP3    H134562   2.184   6.150  11.391  0.5939  1.1538  0.2368
 4357TIP3    H234563   2.066   6.157  11.296  0.8365 -1.6399 -0.3756
 4358TIP3   OH234564   4.517   5.299   5.032 -0.2026 -0.1831 -0.0966
 4358TIP3    H134565   4.473   5.270   4.952 -1.5421  0.0888  0.5142
 4358TIP3    H234566   4.469   5.256   5.103  0.5459  0.1087  0.6099
 4359TIP3   OH234567   4.725   6.098  16.810 -0.3459 -0.3310 -0.5496
 4359TIP3    H134568   4.729   6.060  16.898  3.8662  1.0120  0.0957
 4359TIP3    H234569   4.697   6.188  16.824 -2.0510 -0.7707 -0.9679
 4360TIP3   OH234570   3.569   3.157  12.358  0.0166 -0.0066  0.0186
 4360TIP3    H134571   3.630   3.111  12.300  0.4861  1.7662 -0.9809
 4360TIP3    H234572   3.625   3.208  12.416 -0.5042 -0.1106  0.6273
 4361TIP3   OH234573   4.904   5.144  10.945 -0.7161  0.6357 -0.5794
 4361TIP3    H134574   4.875   5.066  10.899 -0.2061  0.0846  0.0077
 4361TIP3    H234575   4.866   5.135  11.033  0.1873  0.5190 -0.1904
 4362TIP3   OH234576   3.327   4.857   4.653  0.1968  0.0010 -0.1097
 4362TIP3    H134577   3.278   4.891   4.728  1.0265  0.5197  0.2129
 4362TIP3    H234578   3.322   4.762   4.663 -1.1921  0.0270 -0.3928
 4363TIP3   OH234579   5.355   6.471  10.885  0.0781 -0.6783  0.0741
 4363TIP3    H134580   5.343   6.548  10.941 -1.2459 -0.9964  0.2569
 4363TIP3    H234581   5.423   6.497  10.823 -0.7395  0.8688 -0.2258
 4364TIP3   OH234582   3.112   2.208  13.308  0.2660  0.2992  0.4720
 4364TIP3    H134583   3.095   2.202  13.402 -1.1587  0.3791  0.2424
 4364TIP3    H234584   3.113   2.118  13.277 -0.6492  0.3179  0.3555
 4365TIP3   OH234585   5.188   6.519  12.306 -0.0376 -0.2565  0.1502
 4365TIP3    H134586   5.100   6.528  12.341 -0.5788  0.3106 -1.2913
 4365TIP3    H234587   5.181   6.452  12.239  0.4621  0.3164 -0.4896
 4366TIP3   OH234588   5.048   0.835  16.910 -0.2607 -0.2587 -0.2550
 4366TIP3    H134589   5.089   0.768  16.856  0.5151  0.6893 -0.8693
 4366TIP3    H234590   5.072   0.918  16.869  0.4277  0.5054  1.5511
 4367TIP3   OH234591   4.890   2.084  11.076  0.0232 -0.1650  0.6504
 4367TIP3    H134592   4.980   2.106  11.051 -1.5046  1.7269 -4.2899
 4367TIP3    H234593   4.843   2.168  11.075 -1.9524 -1.1150  2.8786
 4368TIP3   OH234594   2.080   0.372   3.383  0.2078 -0.3306  0.6734
 4368TIP3    H134595   2.048   0.448   3.334  0.4866 -0.5086  0.2069
 4368TIP3    H234596   2.176   0.377   3.375  0.2068 -1.2995 -0.2518
 4369TIP3   OH234597   1.084   1.664  13.165  0.1865  0.7893 -0.3225
 4369TIP3    H134598   1.046   1.751  13.154  0.0397  1.0293  1.8337
 4369TIP3    H234599   1.017   1.614  13.212  0.6961 -0.1848 -0.6070
 4370TIP3   OH234600   5.736   5.313   5.116 -0.1854  0.1880 -0.1344
 4370TIP3    H134601   5.652   5.293   5.075  0.4801 -0.4669 -1.2209
 4370TIP3    H234602   5.753   5.240   5.175  0.1084 -0.2209 -0.7140
 4371TIP3   OH234603   3.377   6.788   1.822 -0.0253  0.0290 -0.1739
 4371TIP3    H134604   3.290   6.749   1.813  0.2387 -1.2060  1.8078
 4371TIP3    H234605   3.393   6.831   1.739 -2.0969 -0.6084 -0.9737
 4372TIP3   OH234606   2.988   4.426   1.479 -0.4012  0.3332  0.5118
 4372TIP3    H134607   3.065   4.421   1.536  0.4670 -0.4775 -0.6850
 4372TIP3    H234608   2.942   4.343   1.494  0.1077 -0.1185 -0.2953
 4373TIP3   OH234609   2.755   3.138   1.083 -0.2069  0.0697 -0.0905
 4373TIP3    H134610   2.667   3.103   1.091 -1.1405  2.5197  1.5158
 4373TIP3    H234611   2.748   3.205   1.015  0.1291  1.0013  0.7670
 4374TIP3   OH234612   2.466   6.799  13.440 -0.2926 -0.0561  0.3055
 4374TIP3    H134613   2.422   6.803  13.355  1.5010  1.0673 -0.6383
 4374TIP3    H234614   2.395   6.809  13.504 -2.2209 -4.5545 -0.7654
 4375TIP3   OH234615   0.869   3.509   1.345  0.4698 -0.1789  0.3789
 4375TIP3    H134616   0.837   3.422   1.323  2.2998 -1.7205  3.1296
 4375TIP3    H234617   0.850   3.518   1.439  2.9764  1.0360  0.8675
 4376TIP3   OH234618   0.065   3.843   2.469  0.0421  0.7107  0.1347
 4376TIP3    H134619  -0.023   3.829   2.504 -0.2153  0.9087 -0.4178
 4376TIP3    H234620   0.062   3.930   2.430 -0.1925 -0.1355 -1.8569
 4377TIP3   OH234621   1.085   0.525  10.984 -0.1427  0.3992  0.3130
 4377TIP3    H134622   1.159   0.568  11.027 -0.9791  1.3570  0.8152
 4377TIP3    H234623   1.085   0.436  11.022  0.9738  0.2510  0.0133
 4378TIP3   OH234624   1.330   2.010   6.023  0.0347 -0.1730 -0.1577
 4378TIP3    H134625   1.426   2.010   6.025  0.0823  1.9837  0.0706
 4378TIP3    H234626   1.307   1.949   5.953  1.6385  0.3858 -1.2240
 4379TIP3   OH234627   1.231   5.357   2.003  0.2283  0.4666 -0.1024
 4379TIP3    H134628   1.197   5.405   2.079  0.9282  0.9902 -0.1184
 4379TIP3    H234629   1.191   5.399   1.927  0.3498  0.6106 -0.0846
 4380TIP3   OH234630   4.042   0.002   1.795  0.6687  0.0653 -0.7132
 4380TIP3    H134631   4.074   0.037   1.878  0.8696 -1.1843 -0.2507
 4380TIP3    H234632   4.113   0.020   1.733  1.0679 -0.1567 -0.3243
 4381TIP3   OH234633   5.700   2.228   5.244 -0.1686 -0.4008  0.5499
 4381TIP3    H134634   5.749   2.230   5.162 -0.2022 -1.5987  0.4893
 4381TIP3    H234635   5.674   2.137   5.255 -0.4096 -0.2109  1.7519
 4382TIP3   OH234636   2.903   6.496   0.190 -0.2314  0.0422 -0.0592
 4382TIP3    H134637   2.839   6.425   0.195 -0.0834 -0.2478 -1.7746
 4382TIP3    H234638   2.986   6.455   0.214 -0.3575 -0.0595  0.2054
 4383TIP3   OH234639   2.971   3.573  13.446  0.0294 -0.6484 -0.4985
 4383TIP3    H134640   2.952   3.518  13.370 -1.5947  0.4682 -0.9647
 4383TIP3    H234641   3.021   3.517  13.505 -0.6082 -2.2582 -1.4251
 4384TIP3   OH234642   2.984   1.895  16.765  0.0163  0.4984  0.1027
 4384TIP3    H134643   2.951   1.836  16.833 -0.2075  1.4469  0.8381
 4384TIP3    H234644   3.076   1.873  16.757 -0.0715  0.0334  0.3532
 4385TIP3   OH234645   0.068   4.559  15.137  0.0016  0.1245 -0.0608
 4385TIP3    H134646   0.012   4.573  15.061 -1.4124 -2.0252  0.5081
 4385TIP3    H234647   0.011   4.572  15.213  0.1347 -2.2359  0.5308
 4386TIP3   OH234648   6.625   4.248   3.557  0.4683  0.0060 -0.0587
 4386TIP3    H134649   6.566   4.288   3.621 -1.9023 -2.8601 -0.2513
 4386TIP3    H234650   6.705   4.231   3.607 -0.7715 -0.7622  1.7654
 4387TIP3   OH234651   0.771   5.435  11.768  0.0870  0.0845 -0.0803
 4387TIP3    H134652   0.813   5.522  11.770 -0.4131  0.3381 -0.3636
 4387TIP3    H234653   0.844   5.374  11.760  0.6970  0.2382  3.1421
 4388TIP3   OH234654   5.698   2.420   0.692  0.1572  0.3885 -0.4977
 4388TIP3    H134655   5.791   2.402   0.701 -0.2301 -1.3776  0.4699
 4388TIP3    H234656   5.665   2.425   0.782 -0.8532 -0.1041 -0.8195
 4389TIP3   OH234657   2.678   1.693   0.622 -0.2620  0.0677  0.4500
 4389TIP3    H134658   2.596   1.709   0.575  0.5565 -1.7739 -1.8478
 4389TIP3    H234659   2.652   1.665   0.709 -2.0551 -0.1525 -0.1264
 4390TIP3   OH234660   3.410   2.406  11.384 -0.0176  0.0532 -0.1191
 4390TIP3    H134661   3.472   2.410  11.457 -0.8489 -0.6256  0.6389
 4390TIP3    H234662   3.326   2.433  11.421 -0.6261 -1.0790 -0.6133
 4391TIP3   OH234663   4.616   0.810  14.952  0.4204  0.3272 -0.4294
 4391TIP3    H134664   4.698   0.778  14.990  0.4074 -0.3483 -0.9437
 4391TIP3    H234665   4.608   0.762  14.869 -1.3418 -0.9192  0.3949
 4392TIP3   OH234666   2.415   1.548  13.923  0.2848  0.1168 -0.2834
 4392TIP3    H134667   2.469   1.615  13.965  0.3387 -0.6472  0.8794
 4392TIP3    H234668   2.414   1.574  13.830 -0.6785  2.4272  0.2830
 4393TIP3   OH234669   5.525   5.253  16.675  0.1282  0.0001 -0.4383
 4393TIP3    H134670   5.453   5.315  16.666 -1.9027 -2.1567 -0.2001
 4393TIP3    H234671   5.549   5.259  16.768 -1.8830 -1.3197  0.2512
 4394TIP3   OH234672   4.139   3.023   5.139 -0.0872  0.2628  0.0036
 4394TIP3    H134673   4.102   3.066   5.062  3.0430  2.0268 -0.6838
 4394TIP3    H234674   4.126   3.086   5.210  2.0361  1.2128 -0.3934
 4395TIP3   OH234675   6.566   0.790   4.525 -0.5225  0.4497 -0.0840
 4395TIP3    H134676   6.632   0.729   4.493 -1.2387 -0.5100  0.1990
 4395TIP3    H234677   6.616   0.857   4.572  0.2226 -0.5243  0.5560
 4396TIP3   OH234678   3.782   6.218  11.619  0.1888 -0.3125 -0.7008
 4396TIP3    H134679   3.763   6.151  11.685  1.4847 -0.3969 -0.3799
 4396TIP3    H234680   3.703   6.222  11.565 -0.6121 -0.7650  0.4051
 4397TIP3   OH234681   6.359   1.040  15.764  0.3465 -0.1826  0.1127
 4397TIP3    H134682   6.402   1.126  15.768 -0.7880  0.3806  0.4088
 4397TIP3    H234683   6.353   1.011  15.855 -0.4906  0.0378  0.1286
 4398TIP3   OH234684   0.735   2.357  13.885 -0.6596 -0.2379 -0.6121
 4398TIP3    H134685   0.754   2.267  13.860  1.3067  0.4459 -1.8617
 4398TIP3    H234686   0.647   2.354  13.922  0.1874 -3.0141  1.4964
 4399TIP3   OH234687   0.774   5.287  16.399 -0.5552 -0.3808 -0.2684
 4399TIP3    H134688   0.722   5.348  16.451 -0.9449 -1.5109  0.7150
 4399TIP3    H234689   0.710   5.243  16.343 -0.3323 -0.1720 -0.6922
 4400TIP3   OH234690   4.266   5.246  12.807 -0.0772 -0.0386  0.4537
 4400TIP3    H134691   4.311   5.175  12.762 -0.1595 -0.7748  1.5003
 4400TIP3    H234692   4.179   5.249  12.766 -0.4526 -1.2704  1.1339
 4401TIP3   OH234693   2.275   6.722  15.476  0.1039 -0.1807  0.0577
 4401TIP3    H134694   2.274   6.818  15.472 -2.4266 -0.0892  1.0345
 4401TIP3    H234695   2.353   6.697  15.427  0.0115  2.3206 -1.5555
 4402TIP3   OH234696   2.564   1.734  14.087  0.7366 -0.2391  0.0331
 4402TIP3    H134697   2.543   1.746  14.180 -1.8111 -0.3869 -0.4404
 4402TIP3    H234698   2.567   1.823  14.052  0.7149 -0.2170  0.0862
 4403TIP3   OH234699   5.015   1.764  11.466 -0.3252  0.0770 -0.0195
 4403TIP3    H134700   4.938   1.729  11.510  0.6016 -0.8543  0.8955
 4403TIP3    H234701   4.994   1.759  11.373 -0.8773 -1.3515  0.1655
 4404TIP3   OH234702   2.125   0.162   1.931 -0.2121 -0.1555 -0.0045
 4404TIP3    H134703   2.196   0.127   1.986  0.1754 -0.7902 -0.8895
 4404TIP3    H234704   2.071   0.214   1.992 -0.0066 -1.1421  1.0618
 4405TIP3   OH234705   2.034   4.817  13.653  0.6061 -0.1652  0.5041
 4405TIP3    H134706   2.030   4.820  13.749  1.9174 -0.4327  0.5850
 4405TIP3    H234707   2.127   4.824  13.633  0.6734 -3.0339 -0.6249
 4406TIP3   OH234708   6.284   4.701  13.032  0.4166 -0.2192 -0.0329
 4406TIP3    H134709   6.264   4.619  12.987  0.0282 -0.0397 -0.1877
 4406TIP3    H234710   6.303   4.675  13.122 -0.6440 -0.3854  0.1586
 4407TIP3   OH234711   3.673   0.140  12.501  0.1019  0.1951 -0.1382
 4407TIP3    H134712   3.607   0.203  12.531 -0.9400  0.2133 -2.2371
 4407TIP3    H234713   3.736   0.136  12.572 -1.1545  1.6566  1.1546
 4408TIP3   OH234714   3.029   2.708  16.741 -0.2972 -0.3331 -0.4301
 4408TIP3    H134715   3.115   2.685  16.776  0.0058  0.1477 -0.8506
 4408TIP3    H234716   2.997   2.627  16.703  0.5089 -0.2337 -1.3715
 4409TIP3   OH234717   3.728   0.648   4.776 -0.2764 -0.1326  0.3415
 4409TIP3    H134718   3.729   0.737   4.739 -1.0154 -0.0857  0.4061
 4409TIP3    H234719   3.819   0.629   4.797  0.0456  0.1778 -0.7157
 4410TIP3   OH234720   1.198   3.465  11.097 -0.5261 -0.4579 -1.2386
 4410TIP3    H134721   1.162   3.553  11.094  0.0628 -0.1652 -0.1449
 4410TIP3    H234722   1.191   3.433  11.007  0.9799  1.3911 -2.0819
 4411TIP3   OH234723   5.752   0.279   3.880  0.3871  0.7174 -0.4588
 4411TIP3    H134724   5.693   0.206   3.858  1.4347  0.1378 -1.4288
 4411TIP3    H234725   5.784   0.310   3.795  0.6762  1.7257  0.0015
 4412TIP3   OH234726   3.452   3.672  13.499  0.0776 -0.0638 -0.2956
 4412TIP3    H134727   3.545   3.648  13.502 -0.0017 -0.3056  0.3710
 4412TIP3    H234728   3.443   3.738  13.568  0.1799  1.5205 -1.7143
 4413TIP3   OH234729   1.411   0.662  11.628  0.3625 -0.1614 -0.1226
 4413TIP3    H134730   1.420   0.723  11.702  0.1914 -1.2679  0.8493
 4413TIP3    H234731   1.365   0.711  11.561  3.4072  2.0035 -0.8413
 4414TIP3   OH234732   6.270   6.171  14.269 -0.1768  0.3660 -0.3419
 4414TIP3    H134733   6.299   6.262  14.268 -2.4712  1.1617 -0.1741
 4414TIP3    H234734   6.175   6.176  14.259 -0.3550 -2.0242 -0.3764
 4415TIP3   OH234735   6.747   5.624   6.113  0.4621 -0.0681  0.3313
 4415TIP3    H134736   6.749   5.681   6.191  1.6316 -1.1624  1.1322
 4415TIP3    H234737   6.792   5.544   6.141  3.3860  0.5061 -2.2601
 4416TIP3   OH234738   1.836   1.311   2.521 -0.5718  0.2040  0.2831
 4416TIP3    H134739   1.905   1.342   2.462 -1.0290  0.5209 -0.1041
 4416TIP3    H234740   1.755   1.325   2.471 -0.7942 -2.0279 -0.0881
 4417TIP3   OH234741   2.193   5.943  15.868  0.2531  0.3917 -0.3022
 4417TIP3    H134742   2.111   5.910  15.905  1.1880 -0.7189  0.9064
 4417TIP3    H234743   2.261   5.905  15.924  1.7281 -0.6290 -2.6426
 4418TIP3   OH234744   2.911   6.572   1.994 -0.1389 -0.1191  0.7173
 4418TIP3    H134745   2.847   6.639   1.971  1.8153  1.6659  0.1860
 4418TIP3    H234746   2.863   6.510   2.048 -1.9988  1.7976  1.3620
 4419TIP3   OH234747   5.161   3.133  16.526 -0.1481  0.0560 -0.2535
 4419TIP3    H134748   5.214   3.176  16.593 -0.4280 -1.8547  1.2816
 4419TIP3    H234749   5.074   3.169  16.537  0.2660  1.4428 -1.1919
 4420TIP3   OH234750   2.873   6.816   2.276  0.0317  0.2253 -0.8451
 4420TIP3    H134751   2.911   6.904   2.272 -0.9954  0.8039  1.0064
 4420TIP3    H234752   2.815   6.811   2.199 -1.4524  1.9654  0.0769
 4421TIP3   OH234753   5.870   5.414   4.895 -0.3241  0.2831 -0.1837
 4421TIP3    H134754   5.809   5.367   4.952  0.1006 -1.2619 -0.9587
 4421TIP3    H234755   5.814   5.459   4.832 -0.7059  0.1239  0.0371
 4422TIP3   OH234756   1.612   3.674   3.824  0.5899 -0.2662 -0.2929
 4422TIP3    H134757   1.616   3.579   3.829 -1.0692 -0.3219  0.8222
 4422TIP3    H234758   1.525   3.697   3.858  1.0412  1.6616 -0.2782
 4423TIP3   OH234759   6.798   4.828  14.994  0.1402  0.1901  0.0717
 4423TIP3    H134760   6.819   4.887  14.923  0.8996 -0.8189 -0.5741
 4423TIP3    H234761   6.703   4.821  14.992  0.0388  1.4033  0.1924
 4424TIP3   OH234762   1.773   4.368  13.465 -0.1496  0.1679  0.0479
 4424TIP3    H134763   1.678   4.372  13.477 -0.0476 -0.8090  1.3860
 4424TIP3    H234764   1.804   4.456  13.487 -0.6986  0.3913 -0.0472
 4425TIP3   OH234765   2.773   1.472   0.485  0.4398  0.3701  0.3508
 4425TIP3    H134766   2.760   1.393   0.536  1.9154 -0.0617  0.1055
 4425TIP3    H234767   2.744   1.543   0.543  0.7447 -0.2158  1.2415
 4426TIP3   OH234768   2.339   2.763   2.400 -0.2572  0.3637  0.6509
 4426TIP3    H134769   2.275   2.827   2.371 -0.4663 -0.1534 -0.0520
 4426TIP3    H234770   2.326   2.756   2.494 -1.2941  0.1992  0.5040
 4427TIP3   OH234771   0.330   6.033  15.672  0.2538 -0.0678 -0.0148
 4427TIP3    H134772   0.274   5.958  15.694 -0.1846  0.5573  1.0932
 4427TIP3    H234773   0.271   6.108  15.671  0.9734  0.5283  0.6771
 4428TIP3   OH234774   3.778   0.224  11.318 -0.6066 -0.0745 -0.1018
 4428TIP3    H134775   3.860   0.269  11.298 -0.5845  0.2352  0.6689
 4428TIP3    H234776   3.743   0.199  11.232 -0.1041  0.4901 -0.4793
 4429TIP3   OH234777   4.307   6.681   1.211 -0.7460  0.2294  0.8434
 4429TIP3    H134778   4.381   6.723   1.253 -0.0886 -0.9126  0.8806
 4429TIP3    H234779   4.278   6.615   1.274 -0.6055 -0.5848  0.0808
 4430TIP3   OH234780   4.275   4.921   5.129 -0.5165  0.6136  0.3448
 4430TIP3    H134781   4.353   4.954   5.175 -0.1527 -0.3611  0.4497
 4430TIP3    H234782   4.248   4.844   5.179  0.5615 -1.1766 -1.6580
 4431TIP3   OH234783   6.019   0.021   0.974 -0.1863 -0.3827 -0.3383
 4431TIP3    H134784   6.017  -0.072   0.953 -1.4003 -0.8767  1.6986
 4431TIP3    H234785   6.071   0.027   1.054 -0.6655  0.5912 -0.0770
 4432TIP3   OH234786   3.094   6.520  16.579 -0.0114  0.4236 -0.3356
 4432TIP3    H134787   3.119   6.444  16.630 -0.3877  0.9018  0.5870
 4432TIP3    H234788   3.017   6.556  16.624 -0.3158  0.9007 -1.1953
 4433TIP3   OH234789   5.960   0.048   6.241  0.0142  0.1778  0.0469
 4433TIP3    H134790   5.898  -0.012   6.200 -1.1958  0.6262  1.1460
 4433TIP3    H234791   6.036  -0.006   6.263 -0.0438 -0.4218 -1.1613
 4434TIP3   OH234792   2.189   2.873   0.851 -0.0026 -0.5211 -0.0240
 4434TIP3    H134793   2.139   2.863   0.770 -1.3919  0.2403  0.7024
 4434TIP3    H234794   2.133   2.926   0.907  0.9971 -0.8977  1.3814
 4435TIP3   OH234795   0.768   1.303   1.998 -0.2253  0.6612  0.6482
 4435TIP3    H134796   0.738   1.309   1.907  2.8060 -3.3077 -0.9548
 4435TIP3    H234797   0.849   1.354   1.999  1.1900 -1.4193  0.1542
 4436TIP3   OH234798   6.677   4.835   6.605 -0.9389  0.1559 -0.3676
 4436TIP3    H134799   6.626   4.784   6.668  0.6156 -0.5819  0.3509
 4436TIP3    H234800   6.645   4.924   6.614 -3.1154 -0.4924 -1.0291
 4437TIP3   OH234801   2.894   6.022  15.173 -0.0367 -0.3413  0.1982
 4437TIP3    H134802   2.891   6.044  15.080  1.4389 -1.4602 -0.1391
 4437TIP3    H234803   2.955   6.086  15.210 -1.7776  1.1004  0.7434
 4438TIP3   OH234804   1.972   4.460  11.474  0.4889  0.2006 -0.1625
 4438TIP3    H134805   2.046   4.517  11.451 -0.4127  1.0104 -1.1928
 4438TIP3    H234806   1.898   4.498  11.426 -0.8496  0.1086  1.7294
 4439TIP3   OH234807   2.269   3.644  16.406 -0.0293  0.2100  0.0097
 4439TIP3    H134808   2.346   3.593  16.381 -1.1544 -1.5860  0.0505
 4439TIP3    H234809   2.278   3.725  16.357  1.5482 -0.2199 -0.4975
 4440TIP3   OH234810   6.740   2.365  16.273  0.0055  0.1630  0.1649
 4440TIP3    H134811   6.815   2.396  16.322  1.4657 -1.7363 -0.7189
 4440TIP3    H234812   6.679   2.331  16.339 -0.1270  1.7391  0.8849
 4441TIP3   OH234813   4.149   4.421   4.237  0.5021 -0.3092  0.5450
 4441TIP3    H134814   4.191   4.420   4.151  1.1821 -1.6200  0.8659
 4441TIP3    H234815   4.103   4.504   4.240  1.1690  0.1353 -0.7489
 4442TIP3   OH234816   0.801   1.855  14.902 -0.0124 -1.0439 -0.2907
 4442TIP3    H134817   0.739   1.923  14.927  0.2789 -0.7631 -0.3339
 4442TIP3    H234818   0.778   1.781  14.958 -0.3517 -0.9256 -0.2689
 4443TIP3   OH234819   4.677   2.646  16.006 -0.8628  0.3984 -0.8322
 4443TIP3    H134820   4.673   2.728  15.958 -1.7730 -0.1737 -1.7734
 4443TIP3    H234821   4.666   2.671  16.098 -1.4544  1.2937 -1.1350
 4444TIP3   OH234822   1.806   4.093   2.296  0.1656  0.0491 -0.3277
 4444TIP3    H134823   1.738   4.155   2.324 -0.6034 -1.0983  0.4046
 4444TIP3    H234824   1.884   4.121   2.344 -0.3197  0.0966  0.4500
 4445TIP3   OH234825   5.846   1.710  11.272  0.8015 -0.3640  0.0485
 4445TIP3    H134826   5.787   1.785  11.282  0.5247 -0.5826  0.0609
 4445TIP3    H234827   5.877   1.716  11.182 -1.1241 -1.6198 -0.7499
 4446TIP3   OH234828   3.835   5.004   5.392 -0.1811 -0.1448 -0.4987
 4446TIP3    H134829   3.890   5.082   5.396  0.6611 -0.7569  1.5926
 4446TIP3    H234830   3.797   5.005   5.304 -0.6138  2.8703 -0.3693
 4447TIP3   OH234831   1.940   6.791   1.724  0.3233 -0.0112 -0.0465
 4447TIP3    H134832   1.937   6.840   1.806  1.9171  2.2403 -1.2271
 4447TIP3    H234833   1.851   6.797   1.689 -0.7725 -2.2005  2.0506
 4448TIP3   OH234834   3.470   4.741   2.054 -0.2735  0.0500 -0.1593
 4448TIP3    H134835   3.414   4.676   2.012 -0.7569  0.1780  0.2826
 4448TIP3    H234836   3.434   4.825   2.026  0.5315  0.1396 -0.9728
 4449TIP3   OH234837   5.011   2.558  12.485  0.9080  0.3822 -0.0801
 4449TIP3    H134838   4.974   2.562  12.397 -0.5002 -1.3132  0.3785
 4449TIP3    H234839   4.966   2.628  12.533  0.0689 -0.0828 -0.1721
 4450TIP3   OH234840   3.081   0.095   5.054  0.0693  0.0094  0.2729
 4450TIP3    H134841   3.146   0.153   5.093 -1.4366  1.4580  0.7409
 4450TIP3    H234842   3.129   0.014   5.036  1.4102  0.0489  3.0526
 4451TIP3   OH234843   5.849   0.840  12.221 -0.4717 -0.2797 -0.4248
 4451TIP3    H134844   5.794   0.884  12.157  1.4657  1.2991 -1.1087
 4451TIP3    H234845   5.927   0.813  12.172  0.4279 -0.3208  0.9642
 4452TIP3   OH234846   1.075   3.154  12.050  0.2353 -0.0860  0.2030
 4452TIP3    H134847   1.091   3.230  12.105  1.6334  0.3242 -0.7323
 4452TIP3    H234848   0.980   3.142  12.053  0.2433 -0.0023  2.5674
 4453TIP3   OH234849   3.035   6.496  15.252 -0.5135 -0.0661  0.1618
 4453TIP3    H134850   3.096   6.487  15.179 -2.4151  0.6011 -1.6356
 4453TIP3    H234851   3.064   6.432  15.317  0.2200 -2.0176 -1.9591
 4454TIP3   OH234852   2.613   2.999   5.950 -0.1337 -0.9086 -0.0926
 4454TIP3    H134853   2.679   3.031   6.012 -1.9971  0.7874  1.1716
 4454TIP3    H234854   2.620   3.059   5.875  0.7096 -1.6581 -0.6364
 4455TIP3   OH234855   4.972   4.369  10.853 -0.5821  0.5544 -0.6463
 4455TIP3    H134856   4.944   4.328  10.934 -1.6600  0.5943 -0.9907
 4455TIP3    H234857   4.966   4.300  10.787  0.3861  0.4926 -0.6962
 4456TIP3   OH234858   4.698   0.079  13.096  0.1260 -0.3713  0.1676
 4456TIP3    H134859   4.733   0.010  13.040 -0.1255 -0.3306 -0.0375
 4456TIP3    H234860   4.752   0.155  13.078 -0.2933 -0.2066 -0.4170
 4457TIP3   OH234861   5.741   5.960  11.307  0.4662 -0.4374 -0.2339
 4457TIP3    H134862   5.655   5.916  11.308 -0.1280  0.6930  0.7900
 4457TIP3    H234863   5.721   6.052  11.321  1.7433  0.1014 -1.6884
 4458TIP3   OH234864   3.509   5.569  11.272  0.6335 -0.4669 -0.1479
 4458TIP3    H134865   3.549   5.649  11.306  1.7531 -1.0003 -0.1709
 4458TIP3    H234866   3.423   5.597  11.240  1.0435  0.7379 -0.2415
 4459TIP3   OH234867   1.561   6.639  15.474  0.4045  0.3868 -0.7865
 4459TIP3    H134868   1.578   6.718  15.526  1.5001 -0.0167 -0.4974
 4459TIP3    H234869   1.632   6.637  15.410  1.0774 -0.9689 -0.0461
 4460TIP3   OH234870   0.126   3.790   3.891 -0.4956 -0.0638  0.1760
 4460TIP3    H134871   0.102   3.877   3.860  1.7352  1.6137  2.7593
 4460TIP3    H234872   0.051   3.735   3.868 -1.3012  2.0758 -3.0187
 4461TIP3   OH234873   2.959   6.720   4.648 -0.4104  0.4776  0.0771
 4461TIP3    H134874   3.014   6.687   4.577 -0.1280  1.0276  0.0353
 4461TIP3    H234875   2.922   6.801   4.613 -0.7635  0.4262  0.3317
 4462TIP3   OH234876   0.470   4.334  16.036 -0.2712  0.0588 -0.1433
 4462TIP3    H134877   0.425   4.409  16.075 -1.8498 -1.3949  0.9862
 4462TIP3    H234878   0.549   4.323  16.090  0.2582  1.2007 -0.6559
 4463TIP3   OH234879   5.940   0.351   3.681 -0.1554 -0.1880  0.0477
 4463TIP3    H134880   5.939   0.445   3.696 -1.9178 -0.3146  0.9203
 4463TIP3    H234881   5.901   0.339   3.595  0.1179 -0.1307 -0.0860
 4464TIP3   OH234882   5.321   3.005  12.022 -0.3766 -0.5709  0.3708
 4464TIP3    H134883   5.353   3.049  11.943 -0.7901  0.2867  0.6710
 4464TIP3    H234884   5.227   2.995  12.007 -0.4943 -0.2109  0.8306
 4465TIP3   OH234885   2.418   6.181   0.863 -0.2180  0.1616 -0.4870
 4465TIP3    H134886   2.372   6.198   0.945 -0.1928 -0.7845 -0.2608
 4465TIP3    H234887   2.356   6.128   0.811  0.3815 -0.6245 -0.4129
 4466TIP3   OH234888   2.063   3.089  16.444 -0.1672 -0.5333 -0.6062
 4466TIP3    H134889   2.052   3.024  16.513  0.1081  1.1536  1.0931
 4466TIP3    H234890   2.157   3.087  16.424  0.0370  0.1409  0.2672
 4467TIP3   OH234891   2.820   0.445   1.376 -0.3118 -0.1770  0.3791
 4467TIP3    H134892   2.805   0.388   1.452 -1.1862  0.9503  1.0898
 4467TIP3    H234893   2.805   0.534   1.410  0.0059  0.4003 -0.9427
 4468TIP3   OH234894   3.751   0.080   3.357  0.2315 -0.2252 -0.2015
 4468TIP3    H134895   3.693   0.151   3.385 -0.6170 -0.9148 -0.1793
 4468TIP3    H234896   3.823   0.124   3.312 -0.6363  0.6118 -0.8086
 4469TIP3   OH234897   6.638   3.110   5.655  0.1359 -0.4763 -0.3459
 4469TIP3    H134898   6.546   3.116   5.629  0.1299  0.7084 -0.1235
 4469TIP3    H234899   6.686   3.136   5.577  0.1787  1.2486  0.2093
 4470TIP3   OH234900   2.682   1.935   1.773 -0.4687 -0.3269 -0.4942
 4470TIP3    H134901   2.738   1.962   1.846  1.1398  0.6330 -1.9949
 4470TIP3    H234902   2.606   1.894   1.815  1.4907 -2.0322  1.6642
 4471TIP3   OH234903   6.335   0.879  14.845  0.5165  0.1288  0.2139
 4471TIP3    H134904   6.263   0.831  14.805  1.1387  1.4737 -2.8179
 4471TIP3    H234905   6.410   0.821  14.839  0.6047  0.3178 -0.6807
 4472TIP3   OH234906   1.984   4.273  12.608 -0.0545  0.7918  0.1083
 4472TIP3    H134907   2.042   4.198  12.623 -0.5955  0.0506 -1.2712
 4472TIP3    H234908   1.899   4.245  12.643 -0.2711  0.7078 -0.4589
 4473TIP3   OH234909   0.053   3.746   4.185  0.1166  0.1125 -0.4781
 4473TIP3    H134910   0.080   3.793   4.264  0.3172  0.8433 -0.9615
 4473TIP3    H234911   0.043   3.815   4.119  2.1419 -0.6680 -1.6933
 4474TIP3   OH234912   0.290   2.431   2.158  0.0581 -0.0113  0.1789
 4474TIP3    H134913   0.332   2.363   2.105  0.7175  1.2612 -0.9997
 4474TIP3    H234914   0.200   2.401   2.170  0.4356 -1.2404 -0.0208
 4475TIP3   OH234915   4.528   2.540   5.490  0.2040 -0.6460  0.2065
 4475TIP3    H134916   4.510   2.513   5.581 -1.2592 -1.3267 -0.2485
 4475TIP3    H234917   4.456   2.599   5.469 -0.8470 -2.3281 -1.2444
 4476TIP3   OH234918   2.996   5.183  14.450 -0.6200  0.3766 -0.3465
 4476TIP3    H134919   3.021   5.235  14.374 -0.8797 -0.6657 -1.1551
 4476TIP3    H234920   2.973   5.097  14.415  1.6494 -0.9469  1.1121
 4477TIP3   OH234921   3.555   6.047   1.203  0.2466  0.2202  0.2807
 4477TIP3    H134922   3.514   5.965   1.230 -0.5209  0.3376 -0.4974
 4477TIP3    H234923   3.647   6.037   1.228 -0.0145 -0.5209  0.9802
 4478TIP3   OH234924   2.638   4.929  13.547 -0.0659 -0.0479  0.2159
 4478TIP3    H134925   2.690   5.001  13.511  0.7379 -1.3042 -1.2566
 4478TIP3    H234926   2.564   4.921  13.487  0.7320 -1.4877 -0.6186
 4479TIP3   OH234927   0.995   0.823  15.704  0.1230 -0.4843 -0.2781
 4479TIP3    H134928   0.938   0.798  15.776  1.0237 -0.2213  0.5438
 4479TIP3    H234929   0.992   0.748  15.644 -0.6119 -0.7164  0.0368
 4480TIP3   OH234930   2.444   2.572  15.474 -0.2893 -0.0245  0.0026
 4480TIP3    H134931   2.527   2.618  15.488 -0.5383  0.4933 -0.1855
 4480TIP3    H234932   2.441   2.557  15.379 -1.1329  1.3864 -0.2253
 4481TIP3   OH234933   6.771   3.340  15.948 -0.1469 -0.0940  0.3984
 4481TIP3    H134934   6.736   3.305  16.029  0.3586  0.4280  0.8476
 4481TIP3    H234935   6.779   3.434  15.963  2.7701 -0.3243  0.8558
 4482TIP3   OH234936   5.295   2.693   0.950 -0.3334 -0.6431 -0.3432
 4482TIP3    H134937   5.359   2.720   1.015 -0.7311  0.1817 -0.2814
 4482TIP3    H234938   5.290   2.766   0.889 -1.4488 -0.5485 -0.1648
 4483TIP3   OH234939   2.670   3.258   1.613  0.3335  0.3142 -0.0956
 4483TIP3    H134940   2.649   3.214   1.530  1.6964  0.2169 -0.4188
 4483TIP3    H234941   2.623   3.341   1.609 -1.7527 -0.7938  0.2350
 4484TIP3   OH234942   3.180   4.239  15.975 -0.0691 -0.3073 -0.3103
 4484TIP3    H134943   3.244   4.270  15.912 -0.8507 -1.2821 -1.6389
 4484TIP3    H234944   3.227   4.175  16.028  0.6295  0.6230  0.2218
 4485TIP3   OH234945   6.773   0.538  11.623 -0.2548 -0.1615 -0.2213
 4485TIP3    H134946   6.773   0.512  11.531 -0.9608  0.5845 -0.4450
 4485TIP3    H234947   6.739   0.462  11.669 -0.9436 -0.1548 -0.7034
 4486TIP3   OH234948   4.821   1.652   6.230 -0.0696 -0.4188  0.2151
 4486TIP3    H134949   4.869   1.690   6.304  1.3832 -0.8349 -0.4803
 4486TIP3    H234950   4.730   1.675   6.247  0.1091 -1.1055  2.5007
 4487TIP3   OH234951   4.046   2.619   0.439 -0.0768 -0.2382  0.1854
 4487TIP3    H134952   4.100   2.698   0.444 -1.0673  0.4655 -0.0297
 4487TIP3    H234953   3.960   2.647   0.470 -0.1645 -1.5128  1.2033
 4488TIP3   OH234954   3.144   0.276   1.135  0.6342 -0.0012 -0.0506
 4488TIP3    H134955   3.157   0.198   1.081  1.3726  0.1505 -0.0998
 4488TIP3    H234956   3.065   0.316   1.099  1.6646  0.6497 -1.7326
 4489TIP3   OH234957   2.110   4.410   2.732 -0.9962 -0.1507  0.4773
 4489TIP3    H134958   2.205   4.408   2.726 -0.7840 -0.3775  2.9708
 4489TIP3    H234959   2.088   4.501   2.750 -1.2212 -0.1588  0.2482
 4490TIP3   OH234960   1.818   1.457   0.927  0.2018  0.7711  0.1513
 4490TIP3    H134961   1.883   1.450   0.997 -0.7170 -0.2333  0.9530
 4490TIP3    H234962   1.869   1.464   0.847  1.5730 -4.6321  0.1576
 4491TIP3   OH234963   4.212   1.290  16.233  0.0112  0.1328  0.4760
 4491TIP3    H134964   4.201   1.195  16.238 -2.9044  0.1551 -2.3009
 4491TIP3    H234965   4.168   1.324  16.312  0.8002 -0.7780  1.3261
 4492TIP3   OH234966   1.699   6.792  16.402  0.3816 -0.6418 -0.1107
 4492TIP3    H134967   1.667   6.765  16.316  2.8495 -0.4197 -1.1947
 4492TIP3    H234968   1.754   6.719  16.431 -0.0813 -0.5260  1.1143
 4493TIP3   OH234969   0.891   4.686   0.881 -0.6485 -0.5090 -0.6498
 4493TIP3    H134970   0.802   4.658   0.859 -1.7488  1.3040  1.2308
 4493TIP3    H234971   0.919   4.739   0.806 -1.8248  0.2708 -0.5569
 4494TIP3   OH234972   0.140   5.612   2.949  0.4696  0.1429 -0.0610
 4494TIP3    H134973   0.096   5.633   2.867  0.1563  1.1410  0.3480
 4494TIP3    H234974   0.212   5.674   2.954  1.4534 -0.9448 -0.3299
 4495TIP3   OH234975   4.683   0.744  14.134 -0.7616  0.4534 -0.2184
 4495TIP3    H134976   4.648   0.803  14.200 -0.6125 -1.1627  1.3878
 4495TIP3    H234977   4.738   0.799  14.079 -1.0770  1.9042  0.8637
 4496TIP3   OH234978   2.965   3.738   2.121  0.4684 -0.2078  0.0402
 4496TIP3    H134979   2.964   3.784   2.205  1.5022  0.8984 -0.5183
 4496TIP3    H234980   3.027   3.667   2.133  1.1104  0.3402  0.0383
 4497TIP3   OH234981   0.071   0.841   4.993 -0.9292 -0.1352 -0.1410
 4497TIP3    H134982   0.135   0.842   5.064 -1.6511 -2.2511  0.6396
 4497TIP3    H234983   0.001   0.898   5.023 -0.8070 -0.2890  0.4570
 4498TIP3   OH234984   6.032   0.864   1.640  0.1060  0.2279 -0.1573
 4498TIP3    H134985   6.108   0.918   1.617  1.2339 -0.9221  0.6911
 4498TIP3    H234986   6.021   0.805   1.566 -0.2952  0.7311 -0.5050
 4499TIP3   OH234987   1.963   3.066  12.199  0.0540  0.2209  0.1614
 4499TIP3    H134988   2.056   3.050  12.187 -0.2886 -3.7377  1.4042
 4499TIP3    H234989   1.957   3.105  12.287  0.5230  0.9728 -0.1285
 4500TIP3   OH234990   0.117   4.446   0.990  0.1839  0.1814 -0.3482
 4500TIP3    H134991   0.169   4.369   0.966  0.7631  0.7406 -0.9559
 4500TIP3    H234992   0.128   4.506   0.915 -0.2623  0.8424  0.1067
 4501TIP3   OH234993   6.631   5.745   5.846 -0.1247 -0.7762 -0.0991
 4501TIP3    H134994   6.633   5.771   5.754 -1.1811 -2.4090 -0.6214
 4501TIP3    H234995   6.717   5.708   5.862  1.0261  1.8777  0.3633
 4502TIP3   OH234996   3.621   5.783   4.492  0.1201  0.0398  0.0983
 4502TIP3    H134997   3.601   5.846   4.561 -0.9338  2.3255 -2.1231
 4502TIP3    H234998   3.711   5.804   4.466 -0.3258  0.8970 -0.8305
 4503TIP3   OH234999   4.783   1.132   5.473 -0.5585 -0.0244  0.1096
 4503TIP3    H135000   4.689   1.147   5.464 -0.7100  0.4358  2.0149
 4503TIP3    H235001   4.807   1.178   5.553  1.0973 -0.9775  0.2091
 4504TIP3   OH235002   1.756   5.495   4.930  0.0086 -0.2408 -0.4147
 4504TIP3    H135003   1.828   5.466   4.986  0.0214 -0.3900 -0.5112
 4504TIP3    H235004   1.713   5.564   4.982  0.7146  0.4278 -0.6914
 4505TIP3   OH235005   0.585   3.150   1.416  0.2121  0.2983  0.6319
 4505TIP3    H135006   0.598   3.071   1.468  1.4505 -0.3370 -0.5825
 4505TIP3    H235007   0.490   3.166   1.420  0.1817 -0.1009  2.4812
 4506TIP3   OH235008   4.920   6.164   3.309 -0.0710 -0.0403  0.0423
 4506TIP3    H135009   5.015   6.169   3.312 -0.1216  1.3291  0.4181
 4506TIP3    H235010   4.891   6.238   3.362 -1.3580 -1.3307  1.2034
 4507TIP3   OH235011   6.086   2.736  12.679  0.6677 -0.8091  0.3501
 4507TIP3    H135012   6.021   2.675  12.714 -1.3475  0.7460 -0.4744
 4507TIP3    H235013   6.144   2.755  12.754 -0.9620 -0.8343  1.6778
 4508TIP3   OH235014   0.120   1.235  13.640 -0.1164  0.3991  0.3538
 4508TIP3    H135015   0.148   1.178  13.711  1.1149 -1.1257 -1.2681
 4508TIP3    H235016   0.027   1.215  13.628 -0.1808  0.2133  1.0955
 4509TIP3   OH235017   4.033   4.370  17.097 -0.1114  0.9657  0.1180
 4509TIP3    H135018   4.097   4.321  17.149  0.5323  2.5446  0.8900
 4509TIP3    H235019   3.963   4.307  17.081  0.9106 -0.3642  0.5835
 4510TIP3   OH235020   6.063   2.152  16.034 -0.0009 -0.3341  0.3904
 4510TIP3    H135021   6.142   2.102  16.012  1.4729  1.7454  0.7313
 4510TIP3    H235022   6.074   2.236  15.989 -0.5010  1.1800  2.9218
 4511TIP3   OH235023   5.267   2.942   1.403 -0.3080 -0.1632  0.4052
 4511TIP3    H135024   5.302   2.917   1.488 -0.2926 -1.1491  0.1128
 4511TIP3    H235025   5.270   2.862   1.350  2.4097  1.0468 -1.4927
 4512TIP3   OH235026   6.582   1.348  16.169  0.6287  0.2583 -0.0628
 4512TIP3    H135027   6.489   1.365  16.186  0.2434 -1.6724 -0.0863
 4512TIP3    H235028   6.628   1.403  16.233 -0.5981 -0.5300  1.5830
 4513TIP3   OH235029   0.344   2.167  15.367  0.4695 -0.1769 -0.7581
 4513TIP3    H135030   0.301   2.119  15.439  2.5729 -1.1181 -0.0575
 4513TIP3    H235031   0.397   2.102  15.323 -1.6028  0.1220 -3.9903
 4514TIP3   OH235032   4.160   2.176   2.123  0.7024  0.0556 -0.0700
 4514TIP3    H135033   4.184   2.108   2.187 -0.7973 -0.9613 -0.5366
 4514TIP3    H235034   4.242   2.196   2.078  0.9199 -2.7558 -1.1340
 4515TIP3   OH235035   4.148   4.913   0.921  0.4146  1.0572  0.8051
 4515TIP3    H135036   4.112   4.883   1.004  0.1677  2.9973  1.4385
 4515TIP3    H235037   4.238   4.882   0.921  0.0931  0.0779  1.2640
 4516TIP3   OH235038   3.570   1.146   0.378 -0.4881 -0.0344  0.0105
 4516TIP3    H135039   3.656   1.117   0.348 -0.4713  1.1926 -1.2446
 4516TIP3    H235040   3.582   1.162   0.472  0.7737  0.4510 -0.2067
 4517TIP3   OH235041   5.022   0.735   5.578 -0.7823 -0.1901  0.2973
 4517TIP3    H135042   4.933   0.731   5.612 -1.8565  0.2200 -2.2520
 4517TIP3    H235043   5.038   0.828   5.563  0.0914 -0.2618  0.7397
 4518TIP3   OH235044   2.674   4.395  13.053 -0.3653 -0.5567 -0.3356
 4518TIP3    H135045   2.745   4.333  13.070 -0.8334 -0.9606  0.1830
 4518TIP3    H235046   2.677   4.410  12.959  0.6962 -0.2111 -0.2566
 4519TIP3   OH235047   2.543   0.870  15.885 -0.1463  1.0686  0.2054
 4519TIP3    H135048   2.544   0.859  15.980  0.9814 -0.2502  0.0838
 4519TIP3    H235049   2.610   0.809  15.853 -1.1351  0.7967 -1.5094
 4520TIP3   OH235050   2.754   3.300   5.347  0.3211  0.2664 -0.0830
 4520TIP3    H135051   2.781   3.389   5.370  2.2665 -0.7258  1.7870
 4520TIP3    H235052   2.667   3.291   5.385 -0.2235  1.6004 -0.9588
 4521TIP3   OH235053   6.814   2.295  17.145 -0.4296  0.4060 -0.5681
 4521TIP3    H135054   6.836   2.247  17.065 -0.3301 -1.0141  0.2753
 4521TIP3    H235055   6.719   2.300  17.144 -0.4218  0.5433 -0.8516
 4522TIP3   OH235056   6.093   3.294  13.398  1.3979 -0.1787 -0.7250
 4522TIP3    H135057   6.001   3.313  13.418  1.9548  2.9405 -0.6757
 4522TIP3    H235058   6.090   3.241  13.318 -0.4408 -0.4000 -0.5453
 4523TIP3   OH235059   6.556   3.585   1.039 -0.1259 -0.4586  0.0378
 4523TIP3    H135060   6.595   3.556   0.957  0.0498 -0.3669  0.0880
 4523TIP3    H235061   6.592   3.526   1.105 -0.9877 -1.1231 -0.0800
 4524TIP3   OH235062   1.747   1.187   1.208  0.4008  0.0503 -0.4111
 4524TIP3    H135063   1.817   1.207   1.146 -0.0241  2.5610 -0.1857
 4524TIP3    H235064   1.666   1.216   1.164 -0.2972 -1.1781  0.0216
 4525TIP3   OH235065   3.995   5.424   2.331  0.1064  0.3853  0.4006
 4525TIP3    H135066   4.082   5.383   2.326 -0.0900 -0.0367  0.4014
 4525TIP3    H235067   3.990   5.458   2.421  0.4812  0.8917  0.2368
 4526TIP3   OH235068   6.505   1.841   0.703 -0.1155 -0.3223 -0.2603
 4526TIP3    H135069   6.445   1.814   0.633  0.2524 -0.7160 -0.4238
 4526TIP3    H235070   6.470   1.799   0.782  0.7093 -1.6677 -0.5895
 4527TIP3   OH235071   6.010   0.360   0.873 -0.2532  0.1897  0.5034
 4527TIP3    H135072   6.037   0.398   0.957  2.1157  0.6499 -0.3808
 4527TIP3    H235073   5.946   0.292   0.896  0.7083 -0.0408  2.7259
 4528TIP3   OH235074   2.685   6.475  16.796 -0.0332  0.0541  0.5041
 4528TIP3    H135075   2.732   6.405  16.841 -0.0003 -0.6019 -0.5184
 4528TIP3    H235076   2.655   6.435  16.714  0.1597  1.2871 -0.1921
 4529TIP3   OH235077   2.912   5.995  14.124 -0.2831 -0.2245  0.3124
 4529TIP3    H135078   2.851   5.925  14.101  0.3012 -0.2932 -1.1674
 4529TIP3    H235079   2.930   5.982  14.217 -2.9417  0.1587  0.9722
 4530TIP3   OH235080   2.362   5.549   4.800 -0.4681 -0.2140 -0.1165
 4530TIP3    H135081   2.284   5.546   4.855  0.2069  0.2303  0.9099
 4530TIP3    H235082   2.427   5.596   4.853  0.4912 -0.5536 -0.9440
 4531TIP3   OH235083   6.280   1.248  11.708  0.4638 -0.8875 -0.1887
 4531TIP3    H135084   6.190   1.256  11.675  0.0688 -0.2189  0.9906
 4531TIP3    H235085   6.285   1.157  11.740  0.3484 -1.0595 -0.6547
 4532TIP3   OH235086   5.281   2.081  14.531  0.0335  0.0605 -0.3598
 4532TIP3    H135087   5.218   2.010  14.538 -1.4056  1.1294 -1.7087
 4532TIP3    H235088   5.280   2.105  14.438 -0.6068  2.7226  0.2354
 4533TIP3   OH235089   3.205   5.564  14.160  0.1566  0.4608 -0.2956
 4533TIP3    H135090   3.190   5.612  14.241  0.5273 -2.1158  1.3815
 4533TIP3    H235091   3.300   5.564  14.149  0.1927 -0.2850 -0.0179
 4534TIP3   OH235092   2.198   6.299   4.264  0.6874  0.3151 -0.4736
 4534TIP3    H135093   2.136   6.245   4.312 -1.2367  1.0259 -2.0281
 4534TIP3    H235094   2.244   6.237   4.207  1.1803 -0.1572  0.4104
 4535TIP3   OH235095   4.112   3.591  16.504  0.4794 -0.2342  0.6876
 4535TIP3    H135096   4.104   3.686  16.497  1.2392 -0.2312 -0.3916
 4535TIP3    H235097   4.177   3.578  16.573  0.3426  0.0278  0.8695
 4536TIP3   OH235098   5.727   4.239  16.315 -0.7078  0.1411  0.1538
 4536TIP3    H135099   5.779   4.226  16.394  2.0079  0.0669 -1.5392
 4536TIP3    H235100   5.671   4.162  16.310 -2.0779  0.8417  2.7210
 4537TIP3   OH235101   1.703   0.559  14.489  0.1930 -0.4542  0.0290
 4537TIP3    H135102   1.782   0.509  14.508  0.2465 -0.1416  0.6639
 4537TIP3    H235103   1.631   0.500  14.512  0.2389 -0.7507 -0.5823
 4538TIP3   OH235104   4.837   3.835  11.756 -0.5249 -0.3257 -0.0353
 4538TIP3    H135105   4.913   3.850  11.700 -0.1544 -0.2843  0.4778
 4538TIP3    H235106   4.827   3.739  11.758  1.9396 -0.6400  3.0678
 4539TIP3   OH235107   1.397   4.843  11.273  0.3718  0.8755 -0.3376
 4539TIP3    H135108   1.378   4.773  11.336 -1.3942 -0.3290 -2.1128
 4539TIP3    H235109   1.334   4.912  11.295 -1.0757 -0.0400 -1.4939
 4540TIP3   OH235110   4.016   5.151   4.071  0.2655  0.5030  0.3046
 4540TIP3    H135111   3.988   5.194   3.990 -0.4902  0.3826  0.4921
 4540TIP3    H235112   3.962   5.072   4.076  1.1032 -0.0810  0.3558
 4541TIP3   OH235113   4.008   4.430  16.795 -0.2240  0.7595 -0.5388
 4541TIP3    H135114   3.966   4.348  16.769 -0.2666  0.3188  0.8421
 4541TIP3    H235115   4.101   4.416  16.777 -0.2950  0.6005 -0.7793
 4542TIP3   OH235116   1.626   5.219  10.895 -0.1176  0.2103 -0.5827
 4542TIP3    H135117   1.663   5.132  10.914  1.9343  1.0015 -0.7724
 4542TIP3    H235118   1.608   5.217  10.801  2.1271  0.7302 -1.0703
 4543TIP3   OH235119   4.475   6.768   1.875  0.1309  0.1100  0.0714
 4543TIP3    H135120   4.467   6.753   1.781  1.7698 -0.3835 -0.0149
 4543TIP3    H235121   4.438   6.689   1.915 -0.1905  0.1400 -0.1589
 4544TIP3   OH235122   6.514   1.607   3.880 -0.6625 -0.4773 -0.1949
 4544TIP3    H135123   6.586   1.583   3.938 -1.3080 -3.0615 -0.3788
 4544TIP3    H235124   6.556   1.622   3.795  0.0695  1.7220  0.4864
 4545TIP3   OH235125   0.822   6.734   2.759 -0.6465 -0.1808  0.1499
 4545TIP3    H135126   0.850   6.734   2.851 -2.8135 -1.1244  0.8720
 4545TIP3    H235127   0.811   6.827   2.738 -0.2745  0.0384  0.8798
 4546TIP3   OH235128   0.914   4.676   3.245  0.2031  0.2678  0.0637
 4546TIP3    H135129   0.933   4.726   3.324  0.7187  0.5801 -0.2584
 4546TIP3    H235130   0.990   4.618   3.234  1.0674  1.5857 -1.2799
 4547TIP3   OH235131   2.854   1.775   4.155  0.4255  0.1581  0.4878
 4547TIP3    H135132   2.845   1.804   4.064  2.0858 -1.3153 -0.2200
 4547TIP3    H235133   2.887   1.852   4.201 -0.2047  0.8641 -0.2000
 4548TIP3   OH235134   5.914   5.864  11.696  0.6567  0.2114  0.0080
 4548TIP3    H135135   5.948   5.858  11.607 -2.5353  3.7123 -1.7526
 4548TIP3    H235136   5.876   5.778  11.714 -0.2500 -0.0715 -2.8430
 4549TIP3   OH235137   4.096   6.361  16.780  0.0072  0.3061 -0.2434
 4549TIP3    H135138   4.065   6.435  16.728  0.2067  1.1211  0.7525
 4549TIP3    H235139   4.191   6.375  16.788  0.1035 -0.2633 -0.3736
 4550TIP3   OH235140   1.298   0.478  16.786  0.5166  0.1373 -0.1792
 4550TIP3    H135141   1.204   0.463  16.797  0.3490 -1.4109 -2.7708
 4550TIP3    H235142   1.339   0.402  16.827  0.6507  0.5832  0.5394
 4551TIP3   OH235143   6.364   3.251  16.824  0.2610  0.1404 -0.5099
 4551TIP3    H135144   6.412   3.170  16.839 -0.7948 -0.4142 -0.0041
 4551TIP3    H235145   6.397   3.284  16.741  0.3661 -1.0669 -0.9622
 4552TIP3   OH235146   1.586   5.397   0.147 -0.7448 -0.1837 -0.1739
 4552TIP3    H135147   1.595   5.391   0.051 -0.0806  1.8486 -0.2802
 4552TIP3    H235148   1.539   5.479   0.161  2.6502  1.6734  1.3259
 4553TIP3   OH235149   6.095   0.979   1.952  0.5736  0.5597  0.2713
 4553TIP3    H135150   6.120   1.050   1.893 -1.5307  1.8521  0.8255
 4553TIP3    H235151   6.159   0.983   2.024  0.3905  2.0191  0.3759
 4554TIP3   OH235152   0.398   4.952   4.512  0.4536  0.6799  0.4728
 4554TIP3    H135153   0.451   4.982   4.438  0.8819 -0.2183  0.4036
 4554TIP3    H235154   0.348   4.879   4.477 -0.7453  1.4298  0.5783
 4555TIP3   OH235155   2.448   0.657  11.107 -0.0463 -0.0587 -0.2794
 4555TIP3    H135156   2.355   0.661  11.128  0.0163  0.5916 -0.1041
 4555TIP3    H235157   2.460   0.571  11.066 -0.3374 -0.9906  1.4942
 4556TIP3   OH235158   0.052   0.926   0.885 -0.4057  0.2012  0.3757
 4556TIP3    H135159   0.021   0.982   0.814 -1.1503 -0.2388  0.3487
 4556TIP3    H235160   0.021   0.968   0.964 -2.5572 -1.0885  0.2901
 4557TIP3   OH235161   1.372   0.680   2.653 -0.5622 -0.1749  0.4697
 4557TIP3    H135162   1.411   0.715   2.733  0.6931  0.1264 -0.2505
 4557TIP3    H235163   1.430   0.710   2.582 -3.9397  3.3965 -1.1531
 4558TIP3   OH235164   3.518   5.945  15.024 -0.5204  0.2437  0.0038
 4558TIP3    H135165   3.552   5.934  15.113 -0.3505  0.3058 -0.0525
 4558TIP3    H235166   3.557   5.872  14.975 -0.5734  0.2381 -0.0296
 4559TIP3   OH235167   5.779   6.119   4.843 -0.4438  0.2964  0.3268
 4559TIP3    H135168   5.830   6.200   4.852 -0.0120  0.0325  0.3154
 4559TIP3    H235169   5.839   6.058   4.800 -0.4663 -0.2948  1.1038
 4560TIP3   OH235170   6.589   6.190  12.041  0.1389  0.2064  0.4529
 4560TIP3    H135171   6.631   6.260  11.992  1.5192  0.3137  1.7212
 4560TIP3    H235172   6.657   6.156  12.099 -1.2954 -0.1669  2.0235
 4561TIP3   OH235173   5.675   1.654  14.516  0.0903 -0.0029 -0.0402
 4561TIP3    H135174   5.608   1.722  14.524  1.8729  1.7908  0.4344
 4561TIP3    H235175   5.665   1.600  14.595 -0.8127  0.2061 -0.0084
 4562TIP3   OH235176   0.257   5.078  11.923 -0.1215  0.3710 -0.4442
 4562TIP3    H135177   0.241   5.166  11.890 -1.3889  0.0482 -0.7459
 4562TIP3    H235178   0.303   5.092  12.006 -0.6229  1.3299 -0.3082
 4563TIP3   OH235179   4.978   3.277   5.997 -0.3630 -0.0149  0.0120
 4563TIP3    H135180   4.882   3.281   5.998 -0.3256  1.5804 -0.1675
 4563TIP3    H235181   4.998   3.184   5.984 -1.8858 -0.2366 -1.0157
 4564TIP3   OH235182   3.169   6.040  15.112 -0.0859 -0.0250 -0.6328
 4564TIP3    H135183   3.113   6.077  15.044 -0.5524  2.9270  1.1627
 4564TIP3    H235184   3.151   5.946  15.110 -2.0142  0.3083 -2.8067
 4565TIP3   OH235185   6.038   5.787   0.962  0.4478 -0.3373  0.3685
 4565TIP3    H135186   6.006   5.698   0.949  2.2178 -1.1972  1.5028
 4565TIP3    H235187   6.121   5.790   0.914  0.2796  0.8193  0.1088
 4566TIP3   OH235188   0.994   2.737   4.448 -0.5047  0.2212 -0.6215
 4566TIP3    H135189   1.047   2.691   4.384  0.6359 -0.8713  1.0130
 4566TIP3    H235190   1.057   2.764   4.516 -1.9149 -0.5005  1.0564
 4567TIP3   OH235191   5.631   1.054  13.486 -0.6843 -0.3531  0.5559
 4567TIP3    H135192   5.610   1.117  13.555 -0.2844 -1.5160  1.7784
 4567TIP3    H235193   5.727   1.056  13.480 -0.6197 -1.3217  1.0903
 4568TIP3   OH235194   6.468   2.139  16.824 -0.3080  0.1355 -0.0252
 4568TIP3    H135195   6.515   2.173  16.748  1.0946 -0.0227  0.7264
 4568TIP3    H235196   6.514   2.057  16.846 -1.2230 -0.2592  0.4770
 4569TIP3   OH235197   0.209   5.688   4.900 -0.2521 -0.6131  0.6301
 4569TIP3    H135198   0.187   5.714   4.989  0.3538  2.5982 -0.0281
 4569TIP3    H235199   0.297   5.724   4.885  0.3560 -2.4871 -0.7723
 4570TIP3   OH235200   1.247   5.874   4.835 -0.0081 -0.3685 -0.1510
 4570TIP3    H135201   1.154   5.894   4.842  0.1640  0.5057 -0.2651
 4570TIP3    H235202   1.264   5.815   4.908 -0.3045  0.8244  0.9258
 4571TIP3   OH235203   2.346   4.469  12.531  0.5407 -0.2443 -0.0449
 4571TIP3    H135204   2.326   4.384  12.569  1.1976 -0.5020 -0.2559
 4571TIP3    H235205   2.265   4.519  12.540  0.6513 -0.3278  1.5854
 4572TIP3   OH235206   6.440   0.543  15.610  0.4982 -0.2298  0.4040
 4572TIP3    H135207   6.411   0.634  15.615  1.2018  0.0666 -0.6527
 4572TIP3    H235208   6.389   0.498  15.677 -2.1771  0.3242 -1.1067
 4573TIP3   OH235209   2.443   4.081   3.407 -0.7893 -0.3377 -0.5458
 4573TIP3    H135210   2.483   4.024   3.342  1.4831 -0.4847  0.8627
 4573TIP3    H235211   2.459   4.170   3.374  1.0910 -0.3845  0.1540
 4574TIP3   OH235212   3.096   1.209   2.664 -0.1391 -0.5768  0.2096
 4574TIP3    H135213   3.096   1.159   2.583  5.2000  0.4617 -0.7638
 4574TIP3    H235214   3.041   1.285   2.644 -2.0025 -2.1432 -0.9818
 4575TIP3   OH235215   2.920   2.170   0.489  0.5385 -0.4287 -0.3347
 4575TIP3    H135216   2.856   2.100   0.503 -0.4969 -0.0376 -2.7296
 4575TIP3    H235217   2.922   2.217   0.573 -1.7138 -0.9405  0.0709
 4576TIP3   OH235218   2.553   3.678  14.456  0.3141  0.3982 -0.0288
 4576TIP3    H135219   2.583   3.688  14.365  0.5589  0.1909  0.0294
 4576TIP3    H235220   2.630   3.696  14.509 -0.0592  1.4795  0.1717
 4577TIP3   OH235221   0.825   2.220   4.165 -0.1005  0.2562  0.0072
 4577TIP3    H135222   0.759   2.185   4.105 -0.5984  0.6716  0.2946
 4577TIP3    H235223   0.851   2.303   4.127 -0.9197  0.8486  0.6918
 4578TIP3   OH235224   6.110   1.850  12.319  0.2678  0.1465 -0.0266
 4578TIP3    H135225   6.163   1.844  12.240  0.5435  2.1558 -0.0411
 4578TIP3    H235226   6.147   1.783  12.377 -0.5611 -2.0486 -1.8777
 4579TIP3   OH235227   3.720   0.106   3.683 -0.1822 -0.2009  0.3699
 4579TIP3    H135228   3.760   0.020   3.670 -1.9255 -0.8812 -0.8687
 4579TIP3    H235229   3.685   0.103   3.772  1.0790 -0.1648  0.8937
 4580TIP3   OH235230   0.398   1.404   4.858  0.7561  0.3518 -0.2112
 4580TIP3    H135231   0.457   1.362   4.796  0.0917 -1.5205  0.3654
 4580TIP3    H235232   0.310   1.377   4.831  0.3095  1.2223  0.3088
 4581TIP3   OH235233   3.959   5.614  16.361  0.1740  0.3288  0.4508
 4581TIP3    H135234   4.014   5.633  16.285 -0.7343  1.1807 -0.0099
 4581TIP3    H235235   3.984   5.679  16.427 -0.8818  1.2959 -0.0787
 4582TIP3   OH235236   1.291   2.539  13.434 -0.0901 -0.1597  0.2158
 4582TIP3    H135237   1.299   2.634  13.431  2.2399 -0.3253 -1.1721
 4582TIP3    H235238   1.299   2.517  13.527 -0.0176  0.9410  0.4807
 4583TIP3   OH235239   2.510   0.935  10.799  0.0529 -0.7849  0.3766
 4583TIP3    H135240   2.572   0.896  10.738  0.2235 -0.2950  0.2309
 4583TIP3    H235241   2.428   0.887  10.784 -0.5122  0.6760 -1.7526
 4584TIP3   OH235242   3.412   4.424   5.676  0.2829 -0.4919  0.3066
 4584TIP3    H135243   3.330   4.450   5.718  0.4755 -1.4942  1.3381
 4584TIP3    H235244   3.385   4.389   5.591 -0.3783 -1.0088  0.7284
 4585TIP3   OH235245   6.076   2.722  11.271  0.1445 -0.2758  0.0159
 4585TIP3    H135246   6.065   2.780  11.195 -0.4791 -1.6066 -0.9419
 4585TIP3    H235247   6.161   2.681  11.257 -0.8077 -1.9921 -1.0430
 4586TIP3   OH235248   4.059   6.513  16.110  0.0248 -0.0860  0.3170
 4586TIP3    H135249   4.035   6.601  16.139  0.9778 -0.2761  1.7954
 4586TIP3    H235250   4.153   6.508  16.126  0.0287 -1.2868 -0.0025
 4587TIP3   OH235251   2.940   4.911   4.896 -0.3090  0.1310 -0.1427
 4587TIP3    H135252   2.928   4.999   4.861 -0.9565 -0.3294 -1.1283
 4587TIP3    H235253   2.897   4.913   4.981  1.1866  1.2391  0.6173
 4588TIP3   OH235254   2.848   0.813  11.752  1.1203  0.2012 -0.3846
 4588TIP3    H135255   2.764   0.825  11.708  1.1602  3.2357  0.1603
 4588TIP3    H235256   2.833   0.740  11.811 -1.3477  0.9814  0.0921
 4589TIP3   OH235257   5.664   5.678   3.381  0.1179  0.3909 -0.7703
 4589TIP3    H135258   5.700   5.765   3.366 -1.0068  1.1889  0.8248
 4589TIP3    H235259   5.569   5.690   3.379 -0.1176 -0.1488  2.2664
 4590TIP3   OH235260   4.212   1.629   4.926 -0.2669  0.0996  0.1332
 4590TIP3    H135261   4.127   1.643   4.968  0.1442  1.0006  0.6942
 4590TIP3    H235262   4.257   1.568   4.985 -0.4545 -0.2375 -0.0708
 4591TIP3   OH235263   4.702   3.640  11.334  0.0294 -0.6540 -0.5470
 4591TIP3    H135264   4.656   3.560  11.310 -0.6515  0.0486 -1.6912
 4591TIP3    H235265   4.634   3.698  11.369  0.2031  0.0071 -1.2658
 4592TIP3   OH235266   4.884   2.626   3.819 -0.0920  0.4239 -0.2351
 4592TIP3    H135267   4.962   2.605   3.870  0.9866  0.7894 -1.6520
 4592TIP3    H235268   4.844   2.541   3.799  0.1376  0.2097  0.2091
 4593TIP3   OH235269   4.521   2.960   4.351  0.0528 -0.5915  0.2657
 4593TIP3    H135270   4.474   2.914   4.282 -4.1429  0.2574  2.2749
 4593TIP3    H235271   4.542   2.892   4.415  1.0917 -0.8482 -0.3102
 4594TIP3   OH235272   1.348   1.309   1.863 -0.4473 -0.5864 -0.3978
 4594TIP3    H135273   1.355   1.400   1.892 -0.1713 -0.4699 -0.8372
 4594TIP3    H235274   1.437   1.282   1.843 -0.7201 -0.3657 -2.0542
 4595TIP3   OH235275   6.194   6.814  12.882  0.8205 -0.0834  0.2383
 4595TIP3    H135276   6.178   6.905  12.907  0.4018 -0.3802  1.1331
 4595TIP3    H235277   6.288   6.801  12.895  0.7077 -0.0623  1.1541
 4596TIP3   OH235278   3.740   5.955   0.484 -1.1484 -0.1648 -0.0161
 4596TIP3    H135279   3.664   6.003   0.517 -1.2752  0.1455 -0.7306
 4596TIP3    H235280   3.789   6.020   0.434 -0.4012 -0.3618  0.4525
 4597TIP3   OH235281   3.469   6.198   2.674  0.8710 -0.0959  0.3498
 4597TIP3    H135282   3.538   6.256   2.705 -0.1441  1.0425  0.5200
 4597TIP3    H235283   3.512   6.112   2.667  2.4598  0.6998 -0.1719
 4598TIP3   OH235284   4.495   5.035  15.026  0.3749 -0.3671 -0.0385
 4598TIP3    H135285   4.563   5.102  15.026 -0.2576  0.3735 -2.7733
 4598TIP3    H235286   4.542   4.953  15.045  2.2218 -0.0066 -2.6064
 4599TIP3   OH235287   0.567   4.221  13.653 -0.5788  0.8495  0.1239
 4599TIP3    H135288   0.620   4.277  13.711 -1.4054  1.8092 -0.0165
 4599TIP3    H235289   0.616   4.218  13.571  1.0344 -1.2014  1.0483
 4600TIP3   OH235290   0.226   4.308   2.719 -0.1777  0.2404  0.1095
 4600TIP3    H135291   0.274   4.265   2.648  1.0133  0.9801  0.4473
 4600TIP3    H235292   0.184   4.236   2.766  0.2310 -0.3818 -0.4637
 4601TIP3   OH235293   4.110   5.418  12.202  0.5495 -0.2332 -0.0061
 4601TIP3    H135294   4.078   5.469  12.128 -0.0195 -0.0949  0.3263
 4601TIP3    H235295   4.170   5.354  12.163  1.3741  0.7488 -0.4187
 4602TIP3   OH235296   6.318   4.256   0.698 -0.6405  0.6273 -0.3495
 4602TIP3    H135297   6.244   4.277   0.640 -0.1550  0.5221 -1.0126
 4602TIP3    H235298   6.361   4.340   0.714 -0.7095  0.6394 -0.2223
 4603TIP3   OH235299   3.288   6.641   4.272 -0.1147  0.4103 -0.4970
 4603TIP3    H135300   3.304   6.719   4.219 -0.3314 -0.1262 -1.3741
 4603TIP3    H235301   3.340   6.572   4.231 -0.6394 -0.1203 -0.2982
 4604TIP3   OH235302   1.457   4.847  16.758 -0.1435 -0.0885  0.3321
 4604TIP3    H135303   1.516   4.825  16.830 -1.3593 -0.7924  1.1451
 4604TIP3    H235304   1.479   4.784  16.689 -1.1462 -1.5891  1.3141
 4605TIP3   OH235305   3.117   4.719  13.571 -0.1843  0.8161 -0.1888
 4605TIP3    H135306   3.101   4.663  13.648  3.0392  0.7028  0.5100
 4605TIP3    H235307   3.117   4.808  13.607 -0.6450  0.9290 -0.4579
 4606TIP3   OH235308   6.468   3.613  16.055 -0.1498 -0.3919  0.2520
 4606TIP3    H135309   6.511   3.697  16.041 -1.7277  0.2081 -1.5636
 4606TIP3    H235310   6.536   3.548  16.041  1.2386  0.5532  2.2522
 4607TIP3   OH235311   0.691   6.526  14.382  0.7198  0.0864 -0.0109
 4607TIP3    H135312   0.610   6.518  14.331  1.2748  0.1487 -0.9188
 4607TIP3    H235313   0.683   6.609  14.427 -0.0365 -0.2357  0.4661
 4608TIP3   OH235314   3.666   0.796   2.165  0.2456 -0.1685  0.5525
 4608TIP3    H135315   3.591   0.821   2.219 -0.0728  0.3845 -0.1232
 4608TIP3    H235316   3.706   0.722   2.212 -0.2977 -0.0122  1.2851
 4609TIP3   OH235317   3.551   6.663  12.712 -0.0448  0.0460  0.5401
 4609TIP3    H135318   3.495   6.729  12.672  0.0461  0.1675  0.6134
 4609TIP3    H235319   3.500   6.582  12.708 -0.2170  0.1524  0.5922
 4610TIP3   OH235320   1.768   0.904   0.968 -0.3807  0.4648 -0.1401
 4610TIP3    H135321   1.782   0.923   0.875 -0.0254  0.3983 -0.1025
 4610TIP3    H235322   1.814   0.974   1.014  0.6837 -0.2938 -0.0039
 4611TIP3   OH235323   5.105   4.293   4.781 -0.2595 -0.5099  0.8031
 4611TIP3    H135324   5.146   4.379   4.768 -1.8052  0.0998 -0.3563
 4611TIP3    H235325   5.022   4.313   4.824 -1.1240 -1.2871 -0.4361
 4612TIP3   OH235326   3.921   2.655  15.032  0.3985  0.3275  0.6473
 4612TIP3    H135327   3.851   2.717  15.052 -0.1214  0.4900 -1.4541
 4612TIP3    H235328   3.980   2.659  15.108 -1.2861  0.9756  1.9811
 4613TIP3   OH235329   0.899   3.057  11.153  0.2266 -0.1983 -0.3208
 4613TIP3    H135330   0.895   2.962  11.138  0.0003 -0.2384 -0.0222
 4613TIP3    H235331   0.844   3.094  11.084  0.4391 -0.2713 -0.5335
 4614TIP3   OH235332   4.510   4.230   2.197  0.6253  1.0056 -0.3132
 4614TIP3    H135333   4.507   4.214   2.102  0.1103  0.4919 -0.2202
 4614TIP3    H235334   4.419   4.219   2.225  1.2667 -2.8615  0.8554
 4615TIP3   OH235335   0.965   5.791   2.222 -0.0008  0.1434 -0.2717
 4615TIP3    H135336   0.895   5.780   2.287  1.0183  1.9685  1.2363
 4615TIP3    H235337   0.952   5.880   2.188  1.6939  0.5991  0.2041
 4616TIP3   OH235338   5.276   2.038   0.901 -0.3320 -0.1074 -0.2760
 4616TIP3    H135339   5.243   2.036   0.811 -2.2041  1.2320  0.3165
 4616TIP3    H235340   5.305   2.128   0.914  0.1926 -0.3646  0.3915
 4617TIP3   OH235341   5.533   1.774   0.094 -0.3834 -0.0167  1.0528
 4617TIP3    H135342   5.474   1.845   0.067 -2.5437 -2.3714 -0.8064
 4617TIP3    H235343   5.477   1.713   0.142  0.1362 -2.8973 -1.7324
 4618TIP3   OH235344   4.784   5.891  12.594  0.4503  0.1069 -0.1655
 4618TIP3    H135345   4.834   5.963  12.556  0.8244 -1.5340 -3.0787
 4618TIP3    H235346   4.850   5.830  12.626  0.2440 -0.4195 -0.7230
 4619TIP3   OH235347   6.431   3.552   2.049 -0.3952  0.1192  0.2887
 4619TIP3    H135348   6.404   3.465   2.018 -0.7036 -0.3281  1.7512
 4619TIP3    H235349   6.368   3.612   2.011 -0.8467 -0.4256  0.1662
 4620TIP3   OH235350   5.411   1.433   0.575  0.1584 -0.4134  0.1523
 4620TIP3    H135351   5.396   1.524   0.600 -0.7960 -0.4740 -0.1830
 4620TIP3    H235352   5.489   1.436   0.520 -0.0541  0.2468 -0.1233
 4621TIP3   OH235353   2.574   5.502   0.472  0.4448 -0.2149 -1.0691
 4621TIP3    H135354   2.567   5.458   0.556 -0.5909  1.7615 -0.0509
 4621TIP3    H235355   2.622   5.583   0.491  0.5819  0.0589 -2.4727
 4622TIP3   OH235356   5.061   2.806   5.960 -0.0187  0.8705 -0.0728
 4622TIP3    H135357   5.004   2.731   5.943  0.2687  0.6763 -0.1971
 4622TIP3    H235358   5.132   2.770   6.013 -1.4490  1.6682  2.5715
 4623TIP3   OH235359   5.684   2.800   0.701 -0.5498  0.2040  0.1183
 4623TIP3    H135360   5.682   2.744   0.623  1.3745  0.4330 -0.1595
 4623TIP3    H235361   5.699   2.739   0.773  1.3040  0.2823 -0.1559
 4624TIP3   OH235362   3.897   3.605   1.298  0.5674  0.5119 -0.0507
 4624TIP3    H135363   3.976   3.635   1.344  1.0781 -1.1108  0.2156
 4624TIP3    H235364   3.881   3.672   1.232  2.8245  0.3761 -0.8345
 4625TIP3   OH235365   5.694   3.695  12.272 -0.3732  0.1635 -0.5121
 4625TIP3    H135366   5.739   3.610  12.271 -0.9938 -0.2837  2.3308
 4625TIP3    H235367   5.748   3.750  12.328 -0.0772  1.6465 -2.1959
 4626TIP3   OH235368   1.917   2.670  11.477 -0.0949 -0.2224  0.3664
 4626TIP3    H135369   2.010   2.683  11.499 -0.2025 -0.9588  1.2914
 4626TIP3    H235370   1.900   2.735  11.409  0.1532  2.5735  2.7236
 4627TIP3   OH235371   0.595   5.709   0.144 -0.4770 -0.6084  0.4081
 4627TIP3    H135372   0.622   5.628   0.186 -1.4842 -1.7694 -1.0873
 4627TIP3    H235373   0.541   5.681   0.070 -1.9757  1.4705  0.6358
 4628TIP3   OH235374   2.472   2.706  16.796 -0.6054 -0.3087 -0.7218
 4628TIP3    H135375   2.512   2.784  16.758 -1.2208  0.6055  0.4271
 4628TIP3    H235376   2.490   2.714  16.890 -0.1099 -1.9019 -0.6514
 4629TIP3   OH235377   2.766   0.204   3.594  0.0181 -0.3093 -0.1412
 4629TIP3    H135378   2.771   0.227   3.502 -0.0567 -1.9505 -0.5876
 4629TIP3    H235379   2.737   0.284   3.638 -3.7830 -0.4415 -1.9959
 4630TIP3   OH235380   6.213   3.365   2.456 -0.1571 -0.2903  0.4546
 4630TIP3    H135381   6.133   3.385   2.407 -0.6422  0.3634  1.4958
 4630TIP3    H235382   6.184   3.311   2.529  0.0699  1.3118  1.7858
 4631TIP3   OH235383   5.229   2.620   0.378  0.3135 -0.3716 -0.2321
 4631TIP3    H135384   5.218   2.549   0.314  1.8369 -0.3565 -0.5493
 4631TIP3    H235385   5.275   2.578   0.451 -0.7878 -0.2188  0.5665
 4632TIP3   OH235386   3.907   0.593  11.300  0.5429  0.6970 -0.4169
 4632TIP3    H135387   3.901   0.686  11.280 -0.2110  1.3181  2.1865
 4632TIP3    H235388   3.952   0.590  11.385 -0.7871 -1.1649  0.2955
 4633TIP3   OH235389   6.696   4.371  10.936  0.5984 -0.2671 -0.0657
 4633TIP3    H135390   6.735   4.374  10.849  0.8800  0.8594  0.0852
 4633TIP3    H235391   6.650   4.287  10.938 -0.5809  0.2516 -1.8223
 4634TIP3   OH235392   6.556   2.557  17.061  0.5753  0.3058 -0.3983
 4634TIP3    H135393   6.546   2.556  16.966  1.1585 -0.1201 -0.4580
 4634TIP3    H235394   6.498   2.628  17.090 -1.6736 -1.2191 -0.8343
 4635TIP3   OH235395   1.448   3.962  11.562  0.2610 -0.2947  0.3318
 4635TIP3    H135396   1.389   3.902  11.607 -2.3389  2.0273  0.3350
 4635TIP3    H235397   1.410   3.973  11.475  1.4823  0.2322 -0.1582
 4636TIP3   OH235398   2.324   6.301  10.477 -0.3393  0.1372  0.0055
 4636TIP3    H135399   2.327   6.223  10.533  1.4830  1.3162  1.6904
 4636TIP3    H235400   2.283   6.271  10.396 -0.1123 -2.4396  0.7602
 4637TIP3   OH235401   3.009   4.246   3.260 -0.1231  0.0580 -0.5988
 4637TIP3    H135402   3.036   4.297   3.183 -0.5305  0.1499 -0.6818
 4637TIP3    H235403   3.040   4.157   3.242 -1.7337 -0.3277 -1.6832
 4638TIP3   OH235404   5.131   4.561  12.362  0.5121 -0.3399 -0.3153
 4638TIP3    H135405   5.147   4.472  12.329 -0.4561 -0.1257 -1.4345
 4638TIP3    H235406   5.170   4.619  12.297 -2.9495  0.1363 -2.2076
 4639TIP3   OH235407   3.200   3.819   6.779 -0.5963 -0.3823 -0.2681
 4639TIP3    H135408   3.188   3.747   6.841 -0.3464  0.8044  1.1861
 4639TIP3    H235409   3.118   3.823   6.730 -1.0193 -0.9570  0.3795
 4640TIP3   OH235410   5.287   5.001   3.992  0.4799 -0.0396  0.0369
 4640TIP3    H135411   5.307   5.092   3.968  2.5935 -0.5255 -0.2512
 4640TIP3    H235412   5.326   4.990   4.078 -1.8270 -0.0585  1.1571
 4641TIP3   OH235413   0.428   2.190   3.979 -0.1016  0.4125 -0.2918
 4641TIP3    H135414   0.459   2.225   4.062 -1.1117 -1.3662  0.9120
 4641TIP3    H235415   0.505   2.148   3.940  0.5954  2.0361 -0.7423
 4642TIP3   OH235416   0.907   1.946   0.864 -0.6565 -0.3481 -0.4510
 4642TIP3    H135417   0.974   2.012   0.844 -0.0264 -0.5976  0.7328
 4642TIP3    H235418   0.841   1.994   0.913  0.2457 -0.7520  1.2158
 4643TIP3   OH235419   5.938   1.884  12.010 -0.8697 -0.6421 -0.1811
 4643TIP3    H135420   5.924   1.971  12.049  1.7902 -1.4367  3.0338
 4643TIP3    H235421   6.008   1.897  11.947 -0.1216 -0.4506  0.6575
 4644TIP3   OH235422   2.326   2.301  15.122 -0.2983 -0.0380 -0.1963
 4644TIP3    H135423   2.365   2.239  15.184 -0.1432  1.2392  1.0269
 4644TIP3    H235424   2.233   2.302  15.145 -0.3537 -0.0392 -0.4161
 4645TIP3   OH235425   3.731   2.150   2.959 -0.0399  0.3346 -0.0301
 4645TIP3    H135426   3.653   2.196   2.989  0.3919  0.5041  0.8831
 4645TIP3    H235427   3.723   2.146   2.864 -0.9006  0.8084  0.0224
 4646TIP3   OH235428   4.162   3.787  11.382  0.4623 -0.1115  0.0822
 4646TIP3    H135429   4.116   3.710  11.350 -1.9192  1.0798  0.4064
 4646TIP3    H235430   4.105   3.823  11.450  0.4423  2.9894 -1.3680
 4647TIP3   OH235431   3.874   2.222  13.388 -0.3010  0.3427 -0.7853
 4647TIP3    H135432   3.882   2.128  13.378  0.2118  0.3983 -0.9610
 4647TIP3    H235433   3.824   2.251  13.312  0.7412  0.3720 -1.4771
 4648TIP3   OH235434   4.940   5.124  16.627 -0.4627 -0.3392 -0.2584
 4648TIP3    H135435   4.924   5.067  16.703  0.6922 -0.7542 -0.3068
 4648TIP3    H235436   4.890   5.204  16.646 -0.8675 -0.7683  0.5343
 4649TIP3   OH235437   4.654   6.019   2.563  0.4453 -0.8122  0.3241
 4649TIP3    H135438   4.654   5.940   2.508  1.3050 -1.7856  1.6628
 4649TIP3    H235439   4.646   5.986   2.652 -3.2816  0.7920  0.7869
 4650TIP3   OH235440   1.394   5.813   2.558  0.1889  0.1433 -0.2063
 4650TIP3    H135441   1.462   5.749   2.536 -0.3493 -0.8700  0.9857
 4650TIP3    H235442   1.340   5.819   2.479 -0.3614 -1.6728 -0.0039
 4651TIP3   OH235443   2.876   1.343  12.703  0.6456 -0.4283 -0.8281
 4651TIP3    H135444   2.962   1.301  12.701  0.6545 -0.7145  1.8798
 4651TIP3    H235445   2.889   1.422  12.754 -0.8381 -0.8923  0.3266
 4652TIP3   OH235446   4.814   2.234  13.976  0.4529 -0.3673 -0.7081
 4652TIP3    H135447   4.726   2.195  13.971  0.3688 -0.2043 -0.5036
 4652TIP3    H235448   4.857   2.188  14.048 -0.0752  0.7681  0.3698
 4653TIP3   OH235449   6.731   3.669   5.780  0.1421  0.2471 -0.0488
 4653TIP3    H135450   6.798   3.723   5.737  1.2849 -0.7998  0.3361
 4653TIP3    H235451   6.743   3.688   5.873 -0.9050  0.9229 -0.0392
 4654TIP3   OH235452   1.107   1.375  14.971  0.2824 -0.2906  0.1125
 4654TIP3    H135453   1.139   1.344  14.887 -1.9954  0.9612 -1.3338
 4654TIP3    H235454   1.061   1.300  15.009 -0.2197 -0.3674 -0.6297
 4655TIP3   OH235455   3.828   5.088   3.001  0.2219 -0.1576  0.4162
 4655TIP3    H135456   3.903   5.036   3.028  0.0319 -0.1005  1.0742
 4655TIP3    H235457   3.823   5.159   3.065  0.8002  0.9956 -0.7680
 4656TIP3   OH235458   2.238   1.126   1.064  0.9344 -0.8449 -0.0482
 4656TIP3    H135459   2.301   1.070   1.021  2.0187  0.8409 -0.7617
 4656TIP3    H235460   2.268   1.133   1.154  1.5278 -0.3972 -0.2786
 4657TIP3   OH235461   4.569   4.291  12.746  0.4697  0.7361 -0.2783
 4657TIP3    H135462   4.543   4.334  12.665 -1.2176  0.4373  0.0590
 4657TIP3    H235463   4.561   4.359  12.813  0.5851  0.6457 -0.1716
 4658TIP3   OH235464   4.588   2.713   3.854  0.1300  0.2989 -0.7514
 4658TIP3    H135465   4.680   2.706   3.829  0.1599  0.4594 -0.6900
 4658TIP3    H235466   4.540   2.674   3.782  0.3757 -2.3373  0.4107
 4659TIP3   OH235467   5.108   5.198  12.670  0.0127 -0.4057  0.3638
 4659TIP3    H135468   5.068   5.171  12.587 -1.3965 -0.0706  0.8931
 4659TIP3    H235469   5.202   5.197  12.653 -0.2549  0.3465 -1.4576
 4660TIP3   OH235470   4.557   1.391  16.019 -0.5634 -0.3255 -0.0154
 4660TIP3    H135471   4.636   1.445  16.022  0.2685 -1.5331  1.0572
 4660TIP3    H235472   4.518   1.400  16.106 -1.4926  0.0885 -0.4711
 4661TIP3   OH235473   4.311   5.026  12.590  0.2066 -0.6180 -0.0535
 4661TIP3    H135474   4.301   5.099  12.529 -1.9165 -1.2466 -0.5252
 4661TIP3    H235475   4.250   4.959  12.559 -1.0630 -0.9406  2.7783
 4662TIP3   OH235476   5.064   3.631   2.797 -0.0654 -0.5614  0.6988
 4662TIP3    H135477   5.156   3.619   2.819  0.0122  0.4875  1.0029
 4662TIP3    H235478   5.050   3.576   2.720  0.9873 -0.2211  0.2496
 4663TIP3   OH235479   0.081   4.373  13.010 -0.0694  0.0038  0.4401
 4663TIP3    H135480   0.063   4.308  12.942 -0.1382 -1.4729  1.8117
 4663TIP3    H235481   0.162   4.415  12.982  1.2704 -2.2661  0.6015
 4664TIP3   OH235482   0.853   1.245   4.750 -0.0355  0.2185 -0.3906
 4664TIP3    H135483   0.778   1.284   4.704  0.8226  1.1916 -0.9990
 4664TIP3    H235484   0.884   1.177   4.691 -1.4687 -1.4235  0.6259
 4665TIP3   OH235485   2.690   3.708   0.056 -0.5554 -0.2035  0.1584
 4665TIP3    H135486   2.696   3.803   0.041 -1.0108 -0.0930  0.6630
 4665TIP3    H235487   2.713   3.670  -0.029  0.7351  0.3262  0.2474
 4666TIP3   OH235488   4.942   1.027  15.815  0.2978  0.3912 -0.1854
 4666TIP3    H135489   4.986   1.108  15.790  1.4262  0.7455  2.6302
 4666TIP3    H235490   4.979   0.961  15.756  2.2839  1.2544  0.0004
 4667TIP3   OH235491   1.781   3.897  12.117  0.3617 -0.1344  1.1789
 4667TIP3    H135492   1.764   3.988  12.140  0.9949  0.1443  0.5882
 4667TIP3    H235493   1.833   3.902  12.037 -0.3624 -1.0363  0.6335
 4668TIP3   OH235494   5.044   1.736   5.147  0.5092 -0.2528 -0.3111
 4668TIP3    H135495   4.995   1.692   5.077  0.5038 -1.1083  0.2100
 4668TIP3    H235496   5.007   1.824   5.151 -1.7837 -1.1841  0.7893
 4669TIP3   OH235497   0.727   3.020   5.138  0.3469 -0.0105 -0.3512
 4669TIP3    H135498   0.642   2.976   5.141 -2.4557  4.6554 -1.2054
 4669TIP3    H235499   0.758   3.020   5.229 -1.9447  0.3750  0.4965
 4670TIP3   OH235500   6.242   5.522   3.751 -0.0186 -0.3301  0.4180
 4670TIP3    H135501   6.256   5.542   3.843  2.9705 -0.7513  0.1485
 4670TIP3    H235502   6.148   5.512   3.742 -0.4647  0.6688  3.2088
 4671TIP3   OH235503   4.858   5.567   4.615  0.3907  0.2736 -0.4710
 4671TIP3    H135504   4.823   5.650   4.584 -0.5917  0.2292  0.4711
 4671TIP3    H235505   4.910   5.590   4.692 -1.7992 -0.1961  1.2231
 4672TIP3   OH235506   4.165   3.848  16.803  0.0719 -0.1395  0.1680
 4672TIP3    H135507   4.141   3.939  16.788 -0.7308 -0.5494 -1.1113
 4672TIP3    H235508   4.138   3.831  16.894 -0.3612  0.6984  0.2036
 4673TIP3   OH235509   5.454   3.493   3.720 -0.2893 -0.0337 -0.2149
 4673TIP3    H135510   5.423   3.403   3.705 -0.7520  0.1159 -0.1781
 4673TIP3    H235511   5.523   3.484   3.786 -0.5772 -0.3256  0.0490
 4674TIP3   OH235512   5.978   6.592   0.920  0.4694  0.0612  0.7646
 4674TIP3    H135513   5.972   6.566   0.829 -3.2405  2.2188  0.1910
 4674TIP3    H235514   5.917   6.534   0.966  0.4820  0.5583  1.4210
 4675TIP3   OH235515   5.312   5.350  14.533 -0.0384 -0.1706  0.1569
 4675TIP3    H135516   5.291   5.326  14.624  2.1344 -0.2416  0.6896
 4675TIP3    H235517   5.371   5.425  14.541 -0.2848  0.1870 -1.2348
 4676TIP3   OH235518   3.048   1.052  13.455 -0.4916 -0.2996 -0.1312
 4676TIP3    H135519   3.038   1.148  13.460 -0.1368 -0.0229 -3.0257
 4676TIP3    H235520   3.036   1.032  13.363 -1.4353 -3.2117  0.5390
 4677TIP3   OH235521   3.205   0.820   3.740  0.3740  0.1868  0.0616
 4677TIP3    H135522   3.278   0.869   3.777 -0.1890  0.5768  0.6794
 4677TIP3    H235523   3.244   0.768   3.670  0.9850  1.5021 -0.6061
 4678TIP3   OH235524   3.235   6.687   4.765 -0.3833  0.4053  0.5007
 4678TIP3    H135525   3.224   6.711   4.857 -1.8338  2.1349 -0.0726
 4678TIP3    H235526   3.146   6.691   4.728  0.2266  0.1731 -1.0752
 4679TIP3   OH235527   6.425   3.675   6.811  0.4718 -0.0003  0.9508
 4679TIP3    H135528   6.375   3.721   6.878  2.0445  0.7216  1.6838
 4679TIP3    H235529   6.433   3.738   6.739 -1.4794 -0.8815 -0.1098
 4680TIP3   OH235530   0.429   1.036   1.223  0.7410 -0.1977 -0.0674
 4680TIP3    H135531   0.465   1.124   1.234 -0.8098  0.5176 -0.5311
 4680TIP3    H235532   0.486   0.995   1.158 -0.1529  1.4706 -2.0017
 4681TIP3   OH235533   2.072   0.560   4.622 -0.3234  0.4654  0.4303
 4681TIP3    H135534   2.115   0.482   4.656  2.1087  1.9565  1.1107
 4681TIP3    H235535   2.056   0.614   4.699 -2.4413  0.4854  0.0363
 4682TIP3   OH235536   5.481   2.256   2.156  0.2121 -0.0982 -0.6677
 4682TIP3    H135537   5.459   2.343   2.123 -0.7686  2.2946  5.0113
 4682TIP3    H235538   5.397   2.211   2.165  0.2293 -0.0285 -0.0697
 4683TIP3   OH235539   1.866   3.424  11.189  0.3953  0.8166 -0.3524
 4683TIP3    H135540   1.779   3.465  11.192  0.1641  0.2843  1.0128
 4683TIP3    H235541   1.898   3.431  11.279  0.8834 -0.8533 -0.3637
 4684TIP3   OH235542   5.797   5.584  14.957 -0.0233 -0.9230  0.4797
 4684TIP3    H135543   5.715   5.536  14.954  0.3363 -1.5099 -0.2363
 4684TIP3    H235544   5.853   5.534  15.016 -0.3302 -0.2518  1.3706
 4685TIP3   OH235545   2.873   4.779   4.036  0.4483  0.4700  0.1820
 4685TIP3    H135546   2.923   4.849   3.995 -0.4075  2.7676  2.7612
 4685TIP3    H235547   2.925   4.700   4.019  2.6207  2.0356 -0.9686
 4686TIP3   OH235548   0.552   2.146  17.169 -0.2987  0.0737  0.1873
 4686TIP3    H135549   0.518   2.181  17.252 -0.4854 -1.0391  0.5909
 4686TIP3    H235550   0.602   2.069  17.194 -0.0034 -0.0345 -0.7059
 4687TIP3   OH235551   5.020   2.238   5.671 -0.5102 -0.1481  0.1483
 4687TIP3    H135552   5.106   2.247   5.630 -0.9133 -0.9231 -0.9328
 4687TIP3    H235553   5.026   2.158   5.723 -0.7565 -0.5486 -0.4306
 4688TIP3   OH235554   3.144   1.889  14.463  0.0747  0.2636 -0.1348
 4688TIP3    H135555   3.209   1.959  14.455 -2.4362  2.9589  1.2849
 4688TIP3    H235556   3.117   1.871  14.373  0.4726  1.4511 -0.5139
 4689TIP3   OH235557   0.967   5.000  16.984  0.2628 -0.0755 -0.4709
 4689TIP3    H135558   0.922   4.975  17.065 -0.1684  0.2854 -0.5959
 4689TIP3    H235559   0.931   5.086  16.962 -0.8961 -0.9029 -1.9766
 4690TIP3   OH235560   5.387   3.363  12.248 -0.7617  0.2559 -0.8845
 4690TIP3    H135561   5.392   3.443  12.300  0.1202  0.2226 -0.9009
 4690TIP3    H235562   5.471   3.359  12.202 -0.1310 -1.4838  0.3292
 4691TIP3   OH235563   5.777   4.883  14.836  0.7224 -0.3355 -0.3226
 4691TIP3    H135564   5.757   4.876  14.929 -0.4189  1.4507 -0.3917
 4691TIP3    H235565   5.860   4.837  14.826  0.7629 -0.7349  1.5349
 4692TIP3   OH235566   5.519   6.525  16.225 -0.3109  0.9772  0.5654
 4692TIP3    H135567   5.439   6.555  16.181 -0.0793  0.8892  0.0764
 4692TIP3    H235568   5.569   6.604  16.243 -0.8118  1.1039  1.5027
 4693TIP3   OH235569   0.324   4.029  15.247 -0.5547 -0.0873 -0.1518
 4693TIP3    H135570   0.261   4.089  15.287 -0.0747 -0.7778  1.7515
 4693TIP3    H235571   0.410   4.062  15.273 -0.2164 -0.5129 -0.7060
 4694TIP3   OH235572   3.828   6.529  15.655 -0.0826 -0.2778 -0.0156
 4694TIP3    H135573   3.779   6.450  15.676  0.7412 -0.5400  1.0019
 4694TIP3    H235574   3.888   6.540  15.729  0.6200  0.6411 -0.7080
 4695TIP3   OH235575   5.608   0.655  15.371 -0.2494  0.1012  0.0209
 4695TIP3    H135576   5.555   0.593  15.320  0.1701 -0.3002  0.0744
 4695TIP3    H235577   5.658   0.601  15.431 -0.3529  0.5393  0.5136
 4696TIP3   OH235578   0.320   1.769   3.125  0.3261  0.9567  0.3999
 4696TIP3    H135579   0.325   1.674   3.115 -0.0787  0.6482  2.6042
 4696TIP3    H235580   0.305   1.801   3.037  0.8707 -0.9908 -0.4658
 4697TIP3   OH235581   6.696   3.491  16.397  0.0121 -0.3548  0.2833
 4697TIP3    H135582   6.723   3.580  16.376 -2.1144  0.9420  2.5368
 4697TIP3    H235583   6.771   3.454  16.444  0.1511  1.0516  1.2403
 4698TIP3   OH235584   1.276   4.404   5.655  0.6336 -0.7354  0.2628
 4698TIP3    H135585   1.353   4.448   5.619 -0.3813  1.2070  0.3191
 4698TIP3    H235586   1.299   4.311   5.655  1.8869 -0.5153 -2.4126
 4699TIP3   OH235587   5.092   1.714   2.701  0.4156  0.3615 -0.2715
 4699TIP3    H135588   5.025   1.743   2.763 -2.0078 -0.0222 -2.5053
 4699TIP3    H235589   5.127   1.634   2.739  1.0545  1.5758  1.8727
 4700TIP3   OH235590   1.073   0.746  15.264 -0.1649  0.2349  0.6995
 4700TIP3    H135591   1.075   0.717  15.355  1.3729  0.0360  0.6328
 4700TIP3    H235592   1.025   0.829  15.266 -0.9710 -0.2416  1.5378
 4701TIP3   OH235593   2.549   2.700  11.162 -0.3160  0.2027 -0.3345
 4701TIP3    H135594   2.613   2.766  11.187 -0.1563 -0.2271  0.4253
 4701TIP3    H235595   2.574   2.674  11.074  0.0241  0.6700 -0.3783
 4702TIP3   OH235596   3.794   4.992   0.283  0.1553 -0.1882  0.1238
 4702TIP3    H135597   3.727   5.038   0.233 -1.4910 -1.9135  0.6152
 4702TIP3    H235598   3.785   5.024   0.372  0.1087 -0.2998  0.1590
 4703TIP3   OH235599   6.104   1.155   4.403  0.6715  0.1450  0.2462
 4703TIP3    H135600   6.043   1.081   4.395 -0.6275  1.1241  0.7132
 4703TIP3    H235601   6.056   1.220   4.455  1.6508  1.4491 -0.4218
 4704TIP3   OH235602   3.937   3.188   1.104 -0.1898 -0.0383  0.2075
 4704TIP3    H135603   3.843   3.209   1.103  0.0758  1.2610  0.2851
 4704TIP3    H235604   3.942   3.104   1.149 -1.3527 -0.3313 -0.1669
 4705TIP3   OH235605   6.650   4.135  11.281  0.4480  0.2757  0.2305
 4705TIP3    H135606   6.580   4.082  11.319 -0.3472  1.1502  0.0024
 4705TIP3    H235607   6.606   4.194  11.220  1.4455  0.4732 -0.3126
 4706TIP3   OH235608   2.911   1.456  16.170 -0.2231  0.1207 -0.6717
 4706TIP3    H135609   2.898   1.482  16.262  0.8352 -0.3743 -0.3754
 4706TIP3    H235610   2.868   1.526  16.120  0.4123  1.1478  0.1624
 4707TIP3   OH235611   6.509   6.398  11.086 -0.2090 -0.0579 -0.2157
 4707TIP3    H135612   6.572   6.410  11.015  0.0780  0.4279  0.1139
 4707TIP3    H235613   6.423   6.406  11.043 -0.0376  0.9014 -0.4113
 4708TIP3   OH235614   3.109   5.900   0.878  0.0430 -0.4325 -0.0142
 4708TIP3    H135615   3.018   5.872   0.890  0.2514 -0.9606  0.3543
 4708TIP3    H235616   3.131   5.946   0.959  0.2952 -0.8309  0.1437
 4709TIP3   OH235617   2.896   2.478   2.857 -0.5222 -0.4666 -0.2065
 4709TIP3    H135618   2.967   2.436   2.810 -0.1346 -0.2655  0.1957
 4709TIP3    H235619   2.924   2.479   2.948 -0.4425  0.8145 -0.2246
 4710TIP3   OH235620   2.709   5.800   4.046  0.1729 -0.2905  0.0717
 4710TIP3    H135621   2.669   5.814   3.961  2.0739 -0.5571 -0.9190
 4710TIP3    H235622   2.760   5.720   4.037 -1.8306 -1.9917  2.3681
 4711TIP3   OH235623   1.296   3.212  16.694 -0.9517 -0.5217 -0.4073
 4711TIP3    H135624   1.390   3.200  16.707 -1.1374 -1.7327 -0.1201
 4711TIP3    H235625   1.290   3.293  16.642  0.1262  0.6391  1.1823
 4712TIP3   OH235626   3.947   2.639   0.762  0.3367  0.1306  0.0630
 4712TIP3    H135627   4.029   2.600   0.734 -0.2901 -0.5872 -0.8217
 4712TIP3    H235628   3.906   2.671   0.682  1.1349  3.3351  0.7861
 4713TIP3   OH235629   5.862   6.261  15.481 -0.4079  0.3113 -0.4916
 4713TIP3    H135630   5.901   6.348  15.472 -1.1908  0.6178 -0.9900
 4713TIP3    H235631   5.816   6.264  15.565 -1.8624  0.9778 -1.2655
 4714TIP3   OH235632   6.713   6.257  16.520  0.0933  0.0580 -0.5490
 4714TIP3    H135633   6.770   6.309  16.576 -0.3543 -0.0902  0.0613
 4714TIP3    H235634   6.753   6.170  16.520 -0.2556 -0.1137  0.0893
 4715TIP3   OH235635   1.853   1.420   5.738 -0.6293  0.1369 -0.3069
 4715TIP3    H135636   1.856   1.457   5.826  1.0619  0.1213 -0.3134
 4715TIP3    H235637   1.936   1.447   5.699 -0.9209 -0.6993 -1.5526
 4716TIP3   OH235638   0.518   6.601   0.005 -0.3766 -0.2271 -0.4048
 4716TIP3    H135639   0.554   6.688   0.025  1.8843 -1.1321 -0.1741
 4716TIP3    H235640   0.517   6.596  -0.090 -0.4787  0.0376 -0.4186
 4717TIP3   OH235641   1.237   5.680  17.081 -0.4548  0.0703 -0.7025
 4717TIP3    H135642   1.328   5.687  17.053 -0.2152  0.3255  0.0873
 4717TIP3    H235643   1.197   5.618  17.021  0.8144 -1.7989  0.2955
 4718TIP3   OH235644   6.776   1.057   0.685 -0.3103 -0.3895  0.1825
 4718TIP3    H135645   6.814   1.132   0.639  0.0911 -1.2894 -0.9759
 4718TIP3    H235646   6.683   1.060   0.663 -0.4310  0.1541  0.7135
 4719TIP3   OH235647   4.123   6.511   5.813 -0.2396 -0.1680  0.0427
 4719TIP3    H135648   4.154   6.595   5.777 -2.6293  0.0762 -1.6653
 4719TIP3    H235649   4.054   6.535   5.875  2.4264 -0.7249  3.5547
 4720TIP3   OH235650   5.333   3.988   5.332  0.3133 -0.9086  0.1856
 4720TIP3    H135651   5.324   4.023   5.420  0.1417 -2.3597  0.7834
 4720TIP3    H235652   5.419   4.017   5.303  0.0495  0.2409  0.5123
 4721TIP3   OH235653   4.267   4.498  13.848  0.2459 -0.3871 -0.2222
 4721TIP3    H135654   4.257   4.524  13.940  0.1240  0.6215 -0.5114
 4721TIP3    H235655   4.196   4.436  13.832  0.7474 -1.1971  0.5771
 4722TIP3   OH235656   3.592   5.245   5.908  0.2154  0.3156  0.3892
 4722TIP3    H135657   3.635   5.300   5.973  4.8578 -0.7495 -1.4258
 4722TIP3    H235658   3.576   5.162   5.953  0.9300  0.4432  0.8853
 4723TIP3   OH235659   1.117   3.399   4.609 -0.4355 -0.0471 -0.0675
 4723TIP3    H135660   1.167   3.462   4.557 -1.2260  0.4047 -0.2886
 4723TIP3    H235661   1.152   3.314   4.582 -0.0213  0.2444 -0.4725
 4724TIP3   OH235662   5.988   0.818  13.056 -0.0708  0.1061 -0.2403
 4724TIP3    H135663   5.931   0.891  13.078  1.1299  0.6965  1.0516
 4724TIP3    H235664   6.077   0.852  13.066  0.5475 -1.7953  1.5289
 4725TIP3   OH235665   6.619   1.201  13.953 -0.0541 -0.6896 -0.2318
 4725TIP3    H135666   6.646   1.112  13.977 -0.9284 -0.6203  1.1125
 4725TIP3    H235667   6.597   1.243  14.037 -1.7256  0.0892 -1.0064
 4726TIP3   OH235668   0.608   1.490  17.126  0.4594  0.1063 -0.1830
 4726TIP3    H135669   0.654   1.557  17.179  0.7636 -0.3014  0.0788
 4726TIP3    H235670   0.585   1.422  17.189  0.3306 -0.1289 -0.4825
 4727TIP3   OH235671   0.176   5.759   1.859  0.0488  0.3476  0.0450
 4727TIP3    H135672   0.194   5.843   1.901  0.4348  0.8908 -1.1470
 4727TIP3    H235673   0.263   5.726   1.836 -0.1586  0.1082 -0.3903
 4728TIP3   OH235674   0.180   4.251  11.587  0.1470  0.6465  0.3297
 4728TIP3    H135675   0.117   4.322  11.576  0.2611  0.5731 -0.9225
 4728TIP3    H235676   0.254   4.274  11.530  0.2892 -0.3495  0.0774
 4729TIP3   OH235677   0.127   3.527  12.433  0.2970 -0.0445  0.0300
 4729TIP3    H135678   0.076   3.466  12.381 -0.7619  0.1186  0.8496
 4729TIP3    H235679   0.218   3.508  12.409 -0.1616  0.5226 -2.3786
 4730TIP3   OH235680   5.264   1.391  16.084  0.1964  0.1836  0.5427
 4730TIP3    H135681   5.247   1.450  16.011  0.3982 -0.0293  0.3195
 4730TIP3    H235682   5.325   1.325  16.049  0.5411  0.2548  0.9831
 4731TIP3   OH235683   1.779   4.514   6.688 -0.3613 -0.0345  0.0954
 4731TIP3    H135684   1.791   4.421   6.703 -1.5150  0.1164  2.3986
 4731TIP3    H235685   1.725   4.544   6.761 -0.3616  2.3739 -0.7772
 4732TIP3   OH235686   4.912   0.840   0.585  0.1010 -0.3882 -0.6874
 4732TIP3    H135687   4.868   0.868   0.665 -0.5688 -1.2002 -0.7543
 4732TIP3    H235688   4.903   0.914   0.524 -0.1951 -0.1293 -0.3289
 4733TIP3   OH235689   1.524   3.027   0.716  0.1433  0.0153 -0.0902
 4733TIP3    H135690   1.431   3.029   0.693  0.1399  1.8661  0.0007
 4733TIP3    H235691   1.557   2.949   0.670 -1.8629 -2.0862  1.7540
 4734TIP3   OH235692   1.639   4.417  16.974  0.2600 -0.1749  0.1064
 4734TIP3    H135693   1.624   4.359  17.049  2.1211 -0.8013  0.0473
 4734TIP3    H235694   1.731   4.401  16.950  1.0188  3.1426  0.3745
 4735TIP3   OH235695   5.148   1.059  13.345 -0.2271  0.1469  0.0054
 4735TIP3    H135696   5.169   0.987  13.286  1.0601  0.3881  0.1299
 4735TIP3    H235697   5.167   1.138  13.294 -0.6734  0.3841  0.2013
 4736TIP3   OH235698   2.791   4.735   1.437 -0.2209 -0.2169  0.8440
 4736TIP3    H135699   2.884   4.754   1.426  0.2002 -0.1906  3.7847
 4736TIP3    H235700   2.778   4.726   1.531 -3.1285 -0.7052  0.5171
 4737TIP3   OH235701   2.427   0.248  13.096 -0.1713 -0.2022 -0.1777
 4737TIP3    H135702   2.491   0.177  13.099 -0.3579 -0.3731 -0.2163
 4737TIP3    H235703   2.472   0.322  13.137 -0.5688 -0.8167  1.4516
 4738TIP3   OH235704   2.085   4.108   3.193  0.6256 -0.1948  0.2043
 4738TIP3    H135705   2.114   4.018   3.213  0.6849 -0.3736 -0.6173
 4738TIP3    H235706   2.113   4.121   3.102  0.7265  0.7066  0.3592
 4739TIP3   OH235707   6.503   3.085   2.927  0.1548  0.4300 -0.3201
 4739TIP3    H135708   6.572   3.019   2.919  0.2940  0.6279 -0.7705
 4739TIP3    H235709   6.427   3.045   2.885 -0.3327 -0.2291  1.1265
 4740TIP3   OH235710   1.330   3.044   0.296  0.0412  0.5840 -0.5263
 4740TIP3    H135711   1.393   2.979   0.328 -1.1843  0.2120  1.3101
 4740TIP3    H235712   1.272   2.995   0.238  0.4501  0.5505 -0.9083
 4741TIP3   OH235713   1.023   5.444  16.634 -0.2862  0.1993 -0.7150
 4741TIP3    H135714   0.931   5.466  16.614 -0.4161 -0.0024 -0.3368
 4741TIP3    H235715   1.066   5.443  16.548 -0.8297 -0.5772 -0.9843
 4742TIP3   OH235716   6.708   3.220   1.804 -0.1428  0.6287 -0.7047
 4742TIP3    H135717   6.640   3.238   1.739  1.4985  3.7020 -1.7416
 4742TIP3    H235718   6.781   3.276   1.779  0.8290  1.5515  3.4383
 4743TIP3   OH235719   2.290   0.550  14.827  0.4088  0.3574 -0.4574
 4743TIP3    H135720   2.289   0.511  14.739 -1.0320  4.3609 -2.5041
 4743TIP3    H235721   2.363   0.612  14.825 -0.1522  1.1054  0.8575
 4744TIP3   OH235722   5.352   0.072  11.732  0.4965 -0.3789  0.6506
 4744TIP3    H135723   5.401   0.003  11.687 -1.2814 -1.0244 -0.4298
 4744TIP3    H235724   5.302   0.114  11.662 -0.2482  0.4319  1.6514
 4745TIP3   OH235725   5.768   3.422   1.704 -0.3117  0.1262  0.6304
 4745TIP3    H135726   5.826   3.438   1.779 -1.5948  0.8255  1.4937
 4745TIP3    H235727   5.764   3.506   1.658  1.0155 -0.4693 -0.6647
 4746TIP3   OH235728   5.042   3.957  13.200 -0.4895 -0.0866  0.5182
 4746TIP3    H135729   5.122   3.983  13.155 -0.1049 -1.4347  0.3871
 4746TIP3    H235730   5.066   3.877  13.248 -1.3179  0.3990  1.8047
 4747TIP3   OH235731   5.912   2.675  13.389 -0.9734 -0.3323 -0.5710
 4747TIP3    H135732   5.958   2.759  13.388 -0.8078 -0.3909  0.8862
 4747TIP3    H235733   5.981   2.610  13.405 -1.1159 -0.7512 -1.5816
 4748TIP3   OH235734   1.873   3.865  11.847 -0.1901 -0.2265 -0.8532
 4748TIP3    H135735   1.943   3.814  11.887  0.9951 -0.4320 -3.0265
 4748TIP3    H235736   1.806   3.801  11.823 -1.2170 -0.0252  1.2600
 4749TIP3   OH235737   2.970   2.259   6.232  0.7365 -0.0800 -0.1013
 4749TIP3    H135738   2.894   2.316   6.245  0.0971 -1.1149  0.9257
 4749TIP3    H235739   3.045   2.311   6.262  0.3081  0.5988 -0.2027
 4750TIP3   OH235740   1.282   3.637   0.840  0.0506  0.0098 -0.3069
 4750TIP3    H135741   1.375   3.659   0.847  0.2119 -0.7986  0.3638
 4750TIP3    H235742   1.237   3.721   0.842  0.6905  0.3572  1.0192
 4751TIP3   OH235743   4.575   3.713  14.525  0.6615 -0.5378 -0.0251
 4751TIP3    H135744   4.621   3.697  14.443 -0.2948 -1.9003 -0.3253
 4751TIP3    H235745   4.597   3.637  14.579 -0.0242 -0.4465  0.3826
 4752TIP3   OH235746   0.455   4.873   3.136  0.3448 -0.1405  0.3596
 4752TIP3    H135747   0.538   4.835   3.106  0.8295  1.6793 -0.7623
 4752TIP3    H235748   0.389   4.809   3.108  1.1606 -0.4662 -0.9578
 4753TIP3   OH235749   1.526   0.262  13.354  0.0511 -1.1392  0.1417
 4753TIP3    H135750   1.562   0.210  13.282  0.7536  0.6507 -0.8601
 4753TIP3    H235751   1.590   0.252  13.425  1.6567  0.5168 -0.9950
 4754TIP3   OH235752   0.191   4.719  11.984  0.4303  1.2102 -0.3188
 4754TIP3    H135753   0.211   4.750  11.896 -0.5766  1.6289 -0.4201
 4754TIP3    H235754   0.165   4.628  11.971  1.3776  0.9342 -0.3003
 4755TIP3   OH235755   1.049   1.810   4.935 -0.2657 -0.1217 -0.3860
 4755TIP3    H135756   0.968   1.808   4.985 -0.8548  1.0926 -1.2536
 4755TIP3    H235757   1.116   1.837   4.998 -0.9739  1.2723 -0.2085
 4756TIP3   OH235758   2.035   6.561   0.282 -0.8380  0.8284 -0.4727
 4756TIP3    H135759   2.078   6.583   0.200  0.2235 -0.2219 -0.2247
 4756TIP3    H235760   1.953   6.610   0.280 -0.0707  2.1405 -1.3913
 4757TIP3   OH235761   3.798   3.816   1.164  0.5095  0.1636 -0.0183
 4757TIP3    H135762   3.801   3.911   1.149 -0.5480  0.0527 -1.0583
 4757TIP3    H235763   3.704   3.795   1.164  0.7597 -1.0309 -0.7695
 4758TIP3   OH235764   5.849   5.084  12.389  0.0944  1.0722  0.0319
 4758TIP3    H135765   5.807   5.147  12.447 -1.2164  0.0438  0.2349
 4758TIP3    H235766   5.790   5.077  12.314  0.9069  1.0847 -0.6253
 4759TIP3   OH235767   6.823   0.292  14.387  0.3094  0.2143  0.3638
 4759TIP3    H135768   6.742   0.327  14.423 -0.2300 -0.6595  0.0174
 4759TIP3    H235769   6.830   0.204  14.424  0.1466 -0.4096 -1.0216
 4760TIP3   OH235770   4.307   0.039  15.185  0.2173 -0.0446 -0.3485
 4760TIP3    H135771   4.400   0.019  15.181  0.5107  0.9351  0.9889
 4760TIP3    H235772   4.286   0.038  15.278 -0.8026  1.1134 -0.5422
 4761TIP3   OH235773   6.328   0.189   0.284  0.0129  0.6188  0.4639
 4761TIP3    H135774   6.235   0.166   0.289 -0.2447  0.9647 -1.9315
 4761TIP3    H235775   6.338   0.262   0.345 -0.8059 -0.7216  2.2974
 4762TIP3   OH235776   4.207   5.683  11.680 -0.4508 -0.1439  0.4217
 4762TIP3    H135777   4.291   5.693  11.724 -0.9625  1.8886  1.0386
 4762TIP3    H235778   4.228   5.638  11.598  1.0307 -0.8106  1.1393
 4763TIP3   OH235779   5.766   4.264  12.339  0.3807  0.3766  0.5665
 4763TIP3    H135780   5.824   4.340  12.348 -2.7198  3.1316 -0.5177
 4763TIP3    H235781   5.781   4.233  12.250  1.5607 -0.2351  0.9633
 4764TIP3   OH235782   0.745   3.255   1.650  0.0029  0.0242 -0.5526
 4764TIP3    H135783   0.734   3.203   1.729  1.9809 -1.1057 -0.9448
 4764TIP3    H235784   0.829   3.299   1.661  0.4119 -0.2955 -2.0627
 4765TIP3   OH235785   6.352   1.460  12.134  0.3606 -0.3576 -0.1365
 4765TIP3    H135786   6.347   1.473  12.039 -0.9551  1.7251  0.1514
 4765TIP3    H235787   6.446   1.454  12.152  0.6671  0.0205 -1.4804
 4766TIP3   OH235788   3.465   1.656  12.875  0.4838  0.2206 -0.4001
 4766TIP3    H135789   3.528   1.613  12.816  2.3740 -0.3849  1.8946
 4766TIP3    H235790   3.476   1.611  12.958 -1.4219  1.6494  0.6994
 4767TIP3   OH235791   5.073   6.247  13.219 -0.7430 -0.1380 -0.0501
 4767TIP3    H135792   4.999   6.300  13.251 -0.6100  0.6210 -0.9784
 4767TIP3    H235793   5.125   6.307  13.166  1.2208 -0.3307  1.5384
 4768TIP3   OH235794   1.526   1.179  11.727 -0.2783  0.1672 -0.3168
 4768TIP3    H135795   1.599   1.231  11.695 -0.7254  0.5961 -0.6683
 4768TIP3    H235796   1.532   1.097  11.679  0.1924  0.0547 -0.0642
 4769TIP3   OH235797   4.192   5.993   4.462 -0.0762  0.5756 -0.1687
 4769TIP3    H135798   4.207   6.016   4.554  0.1311  1.1197 -0.3339
 4769TIP3    H235799   4.112   5.940   4.463 -1.6411  2.7924  0.0555
 4770TIP3   OH235800   0.107   5.570  11.699 -0.3922 -0.1830 -0.7578
 4770TIP3    H135801   0.169   5.618  11.753  1.6988 -2.1027 -1.2880
 4770TIP3    H235802   0.113   5.611  11.613  0.1379 -0.2974 -0.7836
 4771TIP3   OH235803   0.629   5.548   1.283  0.2269  0.7206  0.3578
 4771TIP3    H135804   0.621   5.526   1.376 -0.4931  1.9702  0.6266
 4771TIP3    H235805   0.583   5.632   1.275  2.2020  1.7581 -0.6860
 4772TIP3   OH235806   6.589   6.130   2.318  0.5602 -0.4135 -0.0162
 4772TIP3    H135807   6.569   6.221   2.340 -1.3115 -1.1805  1.7729
 4772TIP3    H235808   6.590   6.084   2.402 -2.3968 -2.7023 -1.0300
 4773TIP3   OH235809   6.242   0.522  16.160 -0.3619  0.4351 -0.5078
 4773TIP3    H135810   6.337   0.532  16.170 -0.4896 -0.0044  1.3536
 4773TIP3    H235811   6.211   0.493  16.245 -2.1771  0.4567 -1.1144
 4774TIP3   OH235812   3.136   6.010   1.145  0.0955 -0.1595  0.1919
 4774TIP3    H135813   3.112   5.921   1.168  2.2531 -1.1322 -1.0072
 4774TIP3    H235814   3.161   6.051   1.228 -0.9033 -0.6531  0.7464
 4775TIP3   OH235815   2.302   2.955  17.071 -0.4194 -0.0544  0.2402
 4775TIP3    H135816   2.298   3.034  17.017  0.3545  0.7545  1.3289
 4775TIP3    H235817   2.282   2.986  17.160 -1.3785 -1.3095  0.4916
 4776TIP3   OH235818   2.763   5.693  11.152  0.4863  0.2087  0.0187
 4776TIP3    H135819   2.832   5.651  11.204  0.9810  1.1293  0.1248
 4776TIP3    H235820   2.739   5.771  11.202 -1.3183 -0.5598  0.4611
 4777TIP3   OH235821   1.231   0.678  11.147  0.6009  0.1148  0.0613
 4777TIP3    H135822   1.281   0.759  11.138  0.7651  0.2773  2.0377
 4777TIP3    H235823   1.147   0.705  11.183  1.0302 -0.6608  1.7250
 4778TIP3   OH235824   5.384   5.335   6.518 -0.0883  0.6583  0.9673
 4778TIP3    H135825   5.453   5.286   6.563  1.9199  3.7317  1.5760
 4778TIP3    H235826   5.382   5.419   6.562 -1.9667  1.8657 -1.1956
 4779TIP3   OH235827   4.116   2.815   6.126 -0.1131  0.2609  0.4954
 4779TIP3    H135828   4.153   2.826   6.039  0.1244 -0.4207  0.5021
 4779TIP3    H235829   4.184   2.846   6.186  0.2635 -0.5194  0.4867
 4780TIP3   OH235830   5.124   2.764   4.457  0.3095  0.2828 -0.5518
 4780TIP3    H135831   5.154   2.853   4.477 -1.0830  0.8897 -0.9990
 4780TIP3    H235832   5.171   2.740   4.377 -0.8181  1.4734 -1.6213
 4781TIP3   OH235833   4.259   6.402  11.564 -0.2261  0.0563  0.2211
 4781TIP3    H135834   4.290   6.341  11.631  0.9428  0.7919  0.3941
 4781TIP3    H235835   4.164   6.391  11.562 -0.2324 -0.3157  1.6655
 4782TIP3   OH235836   1.336   6.336   0.071  0.1575  0.0228  0.1715
 4782TIP3    H135837   1.418   6.358   0.116  0.3372 -0.5400  0.1247
 4782TIP3    H235838   1.329   6.402   0.002  1.1985 -0.6367 -0.5965
 4783TIP3   OH235839   1.579   0.913  11.591 -0.0017 -0.4599  0.3912
 4783TIP3    H135840   1.495   0.878  11.559 -0.7246 -1.3732  3.0510
 4783TIP3    H235841   1.615   0.843  11.645  1.5639  0.6670  0.8678
 4784TIP3   OH235842   1.237   5.596  13.151  0.2975 -0.4713  0.1051
 4784TIP3    H135843   1.202   5.622  13.066 -0.6177 -2.4337 -0.1645
 4784TIP3    H235844   1.325   5.634  13.154 -0.3718  1.2345 -0.8775
 4785TIP3   OH235845   6.757   4.249   2.153  0.6915  0.0904  0.4860
 4785TIP3    H135846   6.841   4.235   2.109  0.5609  0.3870  0.1340
 4785TIP3    H235847   6.693   4.248   2.083 -0.1584 -4.0928  1.0754
 4786TIP3   OH235848   4.593   5.969  14.325  0.0470 -0.0198  0.0471
 4786TIP3    H135849   4.644   6.008  14.396  0.9397 -1.0643  0.0010
 4786TIP3    H235850   4.617   6.020  14.248 -0.2864  0.5766  0.3295
 4787TIP3   OH235851   2.652   5.224   1.268 -0.4189 -0.7899 -0.1265
 4787TIP3    H135852   2.647   5.131   1.290  3.3319 -0.7234  1.7951
 4787TIP3    H235853   2.593   5.267   1.330  0.2514 -1.6883  1.1809
 4788TIP3   OH235854   2.918   5.477   5.423  0.0892  0.4017  0.4435
 4788TIP3    H135855   2.886   5.493   5.335 -1.0987  0.2420  0.8337
 4788TIP3    H235856   2.948   5.562   5.454  0.9174  0.3817 -0.2517
 4789TIP3   OH235857   3.688   1.401  16.071 -0.5280 -0.0121  0.0696
 4789TIP3    H135858   3.760   1.450  16.110  0.0748 -1.1548  0.4135
 4789TIP3    H235859   3.650   1.462  16.007  0.9506  0.4873 -0.3809
 4790TIP3   OH235860   1.173   5.117   2.958 -0.3892 -0.6492 -0.0451
 4790TIP3    H135861   1.238   5.062   2.915 -0.5188  0.3181 -1.5496
 4790TIP3    H235862   1.092   5.066   2.954 -0.0684 -1.2058  0.4431
 4791TIP3   OH235863   3.692   0.953   2.667 -0.2600  0.5008  0.4502
 4791TIP3    H135864   3.614   0.983   2.713  1.1227  1.6306  2.2221
 4791TIP3    H235865   3.687   0.858   2.670 -3.3648  0.3562 -2.8171
 4792TIP3   OH235866   3.291   5.298  15.721 -0.5578 -0.1393  0.0669
 4792TIP3    H135867   3.212   5.334  15.760 -0.4927  0.1719 -0.0816
 4792TIP3    H235868   3.360   5.360  15.745  0.0768 -1.5427  2.0764
 4793TIP3   OH235869   0.357   0.782  11.992 -0.2398 -0.1803 -0.1190
 4793TIP3    H135870   0.355   0.877  12.005 -1.6234 -0.0307 -1.1769
 4793TIP3    H235871   0.413   0.770  11.916 -1.4308 -0.0279 -1.0550
 4794TIP3   OH235872   1.071   0.189   3.553  0.1614  0.3254 -0.1328
 4794TIP3    H135873   1.043   0.263   3.499 -0.5076 -0.8629 -1.4571
 4794TIP3    H235874   1.158   0.167   3.520 -0.5923 -0.9402 -1.3435
 4795TIP3   OH235875   0.119   5.208   3.693 -0.9629 -0.2749 -0.2395
 4795TIP3    H135876   0.117   5.119   3.730  0.4264  1.0251  3.3651
 4795TIP3    H235877   0.041   5.251   3.729 -0.1355  0.7486  0.3776
 4796TIP3   OH235878   3.769   6.661   0.021 -0.2549 -0.3801  0.0924
 4796TIP3    H135879   3.708   6.730  -0.007 -1.7404 -1.2635  0.9929
 4796TIP3    H235880   3.797   6.688   0.108 -1.2761 -1.1350  0.6843
 4797TIP3   OH235881   6.047   3.397   6.951  0.0050  0.1523  0.6364
 4797TIP3    H135882   6.101   3.402   6.873 -1.8146  1.5094 -0.6058
 4797TIP3    H235883   6.015   3.486   6.964 -0.9620 -0.3662  2.0303
 4798TIP3   OH235884   1.460   2.394   4.776  0.3621 -0.1980 -0.3224
 4798TIP3    H135885   1.372   2.427   4.762  0.4788 -0.5691 -2.0921
 4798TIP3    H235886   1.449   2.325   4.843 -0.5149  0.4087  0.1800
 4799TIP3   OH235887   2.044   6.302  14.462  0.7056  1.1145  0.3279
 4799TIP3    H135888   2.071   6.289  14.553  2.3754  1.9660 -0.0016
 4799TIP3    H235889   2.126   6.316  14.415 -0.1842  1.4429 -1.1827
 4800TIP3   OH235890   6.326   0.202   0.736 -0.8069  0.0844  0.0896
 4800TIP3    H135891   6.392   0.251   0.786 -0.7483  0.1785 -0.0753
 4800TIP3    H235892   6.356   0.210   0.645  0.3363 -1.9778  0.2360
 4801TIP3   OH235893   1.675   4.134   1.420 -0.0755  0.5051 -0.1839
 4801TIP3    H135894   1.611   4.159   1.353  0.5082  3.1147  0.1255
 4801TIP3    H235895   1.647   4.179   1.499  1.4155  0.6684  0.2890
 4802TIP3   OH235896   3.833   5.873  14.630 -0.6292 -0.2626  0.6846
 4802TIP3    H135897   3.875   5.888  14.546 -1.1011 -0.1647  0.4597
 4802TIP3    H235898   3.764   5.809  14.611 -0.7774 -0.1947  0.9848
 4803TIP3   OH235899   0.041   1.744  11.921  0.0791  0.1957 -0.1345
 4803TIP3    H135900   0.026   1.836  11.943  0.8177 -0.1895  2.2338
 4803TIP3    H235901   0.008   1.695  11.996  1.8135 -1.3257 -0.2930
 4804TIP3   OH235902   3.558   2.861  11.749 -0.0640  0.0187  0.9445
 4804TIP3    H135903   3.632   2.840  11.692 -1.6362 -0.0868 -1.1879
 4804TIP3    H235904   3.515   2.777  11.765 -1.3047  0.3857 -0.2356
 4805TIP3   OH235905   2.282   0.691   3.589  0.1781 -0.3648 -0.4375
 4805TIP3    H135906   2.332   0.682   3.670 -0.3783  0.6911  0.0411
 4805TIP3    H235907   2.265   0.785   3.581 -0.5879 -0.5549 -1.2825
 4806TIP3   OH235908   4.828   2.247  16.769  0.3477 -0.4068  0.3118
 4806TIP3    H135909   4.827   2.184  16.842  1.7607  0.7484  1.3879
 4806TIP3    H235910   4.917   2.240  16.733  1.0699  2.0158  1.4436
 4807TIP3   OH235911   3.325   0.312   2.262  0.7155  0.5561  0.1505
 4807TIP3    H135912   3.281   0.229   2.243 -1.6169  1.9312 -0.9811
 4807TIP3    H235913   3.405   0.309   2.209 -0.0577 -0.4150 -1.0317
 4808TIP3   OH235914   4.647   4.470   4.775 -0.3462  0.1096 -0.3246
 4808TIP3    H135915   4.603   4.536   4.829  0.3368  0.0355  0.3451
 4808TIP3    H235916   4.578   4.408   4.753 -0.5374 -0.1906  0.9898
 4809TIP3   OH235917   0.714   5.835  12.738  0.3287 -0.9705 -0.0042
 4809TIP3    H135918   0.704   5.761  12.678 -0.7041 -1.5985  0.9151
 4809TIP3    H235919   0.702   5.797  12.825 -0.6046  0.3447  0.4710
 4810TIP3   OH235920   1.740   1.595   4.435 -0.0014 -0.1546 -0.0762
 4810TIP3    H135921   1.761   1.585   4.528 -1.4102  0.2926  0.3144
 4810TIP3    H235922   1.675   1.665   4.433 -1.0190 -1.1044 -1.2567
 4811TIP3   OH235923   0.734   5.566  14.483  0.4713 -0.1678 -0.1318
 4811TIP3    H135924   0.813   5.547  14.535 -0.3888  0.4694  1.4694
 4811TIP3    H235925   0.669   5.503  14.513 -0.3076  0.7779  0.2282
 4812TIP3   OH235926   3.053   5.619  10.304 -0.0868  0.3290 -0.0397
 4812TIP3    H135927   3.112   5.684  10.342 -2.1232  1.9162  0.6126
 4812TIP3    H235928   3.001   5.669  10.240 -1.6086 -0.6657  0.3656
 4813TIP3   OH235929   1.037   1.388   3.190  0.0655  0.2826  0.6327
 4813TIP3    H135930   0.942   1.382   3.188  0.1518 -1.7851  1.0443
 4813TIP3    H235931   1.067   1.300   3.213  2.1117  0.5979 -0.5330
 4814TIP3   OH235932   0.029   0.035  15.169 -0.3050  0.2081  0.4284
 4814TIP3    H135933   0.094  -0.032  15.191 -1.7324 -0.7707  1.8847
 4814TIP3    H235934   0.074   0.093  15.107  2.1596 -0.0663  1.8275
 4815TIP3   OH235935   3.421   3.163   4.719 -0.2270  0.5045 -0.0025
 4815TIP3    H135936   3.480   3.229   4.682  0.4634  0.8153  1.5657
 4815TIP3    H235937   3.477   3.087   4.734 -0.7408 -0.0068 -0.5966
 4816TIP3   OH235938   6.300   1.317  13.795 -0.5391  0.0690 -0.1950
 4816TIP3    H135939   6.208   1.342  13.805 -0.0242  1.9948  0.2345
 4816TIP3    H235940   6.300   1.250  13.727 -2.3396 -0.5797  0.3975
 4817TIP3   OH235941   5.342   2.784   3.380  0.6400  0.2035 -0.0412
 4817TIP3    H135942   5.311   2.790   3.470  0.0376  1.0314 -0.2947
 4817TIP3    H235943   5.364   2.692   3.369  0.3170  0.0097  0.8191
 4818TIP3   OH235944   3.338   4.603  15.685  0.1523  0.3244 -0.2771
 4818TIP3    H135945   3.380   4.663  15.747  1.9026 -0.3275 -0.7748
 4818TIP3    H235946   3.340   4.649  15.601  2.3118 -0.7056 -0.8522
 4819TIP3   OH235947   3.350   4.537  14.246  0.0486 -0.3775 -0.2122
 4819TIP3    H135948   3.325   4.509  14.334  1.4449 -1.5394 -0.1474
 4819TIP3    H235949   3.379   4.627  14.256 -5.7950  1.9651 -0.6217
 4820TIP3   OH235950   3.535   2.434  11.620  0.0483  0.1465  0.1084
 4820TIP3    H135951   3.594   2.378  11.671  0.9524 -1.1272 -2.1691
 4820TIP3    H235952   3.473   2.469  11.684  0.7612 -1.7787  1.9555
 4821TIP3   OH235953   5.126   5.176   6.565  0.1098  0.4974 -0.3316
 4821TIP3    H135954   5.199   5.115   6.576 -0.1729 -0.2704 -2.3330
 4821TIP3    H235955   5.168   5.261   6.552  0.5014  0.8944  2.7406
 4822TIP3   OH235956   5.097   1.923   2.413 -0.0827  0.3603  0.2467
 4822TIP3    H135957   5.028   1.977   2.374  0.5805  0.6029 -0.6116
 4822TIP3    H235958   5.159   1.985   2.451  0.2710  0.1861 -0.0332
 4823TIP3   OH235959   2.573   3.727   3.821 -0.2591 -0.0532  0.1794
 4823TIP3    H135960   2.489   3.745   3.779 -0.2374 -0.6058 -0.1043
 4823TIP3    H235961   2.563   3.759   3.911 -0.0656  1.8035 -0.4200
 4824TIP3   OH235962   5.639   0.575   3.054  0.0128 -0.2024  0.1622
 4824TIP3    H135963   5.704   0.505   3.046  0.4763  0.4339 -3.0196
 4824TIP3    H235964   5.558   0.536   3.022  0.2275  0.5716 -1.4289
 4825TIP3   OH235965   2.827   5.614   0.247 -0.1360 -0.3139  0.3904
 4825TIP3    H135966   2.767   5.540   0.238 -0.7722  0.2962 -0.6595
 4825TIP3    H235967   2.904   5.590   0.196 -0.6699  0.0541 -0.6174
 4826TIP3   OH235968   4.730   4.781   1.821  0.5079  0.4898  0.4633
 4826TIP3    H135969   4.775   4.819   1.896  0.1778  1.8023  0.0188
 4826TIP3    H235970   4.644   4.823   1.820 -0.1517 -0.8159  0.3750
 4827TIP3   OH235971   4.114   3.901   0.726 -0.0367  0.1574  0.5206
 4827TIP3    H135972   4.095   3.828   0.785  0.5226  0.6738  1.3560
 4827TIP3    H235973   4.141   3.972   0.783  0.0074  0.8404 -0.3288
 4828TIP3   OH235974   3.889   6.703  13.158 -0.1099  0.0228 -0.5237
 4828TIP3    H135975   3.902   6.650  13.237  0.0394 -1.5206 -1.5339
 4828TIP3    H235976   3.797   6.689  13.136  0.2536 -0.9031 -1.5277
 4829TIP3   OH235977   4.229   1.103  11.257 -0.0634 -0.0243 -0.0347
 4829TIP3    H135978   4.143   1.136  11.284  0.2898  0.5230  0.4181
 4829TIP3    H235979   4.280   1.097  11.337  0.2356 -0.6334 -0.2610
 4830TIP3   OH235980   1.934   1.832  12.209 -0.2453  0.4889  0.0158
 4830TIP3    H135981   1.850   1.864  12.178  0.0426  0.8269 -0.4320
 4830TIP3    H235982   1.969   1.903  12.263 -0.3184  0.2864  0.3292
 4831TIP3   OH235983   1.875   1.804  13.304  0.8117  0.1668  0.2217
 4831TIP3    H135984   1.817   1.876  13.327  1.6280  0.7782  0.4175
 4831TIP3    H235985   1.824   1.750  13.244 -1.4604 -1.4935  3.3427
 4832TIP3   OH235986   3.985   5.326  13.849  0.1901 -0.0021  0.3539
 4832TIP3    H135987   3.954   5.410  13.816  2.1018  0.8208  0.5454
 4832TIP3    H235988   4.062   5.347  13.901  2.2092 -2.0588 -1.5918
 4833TIP3   OH235989   1.678   0.520  13.561 -0.1976 -0.2842  0.4501
 4833TIP3    H135990   1.615   0.544  13.493  1.2149  0.6856 -0.5680
 4833TIP3    H235991   1.751   0.481  13.513  1.2179  1.2423  1.2913
 4834TIP3   OH235992   6.457   5.627   5.280  0.0407 -0.8359 -0.5836
 4834TIP3    H135993   6.375   5.592   5.314  0.7059 -0.7963  1.1987
 4834TIP3    H235994   6.431   5.693   5.216 -1.3816  0.1612  0.9328
 4835TIP3   OH235995   4.097   4.695  10.468  0.0232 -0.3508  0.6087
 4835TIP3    H135996   4.099   4.623  10.531  1.5968 -0.7960  0.1009
 4835TIP3    H235997   4.030   4.754  10.501  1.1229 -0.3182  3.0083
 4836TIP3   OH235998   4.551   0.250  10.928 -0.2748 -0.5664  0.3837
 4836TIP3    H135999   4.531   0.161  10.899 -0.7059 -1.0202  1.9688
 4836TIP3    H236000   4.645   0.248  10.946  0.3855  0.2183 -2.5099
 4837TIP3   OH236001   2.579   3.515  15.440 -0.0342  0.2846 -0.3915
 4837TIP3    H136002   2.525   3.553  15.371  0.5489  0.5929 -0.6846
 4837TIP3    H236003   2.628   3.445  15.396 -2.0391 -1.7359  0.3993
 4838TIP3   OH236004   4.871   0.596   4.316 -0.4082 -0.3202 -0.0907
 4838TIP3    H136005   4.849   0.642   4.235 -0.6191 -2.0540 -1.0637
 4838TIP3    H236006   4.941   0.649   4.355 -0.0458  0.3624 -1.5882
 4839TIP3   OH236007   5.507   5.234  12.228  0.0988 -0.0166 -0.5108
 4839TIP3    H136008   5.589   5.251  12.274  0.1974 -0.0203 -0.6845
 4839TIP3    H236009   5.502   5.138  12.224  0.4616 -0.0144 -1.1650
 4840TIP3   OH236010   0.684   4.038   2.794  0.0401  0.3029 -0.2169
 4840TIP3    H136011   0.688   4.128   2.764 -1.0610  0.1844 -0.7653
 4840TIP3    H236012   0.606   4.001   2.752  0.1706 -0.7504  0.4046
 4841TIP3   OH236013   0.146   4.307  11.265 -0.5122 -0.2411 -0.1795
 4841TIP3    H136014   0.060   4.346  11.273 -0.6285 -0.4111 -0.5871
 4841TIP3    H236015   0.177   4.332  11.177 -0.5257 -0.9233 -0.3836
 4842TIP3   OH236016   6.633   4.050  15.385 -0.4806  0.2022 -0.4044
 4842TIP3    H136017   6.694   3.977  15.386 -1.3169 -0.5118 -0.4764
 4842TIP3    H236018   6.582   4.040  15.465 -0.9171  0.4265 -0.6476
 4843TIP3   OH236019   4.866   2.180   2.653 -0.5687 -0.6009  0.1423
 4843TIP3    H136020   4.941   2.224   2.613 -0.2176  0.6880  2.0724
 4843TIP3    H236021   4.849   2.229   2.733 -0.4912 -3.6943  2.2229
 4844TIP3   OH236022   3.740   1.866  10.626  0.4145 -0.0397 -0.2527
 4844TIP3    H136023   3.686   1.935  10.665  0.4558  0.3769 -0.9157
 4844TIP3    H236024   3.823   1.910  10.604  0.5286 -0.3579 -0.4644
 4845TIP3   OH236025   0.144   5.567  13.354  0.1202 -0.2913  0.4663
 4845TIP3    H136026   0.167   5.612  13.273  1.1336  0.2844  1.0379
 4845TIP3    H236027   0.147   5.636  13.421  0.3599 -0.9475  1.1522
 4846TIP3   OH236028   5.015   0.804   2.065 -0.0919 -0.0897 -0.5134
 4846TIP3    H136029   4.971   0.866   2.122  2.5584 -0.9003  2.7220
 4846TIP3    H236030   4.984   0.718   2.094  0.0155 -0.4846 -1.5163
 4847TIP3   OH236031   0.463   1.419  15.752  0.2478 -0.4330 -0.3869
 4847TIP3    H136032   0.533   1.363  15.784 -1.2786 -2.2479 -0.0713
 4847TIP3    H236033   0.498   1.508  15.761  1.1237 -0.9973  3.3592
 4848TIP3   OH236034   0.494   3.676   4.745  0.4299  0.3559  0.1034
 4848TIP3    H136035   0.504   3.659   4.651  2.0295  0.9555  0.1367
 4848TIP3    H236036   0.537   3.602   4.788 -0.2731  0.0977  0.3853
 4849TIP3   OH236037   4.728   5.934   1.136 -0.7108 -0.4011 -0.1629
 4849TIP3    H136038   4.666   5.927   1.062  1.3567  0.9852 -2.1607
 4849TIP3    H236039   4.756   5.844   1.152 -0.3485 -0.6377 -1.9059
 4850TIP3   OH236040   0.488   2.261   5.747  0.1256  0.3859 -0.0766
 4850TIP3    H136041   0.508   2.233   5.836 -0.4916 -1.0156 -0.3631
 4850TIP3    H236042   0.413   2.209   5.721  1.3297 -0.4993 -2.0221
 4851TIP3   OH236043   0.805   1.202  14.549  0.3979  0.0098 -0.3770
 4851TIP3    H136044   0.741   1.268  14.523 -0.5046 -1.5300 -2.3312
 4851TIP3    H236045   0.885   1.252  14.567 -0.7943  1.7968  0.2253
 4852TIP3   OH236046   5.526   4.128  15.190 -0.5115  0.1227 -0.1120
 4852TIP3    H136047   5.470   4.203  15.210  0.6052  0.5049  1.8186
 4852TIP3    H236048   5.533   4.128  15.095 -2.7744  0.7709 -0.3549
 4853TIP3   OH236049   4.764   6.105  15.330  0.3519  0.1845  0.4375
 4853TIP3    H136050   4.693   6.046  15.305  0.2832 -0.4712  2.0962
 4853TIP3    H236051   4.763   6.106  15.425  1.4678  1.5295  0.4709
 4854TIP3   OH236052   0.812   0.245  16.308  0.0144 -0.1012 -0.0590
 4854TIP3    H136053   0.816   0.242  16.212 -0.3335 -0.7059 -0.0629
 4854TIP3    H236054   0.720   0.263  16.327  0.2293  0.8146  0.1593
 4855TIP3   OH236055   4.696   3.023   2.290  0.0483  0.2450  0.5224
 4855TIP3    H136056   4.778   3.053   2.250  0.1907 -0.1516  0.5106
 4855TIP3    H236057   4.710   3.034   2.384  0.5637 -0.9145  0.5939
 4856TIP3   OH236058   2.058   4.187  11.994  0.2411 -0.0955  0.1263
 4856TIP3    H136059   2.085   4.098  11.973 -0.0388  0.1567 -1.4228
 4856TIP3    H236060   2.046   4.230  11.909  2.2603  2.0214  0.7762
 4857TIP3   OH236061   3.848   0.797   5.351  0.0904 -0.4647 -0.9931
 4857TIP3    H136062   3.867   0.720   5.296 -0.0468 -2.3056  1.3935
 4857TIP3    H236063   3.802   0.857   5.292  0.0583 -2.2584 -2.9313
 4858TIP3   OH236064   5.110   5.653  11.186 -0.3348 -0.6706  0.1269
 4858TIP3    H136065   5.174   5.589  11.217 -1.2631 -1.8354 -0.3165
 4858TIP3    H236066   5.156   5.701  11.117  0.6742 -0.1953  1.0917
 4859TIP3   OH236067   3.944   4.989  13.595  0.1883 -0.3899  0.3150
 4859TIP3    H136068   3.912   4.936  13.668 -1.0041 -0.7407 -0.4471
 4859TIP3    H236069   3.959   4.927  13.525 -0.4022  0.1637 -0.3162
 4860TIP3   OH236070   2.714   5.529   2.762  0.5885  0.4424  0.2941
 4860TIP3    H136071   2.721   5.520   2.667  1.3102 -0.5483  0.4278
 4860TIP3    H236072   2.734   5.621   2.779  1.3950  0.4102 -0.4329
 4861TIP3   OH236073   4.024   5.866  15.564 -0.2126 -0.3259  0.0504
 4861TIP3    H136074   4.042   5.943  15.511  2.6689 -1.0598 -0.1855
 4861TIP3    H236075   3.952   5.893  15.622  0.0607  2.1839 -0.6725
 4862TIP3   OH236076   3.117   0.807   5.167 -0.2420 -0.3644 -0.2540
 4862TIP3    H136077   3.041   0.778   5.116  1.8923 -0.2646 -3.8267
 4862TIP3    H236078   3.132   0.897   5.138 -0.2877  0.6259  2.4992
 4863TIP3   OH236079   2.430   0.219  12.253 -0.1067  0.4014  0.1083
 4863TIP3    H136080   2.377   0.246  12.178 -0.0365  0.8778  0.2220
 4863TIP3    H236081   2.377   0.240  12.330 -0.2533 -0.2532  0.1898
 4864TIP3   OH236082   1.769   3.600  12.690 -0.1850 -0.7713 -0.4499
 4864TIP3    H136083   1.797   3.563  12.606 -1.6330  1.7494 -2.1512
 4864TIP3    H236084   1.740   3.689  12.670  0.9232  0.5571  3.0189
 4865TIP3   OH236085   6.489   2.501  14.530 -0.0192 -0.0881  0.6092
 4865TIP3    H136086   6.496   2.589  14.567 -0.1558  0.6547 -1.0498
 4865TIP3    H236087   6.479   2.515  14.436 -0.3264 -1.8757  0.3377
 4866TIP3   OH236088   6.254   4.680   2.621 -0.0410  0.4024  0.6195
 4866TIP3    H136089   6.237   4.774   2.626 -1.2557  0.1615  1.4853
 4866TIP3    H236090   6.343   4.670   2.656 -0.0143  1.2006  0.7971
 4867TIP3   OH236091   3.833   0.647  16.403  0.4087 -0.1523 -0.2466
 4867TIP3    H136092   3.838   0.713  16.472 -0.0347  2.8613 -2.8454
 4867TIP3    H236093   3.925   0.627  16.383  0.6237  1.1417 -0.6489
 4868TIP3   OH236094   3.188   1.170  16.420  0.0367  0.0515  0.3680
 4868TIP3    H136095   3.202   1.170  16.515 -0.6465  0.4235  0.4738
 4868TIP3    H236096   3.109   1.222  16.408 -0.3726 -0.7221 -0.3318
 4869TIP3   OH236097   2.276   0.177   4.121  0.0299 -0.6845  0.4931
 4869TIP3    H136098   2.188   0.167   4.158  0.1746  1.8389  1.8267
 4869TIP3    H236099   2.335   0.159   4.195  0.4300  1.3865  0.7604
 4870TIP3   OH236100   5.052   0.221   0.737  0.0843  0.1628  0.1453
 4870TIP3    H136101   5.004   0.304   0.748  1.3831  1.0249 -0.4669
 4870TIP3    H236102   5.134   0.235   0.786 -0.1180 -1.1626  0.9017
 4871TIP3   OH236103   6.793   2.886  14.340 -0.0317  0.0808  0.2887
 4871TIP3    H136104   6.819   2.977  14.351 -1.4131  0.5653 -0.3033
 4871TIP3    H236105   6.711   2.890  14.292 -0.0196 -1.4910  0.0916
 4872TIP3   OH236106   1.710   2.676   5.258 -0.3903 -0.0384 -0.0780
 4872TIP3    H136107   1.667   2.693   5.175  1.3173  0.5218 -0.9061
 4872TIP3    H236108   1.747   2.761   5.284  1.3761 -0.7326 -0.1460
 4873TIP3   OH236109   1.283   0.534  15.144  0.2178 -0.4319 -0.3978
 4873TIP3    H136110   1.361   0.552  15.091 -0.0814  1.6625 -0.2034
 4873TIP3    H236111   1.316   0.489  15.222  1.3288  0.8649 -0.0844
 4874TIP3   OH236112   4.704   4.980   5.136 -0.4930  0.0144  0.3756
 4874TIP3    H136113   4.671   5.049   5.193  0.4671 -0.4000  1.4724
 4874TIP3    H236114   4.698   5.017   5.048 -1.4121  0.9054  0.7952
 4875TIP3   OH236115   1.929   3.236   4.946 -0.1232  0.1346  0.6357
 4875TIP3    H136116   2.007   3.291   4.953 -1.4770  2.2537  0.2052
 4875TIP3    H236117   1.870   3.270   5.014 -0.8639 -1.0891  0.6260
 4876TIP3   OH236118   1.039   6.498  13.957 -0.3847  0.0700 -0.4376
 4876TIP3    H136119   1.041   6.503  13.862  1.2031  1.5986 -0.3696
 4876TIP3    H236120   0.996   6.578  13.985  0.4002  0.3113  0.1395
 4877TIP3   OH236121   1.424   2.144   4.152  0.4897 -0.5726 -0.0459
 4877TIP3    H136122   1.501   2.183   4.110  1.1441 -2.6924 -0.9183
 4877TIP3    H236123   1.455   2.063   4.190 -0.9198 -0.5040  1.3552
 4878TIP3   OH236124   1.635   5.869  13.230  0.5035  0.1811  0.1792
 4878TIP3    H136125   1.627   5.856  13.325 -4.3255  0.1998 -0.0056
 4878TIP3    H236126   1.691   5.946  13.222  0.0191  0.9969  3.1204
 4879TIP3   OH236127   5.127   3.967   5.660  0.0534 -0.1022 -0.3207
 4879TIP3    H136128   5.036   3.972   5.688 -0.2797 -2.2911 -0.7838
 4879TIP3    H236129   5.141   4.046   5.608 -1.6282  0.1900 -0.3749
 4880TIP3   OH236130   1.394   0.951   1.354 -0.7153 -0.1206 -0.0962
 4880TIP3    H136131   1.326   0.884   1.354 -0.3210 -0.6290  2.4111
 4880TIP3    H236132   1.373   1.006   1.430  2.7455 -1.5370  2.1048
 4881TIP3   OH236133   3.532   1.254  15.619  0.1627  0.4092  0.6156
 4881TIP3    H136134   3.459   1.233  15.677 -0.3603  1.0825  0.2178
 4881TIP3    H236135   3.586   1.314  15.669  1.1400 -1.0705  1.3884
 4882TIP3   OH236136   0.054   3.743   0.138  0.0709 -0.5279 -0.3517
 4882TIP3    H136137   0.087   3.725   0.050 -1.6302  1.7269 -1.5654
 4882TIP3    H236138   0.092   3.829   0.160 -1.5439  0.1347 -0.0246
 4883TIP3   OH236139   5.309   0.685   6.104 -0.2596  0.1742  0.5863
 4883TIP3    H136140   5.376   0.621   6.084 -0.9527  0.2176 -2.4218
 4883TIP3    H236141   5.232   0.633   6.129 -0.9631 -0.3415 -2.2921
 4884TIP3   OH236142   0.543   3.860  13.410 -0.2560 -0.7712  0.0955
 4884TIP3    H136143   0.537   3.876  13.316 -2.8570  2.4982  0.6081
 4884TIP3    H236144   0.456   3.881  13.444  1.0484  0.0031  3.4415
 4885TIP3   OH236145   6.691   3.775  15.562 -0.4637  0.5463  0.4940
 4885TIP3    H136146   6.617   3.806  15.615 -0.6245  1.6648 -0.3630
 4885TIP3    H236147   6.704   3.685  15.591 -1.6755  0.5703  1.1943
 4886TIP3   OH236148   6.281   5.768  16.632 -0.5962 -0.8369  0.8155
 4886TIP3    H136149   6.230   5.757  16.712  0.6916  0.7323  1.9194
 4886TIP3    H236150   6.283   5.681  16.592  0.0169 -2.0412  3.2854
 4887TIP3   OH236151   5.485   6.521  13.864 -0.1670  0.3840 -0.6903
 4887TIP3    H136152   5.552   6.473  13.914  1.1526  2.4571 -0.3350
 4887TIP3    H236153   5.529   6.601  13.836 -2.1956  1.3129 -1.4191
 4888TIP3   OH236154   4.955   1.321  15.434  0.2857  0.3368 -0.3195
 4888TIP3    H136155   4.971   1.325  15.528  1.6778  0.3613 -0.5215
 4888TIP3    H236156   4.927   1.231  15.417  0.7929  0.1107  0.0277
 4889TIP3   OH236157   5.442   1.527  13.726 -0.0733 -0.3967  0.3283
 4889TIP3    H136158   5.454   1.539  13.632 -0.3731 -0.7708  0.2371
 4889TIP3    H236159   5.359   1.479  13.733 -0.4365  0.2884  0.8174
 4890TIP3   OH236160   3.497   0.149  15.663  0.2188  0.2782  0.4784
 4890TIP3    H136161   3.507   0.120  15.572  0.7322  0.0353  0.6075
 4890TIP3    H236162   3.515   0.070  15.715  1.9141  0.8555  0.8430
 4891TIP3   OH236163   0.117   0.374  15.396  0.0322  1.2770 -0.3684
 4891TIP3    H136164   0.028   0.347  15.420  0.9270 -2.8535 -0.9593
 4891TIP3    H236165   0.110   0.402  15.304 -0.6470  1.0117 -0.4023
 4892TIP3   OH236166   4.478   0.065   1.348  0.0321 -0.3750  0.5806
 4892TIP3    H136167   4.515   0.148   1.378  1.9557 -0.5784 -0.9977
 4892TIP3    H236168   4.554   0.008   1.334 -1.1953 -2.2849  1.1770
 4893TIP3   OH236169   3.675   2.435   4.744  0.4486 -0.2874  0.0804
 4893TIP3    H136170   3.712   2.523   4.740  0.5472 -0.3126  0.3739
 4893TIP3    H236171   3.749   2.377   4.728  0.2586 -0.3013 -0.7596
 4894TIP3   OH236172   4.158   0.629   1.636  0.2353 -0.2141 -0.3279
 4894TIP3    H136173   4.203   0.708   1.606 -0.4957 -0.0910 -1.1423
 4894TIP3    H236174   4.171   0.628   1.731 -0.2194  1.1944 -0.2294
 4895TIP3   OH236175   0.785   5.295   5.293  0.1996 -0.6508  0.2738
 4895TIP3    H136176   0.774   5.296   5.388 -0.5342 -0.8372  0.1967
 4895TIP3    H236177   0.840   5.371   5.274 -0.0275 -0.3492  0.8038
 4896TIP3   OH236178   1.437   3.149  10.376 -0.3046  0.2476  0.1572
 4896TIP3    H136179   1.390   3.066  10.378 -0.7669  0.4901 -0.2901
 4896TIP3    H236180   1.501   3.143  10.446  0.5566 -1.0011 -0.6971
 4897TIP3   OH236181   2.398   0.988  12.669  0.6316 -0.4375  0.1219
 4897TIP3    H136182   2.482   0.942  12.676  0.7135 -0.4792 -1.0451
 4897TIP3    H236183   2.364   0.964  12.583 -1.1890 -1.4273  1.0526
 4898TIP3   OH236184   3.476   6.179  12.686  0.2554 -0.8742 -0.2740
 4898TIP3    H136185   3.425   6.103  12.715  0.3635  0.1591  3.1413
 4898TIP3    H236186   3.552   6.141  12.643 -0.7390 -2.6225 -0.5934
 4899TIP3   OH236187   2.575   6.639   0.847 -0.0684  0.9290  0.1983
 4899TIP3    H136188   2.484   6.637   0.819  0.3118  0.6895 -1.0775
 4899TIP3    H236189   2.575   6.591   0.931 -1.2277  1.6437  0.6291
 4900TIP3   OH236190   6.586   3.091  16.036 -0.3979 -0.6193  0.2710
 4900TIP3    H136191   6.607   3.160  16.100  4.2679 -1.2805 -0.1575
 4900TIP3    H236192   6.595   3.010  16.086  0.3961 -1.0518 -0.5534
 4901TIP3   OH236193   0.347   3.548  15.629 -0.2021  0.2540 -0.2660
 4901TIP3    H136194   0.401   3.555  15.708 -0.1322  0.1457 -0.3033
 4901TIP3    H236195   0.364   3.460  15.596 -1.0934 -0.1178  0.2271
 4902TIP3   OH236196   6.802   0.790   3.903 -0.2996  0.2789  0.6949
 4902TIP3    H136197   6.718   0.836   3.903 -0.1896  0.4849  1.3258
 4902TIP3    H236198   6.861   0.847   3.853  0.2909  1.7119  2.8503
 4903TIP3   OH236199   4.310   1.052  11.808  0.0101 -0.2578  0.2165
 4903TIP3    H136200   4.237   1.012  11.761 -0.2858 -0.8846  1.1892
 4903TIP3    H236201   4.273   1.133  11.844 -0.5070 -1.0622  1.5463
 4904TIP3   OH236202   5.235   6.075   0.899 -1.1555  0.6556  0.3501
 4904TIP3    H136203   5.258   6.061   0.808  0.3571 -1.1787  0.9727
 4904TIP3    H236204   5.168   6.008   0.918  0.2833 -0.6048  1.1875
 4905TIP3   OH236205   5.730   5.863  14.337  0.7445  0.3408 -0.1393
 4905TIP3    H136206   5.675   5.820  14.403  2.0269 -0.0519  0.7044
 4905TIP3    H236207   5.703   5.824  14.254 -2.4958  2.4363 -0.2428
 4906TIP3   OH236208   4.792   1.766  10.525 -0.6361 -0.2398 -0.1253
 4906TIP3    H136209   4.810   1.738  10.435 -1.7904  0.7099 -0.6771
 4906TIP3    H236210   4.697   1.762  10.533 -0.4880 -1.6095  1.5206
 4907TIP3   OH236211   6.191   2.847   4.062 -0.2535 -0.1537  0.7533
 4907TIP3    H136212   6.233   2.932   4.043  0.1658 -1.1330 -3.6952
 4907TIP3    H236213   6.262   2.783   4.053 -1.5201 -1.3616 -1.2518
 4908TIP3   OH236214   3.240   6.751   1.370  0.3466 -0.4498 -0.4475
 4908TIP3    H136215   3.157   6.733   1.414  0.2316 -1.9763 -1.2371
 4908TIP3    H236216   3.272   6.665   1.342  2.1322  0.1175 -0.2824
 4909TIP3   OH236217   2.756   6.719  15.724  0.4581 -0.1838 -0.1133
 4909TIP3    H136218   2.713   6.634  15.717  0.2551 -0.0934  0.0405
 4909TIP3    H236219   2.810   6.712  15.804  1.1982 -0.5069 -0.6292
 4910TIP3   OH236220   6.328   1.342  15.251  1.0060  0.4916 -0.2904
 4910TIP3    H136221   6.408   1.387  15.278  0.5358  1.2360 -0.1287
 4910TIP3    H236222   6.341   1.251  15.279  1.7969  0.6040 -0.2726
 4911TIP3   OH236223   1.016   4.165  11.294 -0.4195 -0.2106 -0.5918
 4911TIP3    H136224   1.077   4.223  11.339 -0.6561 -0.4509  0.0531
 4911TIP3    H236225   1.066   4.133  11.219 -0.1823  0.5739 -0.7786
 4912TIP3   OH236226   2.115   2.633   2.131  0.1977  0.0654 -0.0237
 4912TIP3    H136227   2.207   2.618   2.155  0.3811  0.3512 -0.5148
 4912TIP3    H236228   2.119   2.708   2.072 -0.3168 -0.1405 -0.3210
 4913TIP3   OH236229   5.239   1.025   2.385 -0.8727 -0.3694  0.2716
 4913TIP3    H136230   5.282   0.971   2.450  3.2195  0.3534 -1.5424
 4913TIP3    H236231   5.247   1.115   2.418  0.4190 -0.0928 -0.6991
 4914TIP3   OH236232   4.065   1.842   2.030  0.2595  0.3648  0.3322
 4914TIP3    H136233   4.006   1.844   2.105  0.8511  3.0178  0.8265
 4914TIP3    H236234   4.143   1.797   2.062 -0.3171 -0.4752  0.5926
 4915TIP3   OH236235   6.076   1.832  17.036  0.4489 -0.3179 -0.3224
 4915TIP3    H136236   6.165   1.864  17.024  0.3006  1.1799  2.0852
 4915TIP3    H236237   6.069   1.814  17.130 -2.3238  1.4079 -0.0930
 4916TIP3   OH236238   6.828   1.061  14.287 -0.3641  0.0854  0.0996
 4916TIP3    H136239   6.829   1.132  14.224 -2.1136 -0.6906 -0.8634
 4916TIP3    H236240   6.763   1.087  14.352 -1.0877 -0.6576 -0.3128
 4917TIP3   OH236241   5.263   3.854  14.151  0.7612 -0.3327 -0.2370
 4917TIP3    H136242   5.287   3.868  14.059  1.1821 -0.2097 -0.1117
 4917TIP3    H236243   5.259   3.943  14.188 -1.5147 -0.2051 -0.6382
 4918TIP3   OH236244   0.965   4.888  15.931 -0.0881  0.1510 -0.2036
 4918TIP3    H136245   0.893   4.945  15.904 -1.0121 -0.8125  0.1444
 4918TIP3    H236246   1.042   4.922  15.885 -0.7714  1.1790 -0.6124
 4919TIP3   OH236247   1.549   1.905  15.536 -0.0019  0.0682  0.1036
 4919TIP3    H136248   1.571   1.912  15.629  2.2904  1.3325 -0.4411
 4919TIP3    H236249   1.545   1.811  15.519 -2.0645 -0.2177  1.7548
 4920TIP3   OH236250   2.561   4.717  15.575 -0.5094  0.3776 -0.3363
 4920TIP3    H136251   2.630   4.696  15.638  0.2787  1.6170 -0.7298
 4920TIP3    H236252   2.496   4.648  15.585  1.2006 -1.3594 -0.5636
 4921TIP3   OH236253   6.058   0.388  11.843  0.2671 -0.3089  0.4097
 4921TIP3    H136254   5.966   0.371  11.860  0.0805 -0.2750 -0.4881
 4921TIP3    H236255   6.058   0.463  11.784  0.8483 -0.5498  0.0891
 4922TIP3   OH236256   1.231   1.448  12.074  0.5428  0.3724  0.4966
 4922TIP3    H136257   1.233   1.359  12.037  0.3796  0.1755  0.9481
 4922TIP3    H236258   1.237   1.434  12.169 -1.0662  0.7518  0.6867
 4923TIP3   OH236259   6.619   4.548  11.932  0.3372  0.1979  0.2474
 4923TIP3    H136260   6.639   4.614  11.866  0.4506 -0.3994 -0.3338
 4923TIP3    H236261   6.691   4.485  11.925  0.4253  0.1938  1.0448
 4924TIP3   OH236262   3.204   3.224  10.899  0.6164 -0.6206  0.0047
 4924TIP3    H136263   3.258   3.194  10.825  1.2971 -2.3549  1.1366
 4924TIP3    H236264   3.241   3.310  10.921 -0.3347  0.4868 -2.3252
 4925TIP3   OH236265   3.453   2.518   0.231 -0.1156  0.1884 -0.3918
 4925TIP3    H136266   3.374   2.465   0.223  0.4463 -0.7531  0.1255
 4925TIP3    H236267   3.437   2.594   0.175 -1.6673  0.3729  0.2621
 4926TIP3   OH236268   4.439   3.743  15.365  0.6461  0.3436  0.3309
 4926TIP3    H136269   4.464   3.833  15.342  0.4387  0.1329 -0.7582
 4926TIP3    H236270   4.488   3.688  15.303 -0.6123 -0.1957 -0.2018
 4927TIP3   OH236271   4.450   0.180  10.595  0.5476  0.6511 -0.0631
 4927TIP3    H136272   4.511   0.181  10.521 -0.4186  1.3131 -0.8857
 4927TIP3    H236273   4.504   0.162  10.671  1.5438 -0.3039 -0.9607
 4928TIP3   OH236274   5.100   4.208  14.909 -0.7978  0.3936  0.0990
 4928TIP3    H136275   5.155   4.130  14.907  0.2726  1.1431 -0.8800
 4928TIP3    H236276   5.011   4.174  14.894 -0.2459 -0.5560 -1.2729
 4929TIP3   OH236277   3.796   4.241   3.041  0.1553  0.2155 -0.2747
 4929TIP3    H136278   3.759   4.274   2.959 -0.6556 -1.3861 -0.6096
 4929TIP3    H236279   3.721   4.235   3.101 -0.1102 -2.3641 -0.7213
 4930TIP3   OH236280   4.589   1.063   0.186  0.2254  0.0548  0.1435
 4930TIP3    H136281   4.607   1.145   0.140 -0.4717  1.2247  1.8775
 4930TIP3    H236282   4.676   1.029   0.208  0.5352  0.0540 -0.9876
 4931TIP3   OH236283   1.605   3.388   1.148  0.4749 -0.5282  0.1806
 4931TIP3    H136284   1.561   3.468   1.179  0.1466 -0.0363 -1.4510
 4931TIP3    H236285   1.698   3.402   1.167  0.4166  0.2439 -0.0901
 4932TIP3   OH236286   1.135   5.784   3.117 -0.8374 -0.1447  0.3737
 4932TIP3    H136287   1.187   5.713   3.155 -0.2904 -0.4192 -0.8452
 4932TIP3    H236288   1.174   5.799   3.031 -2.2775  0.1687 -0.2573
 4933TIP3   OH236289   2.314   2.799  15.960  0.4844  0.6894 -0.2583
 4933TIP3    H136290   2.258   2.876  15.966  1.8058  1.6787 -0.3125
 4933TIP3    H236291   2.401   2.833  15.939  0.9929 -0.8526 -0.8286
 4934TIP3   OH236292   2.706   5.475   2.492 -0.4653 -0.3811 -0.2447
 4934TIP3    H136293   2.647   5.540   2.453  0.5798  1.1974  0.6999
 4934TIP3    H236294   2.741   5.426   2.417 -0.7384  0.6230 -1.0531
 4935TIP3   OH236295   4.489   2.952  17.144  0.3012  0.3133 -0.2067
 4935TIP3    H136296   4.455   2.997  17.067 -1.6555 -0.4700  0.1295
 4935TIP3    H236297   4.574   2.917  17.116  1.4221  3.1984 -0.7876
 4936TIP3   OH236298   0.551   4.993   2.388  0.6980  0.3105 -0.4600
 4936TIP3    H136299   0.549   4.991   2.484 -0.3529 -0.5376 -0.4828
 4936TIP3    H236300   0.464   4.964   2.362  1.2631 -0.3193 -1.6962
 4937TIP3   OH236301   1.303   4.302  15.028 -0.3146  0.4017 -0.4732
 4937TIP3    H136302   1.303   4.392  15.061 -4.2399  0.7360 -0.8250
 4937TIP3    H236303   1.279   4.311  14.935  0.1275 -0.9933 -0.7428
 4938TIP3   OH236304   4.212   1.742  11.389  0.4345  0.0334  0.2319
 4938TIP3    H136305   4.118   1.748  11.375  0.0481  0.0463  2.3904
 4938TIP3    H236306   4.250   1.805  11.328 -0.9675  0.1851 -0.5213
 4939TIP3   OH236307   4.933   5.465   0.103 -0.6735  0.3794 -0.1932
 4939TIP3    H136308   4.845   5.492   0.077 -0.6547  0.5403 -0.0971
 4939TIP3    H236309   4.983   5.547   0.104 -0.0605  0.0655 -1.9943
 4940TIP3   OH236310   6.202   1.359  15.796  0.0067 -0.2110 -0.5426
 4940TIP3    H136311   6.161   1.288  15.845  0.1836  0.0838  0.0357
 4940TIP3    H236312   6.140   1.379  15.726 -0.2338 -0.6455 -0.4576
 4941TIP3   OH236313   5.336   1.691  15.558 -0.0282 -0.2490  0.1628
 4941TIP3    H136314   5.408   1.632  15.536  1.6151  2.1004 -1.1451
 4941TIP3    H236315   5.320   1.675  15.651  1.1476 -1.8509  0.1340
 4942TIP3   OH236316   5.085   4.422  15.058  0.3875 -0.1487 -0.2408
 4942TIP3    H136317   5.049   4.383  15.137 -0.3319 -0.6269 -0.7842
 4942TIP3    H236318   5.096   4.349  14.997  1.5902  0.1069 -0.3534
 4943TIP3   OH236319   1.239   0.453  12.026 -0.0217 -0.1922 -0.2403
 4943TIP3    H136320   1.228   0.532  12.078 -0.8498 -1.2714  1.3066
 4943TIP3    H236321   1.318   0.469  11.974  0.9027  0.9348  1.4119
 4944TIP3   OH236322   1.789   0.309  10.842 -0.1666 -0.1643  0.4133
 4944TIP3    H136323   1.710   0.284  10.795  0.6509 -2.7458  0.2763
 4944TIP3    H236324   1.842   0.356  10.777 -1.0421  0.5339  0.1814
 4945TIP3   OH236325   3.126   3.417   2.853 -0.3654  0.5100 -0.4159
 4945TIP3    H136326   3.084   3.369   2.782 -1.2283 -0.4431  0.7061
 4945TIP3    H236327   3.178   3.352   2.899 -0.1300  1.0320  0.0736
 4946TIP3   OH236328   0.386   0.259   2.846 -0.0822 -0.1740  0.0675
 4946TIP3    H136329   0.316   0.214   2.893 -0.4481  1.0829  0.7587
 4946TIP3    H236330   0.461   0.199   2.853 -1.2647 -1.9161 -1.4069
 4947TIP3   OH236331   1.152   2.567  13.862  0.6597 -0.1687  0.1826
 4947TIP3    H136332   1.154   2.648  13.914  1.4726  0.1385 -0.3057
 4947TIP3    H236333   1.163   2.497  13.926 -0.8082  0.0430  0.7033
 4948TIP3   OH236334   4.196   1.351   1.226 -0.0297  0.1653  0.1044
 4948TIP3    H136335   4.225   1.281   1.168 -2.2390  0.4879 -1.5272
 4948TIP3    H236336   4.217   1.432   1.178 -0.2647  0.5064  0.5722
 4949TIP3   OH236337   0.397   0.450  13.968 -0.6227  0.0890  0.3612
 4949TIP3    H136338   0.363   0.361  13.973  0.1933 -0.2951 -0.5213
 4949TIP3    H236339   0.376   0.479  13.879  0.3102  0.2575  0.1845
 4950TIP3   OH236340   2.114   2.458  12.093  0.4527  0.0144 -0.0648
 4950TIP3    H136341   2.205   2.440  12.070 -0.0348  0.1063 -2.2142
 4950TIP3    H236342   2.119   2.532  12.154  1.7620  0.7478 -1.0187
 4951TIP3   OH236343   6.509   5.770   1.807  0.1263 -0.4433 -0.1684
 4951TIP3    H136344   6.599   5.753   1.835  0.2111  0.4986  0.1625
 4951TIP3    H236345   6.471   5.821   1.878 -0.1779  0.5043 -0.9936
 4952TIP3   OH236346   5.941   6.546  11.610 -0.0732  0.1984 -0.3166
 4952TIP3    H136347   6.018   6.602  11.622  0.7214 -0.4000 -2.1375
 4952TIP3    H236348   5.977   6.457  11.608 -0.7132 -0.0605 -1.6132
 4953TIP3   OH236349   2.927   3.089   5.379 -0.1804  0.7127 -0.2678
 4953TIP3    H136350   2.867   3.160   5.357 -0.5458 -0.5473 -3.9142
 4953TIP3    H236351   2.872   3.022   5.420 -0.4085  1.2138  0.2628
 4954TIP3   OH236352   6.003   5.559   5.738 -0.3860 -0.1520 -0.2247
 4954TIP3    H136353   6.004   5.616   5.815 -0.8599  1.0393 -1.0628
 4954TIP3    H236354   5.970   5.615   5.668 -0.0210 -1.2299 -1.2850
 4955TIP3   OH236355   4.809   1.653  10.231 -0.2630 -0.1748  0.0799
 4955TIP3    H136356   4.860   1.573  10.246  0.0721 -0.1173 -0.6978
 4955TIP3    H236357   4.871   1.713  10.190 -0.5499  0.4470  0.5472
 4956TIP3   OH236358   1.132   4.292   2.364 -0.0128  0.5218  0.5004
 4956TIP3    H136359   1.218   4.327   2.343  1.0361 -1.3379  1.4660
 4956TIP3    H236360   1.148   4.227   2.433 -1.7725 -1.9364 -1.2399
 4957TIP3   OH236361   0.045   5.539   0.971  0.7289  0.0403 -0.3391
 4957TIP3    H136362   0.050   5.614   1.031 -1.1318 -1.0123  1.2554
 4957TIP3    H236363  -0.029   5.559   0.914  1.1166  0.0376 -0.8523
 4958TIP3   OH236364   5.375   5.685  16.102 -0.2042  0.2821  0.2681
 4958TIP3    H136365   5.425   5.615  16.145  0.8550  0.7257 -0.2041
 4958TIP3    H236366   5.355   5.747  16.172 -0.0022  0.1516  0.4424
 4959TIP3   OH236367   0.199   4.531   3.604 -0.0558 -0.2782  0.4192
 4959TIP3    H136368   0.254   4.536   3.682  0.3585  1.3800  0.0648
 4959TIP3    H236369   0.128   4.593   3.621 -0.3876 -0.4875 -0.1955
 4960TIP3   OH236370   6.320   0.019   4.297  0.1154  0.2018 -0.2279
 4960TIP3    H136371   6.284  -0.057   4.343  0.5065  0.5723  0.7126
 4960TIP3    H236372   6.377  -0.018   4.230  2.4101 -0.3717  1.8919
 4961TIP3   OH236373   5.951   4.469   1.691  0.5456 -0.7295 -0.1787
 4961TIP3    H136374   5.884   4.512   1.745  0.8804 -1.9174  1.2450
 4961TIP3    H236375   6.009   4.539   1.663 -1.5077  0.4202 -1.8440
 4962TIP3   OH236376   0.591   0.719   2.239 -0.5272  0.0572  0.1440
 4962TIP3    H136377   0.590   0.753   2.150 -0.2842 -1.5444 -0.4900
 4962TIP3    H236378   0.510   0.669   2.247 -0.2399 -0.3406  0.6101
 4963TIP3   OH236379   5.367   5.024   6.529 -0.3617  0.1632 -0.7989
 4963TIP3    H136380   5.448   5.069   6.505 -0.4782  0.5698 -0.4343
 4963TIP3    H236381   5.394   4.959   6.594 -0.2912  0.1257 -0.8645
 4964TIP3   OH236382   5.724   4.494   4.298 -0.8002  0.4044 -0.2669
 4964TIP3    H136383   5.667   4.467   4.226  0.0749  0.2884 -0.9172
 4964TIP3    H236384   5.780   4.419   4.314  1.9790  1.8430 -2.3952
 4965TIP3   OH236385   1.570   1.136  14.575  0.3503 -0.7444  0.0816
 4965TIP3    H136386   1.563   1.042  14.557  1.7025 -0.6681 -1.0326
 4965TIP3    H236387   1.646   1.143  14.633  0.5106 -0.3133 -0.1770
 4966TIP3   OH236388   2.750   6.639  15.060 -0.2966  0.0583  0.1722
 4966TIP3    H136389   2.831   6.686  15.078  0.5664 -1.2911 -0.0387
 4966TIP3    H236390   2.691   6.706  15.025  0.6991  1.0798  0.3771
 4967TIP3   OH236391   3.509   0.273  12.116  0.4438 -0.5045 -0.1844
 4967TIP3    H136392   3.551   0.328  12.051 -1.1975 -0.5776 -1.3772
 4967TIP3    H236393   3.483   0.194  12.068 -2.5444  0.2495 -0.0360
 4968TIP3   OH236394   0.284   6.266  13.257 -0.2362 -0.0329 -0.2191
 4968TIP3    H136395   0.203   6.223  13.228  0.4087  0.2539 -2.6399
 4968TIP3    H236396   0.335   6.277  13.177  1.7461  0.7960  1.0930
 4969TIP3   OH236397   6.646   4.377  16.037  0.4068 -0.0459  0.0688
 4969TIP3    H136398   6.583   4.403  16.104  0.0725 -0.4426 -0.0908
 4969TIP3    H236399   6.615   4.293  16.006 -0.4867  0.9437 -1.8973
 4970TIP3   OH236400   1.137   3.261   2.170 -0.7263  0.5144 -0.0043
 4970TIP3    H136401   1.181   3.237   2.087 -0.8397 -0.1166  0.1121
 4970TIP3    H236402   1.071   3.325   2.144 -1.5083 -0.4955 -0.5766
 4971TIP3   OH236403   5.179   1.069  14.545 -0.5965 -0.2076 -0.9421
 4971TIP3    H136404   5.151   0.995  14.598 -4.1271  1.3082 -0.4450
 4971TIP3    H236405   5.158   1.044  14.455 -1.7906  0.1292 -0.7742
 4972TIP3   OH236406   5.020   3.882  11.576  0.5548 -0.2861  0.6366
 4972TIP3    H136407   5.112   3.896  11.552  0.6795 -0.8396  0.7930
 4972TIP3    H236408   4.979   3.849  11.496  1.0414 -2.4528  1.2143
 4973TIP3   OH236409   3.583   5.876  11.013 -0.4119 -0.1303 -0.0371
 4973TIP3    H136410   3.632   5.894  10.933  2.6955  0.6345  1.8623
 4973TIP3    H236411   3.587   5.958  11.063 -3.3177 -0.1907  0.4928
 4974TIP3   OH236412   0.500   3.098  13.786  0.0184 -0.8839  0.3713
 4974TIP3    H136413   0.500   3.004  13.805 -2.2296 -1.1875 -0.8283
 4974TIP3    H236414   0.410   3.126  13.802 -0.1214  0.4166 -2.1923
 4975TIP3   OH236415   1.544   3.335  15.887 -0.3955  0.2069  0.1067
 4975TIP3    H136416   1.543   3.345  15.982 -0.8514  1.0516  0.0213
 4975TIP3    H236417   1.561   3.424  15.854  0.0895 -0.1343 -0.5959
 4976TIP3   OH236418   4.357   3.164   5.797 -0.4558  0.5262 -0.0276
 4976TIP3    H136419   4.385   3.234   5.738 -1.1568  1.9650  1.2710
 4976TIP3    H236420   4.262   3.161   5.788 -0.3664 -0.8887 -0.7162
 4977TIP3   OH236421   6.591   2.498   4.985  0.3918  0.1645  0.1608
 4977TIP3    H136422   6.595   2.586   5.022 -0.6361  0.3323 -0.0880
 4977TIP3    H236423   6.497   2.476   4.986  0.2892  0.2186 -2.3942
 4978TIP3   OH236424   4.422   3.593   4.152  0.1379  0.0169 -0.2639
 4978TIP3    H136425   4.408   3.500   4.140  1.6285 -0.3224  0.3718
 4978TIP3    H236426   4.471   3.621   4.074 -0.5309  0.3410 -0.5801
 4979TIP3   OH236427   5.900   5.174  14.575 -0.8265  0.7143  0.0320
 4979TIP3    H136428   5.971   5.234  14.597 -0.8764  1.0333 -0.6662
 4979TIP3    H236429   5.915   5.152  14.483  0.3849 -1.9609  0.7630
 4980TIP3   OH236430   2.729   3.087  16.399 -0.6426  0.0938 -0.2109
 4980TIP3    H136431   2.730   3.074  16.494 -1.6825 -1.3549 -0.3694
 4980TIP3    H236432   2.767   3.007  16.363  0.8472  1.1153 -1.0090
 4981TIP3   OH236433   0.302   0.885   0.009  0.1358  0.3885  0.1912
 4981TIP3    H136434   0.291   0.832   0.089  0.8626  1.9836  1.4089
 4981TIP3    H236435   0.374   0.843  -0.038 -0.5658 -0.8088  0.1407
 4982TIP3   OH236436   6.298   5.323  14.017  0.3213  0.0733 -0.4787
 4982TIP3    H136437   6.349   5.243  14.027  0.9391  0.4719 -0.4006
 4982TIP3    H236438   6.212   5.301  14.053  0.6651 -0.3782  0.0869
 4983TIP3   OH236439   4.497   1.825  12.503  0.3017 -0.0348  0.0720
 4983TIP3    H136440   4.428   1.891  12.496  1.4403  1.1314 -0.6339
 4983TIP3    H236441   4.476   1.760  12.436 -1.1643 -0.7479  1.1750
 4984TIP3   OH236442   4.356   5.379  16.943  0.1333 -0.1615 -0.3876
 4984TIP3    H136443   4.416   5.454  16.947  0.6726 -0.6306  1.9824
 4984TIP3    H236444   4.335   5.370  16.850  3.4902  0.2355 -1.3177
 4985TIP3   OH236445   4.296   5.447   4.202  0.2617  0.2564  0.3073
 4985TIP3    H136446   4.353   5.516   4.237 -0.3103  1.6286 -1.3242
 4985TIP3    H236447   4.210   5.468   4.238  0.2036  0.0271  0.2998
 4986TIP3   OH236448   1.383   2.329  17.028 -0.7637  0.0201  0.0426
 4986TIP3    H136449   1.405   2.345  16.936  0.1055 -0.1787  0.2078
 4986TIP3    H236450   1.442   2.387  17.077  0.4362 -1.5675  0.5545
 4987TIP3   OH236451   2.858   4.108   5.012 -0.0006 -0.1216 -0.0693
 4987TIP3    H136452   2.837   4.187   5.062 -1.4630  0.2064 -1.1294
 4987TIP3    H236453   2.915   4.058   5.070 -1.3146  0.3998  1.7774
 4988TIP3   OH236454   1.754   4.642   2.790  1.2008 -0.2321 -0.1031
 4988TIP3    H136455   1.698   4.588   2.735  0.7151  1.9937 -1.9407
 4988TIP3    H236456   1.724   4.624   2.880 -0.6588 -1.0725 -0.8394
 4989TIP3   OH236457   4.724   3.589   1.656  0.3379 -0.2254  0.1192
 4989TIP3    H136458   4.722   3.494   1.667  1.0568 -0.2354  0.2705
 4989TIP3    H236459   4.747   3.623   1.743 -0.8270  0.1513  0.2947
 4990TIP3   OH236460   4.710   3.304   1.660 -0.5100 -0.1948  0.8038
 4990TIP3    H136461   4.735   3.251   1.735  2.1354 -0.7091 -0.3273
 4990TIP3    H236462   4.724   3.247   1.584 -2.6725  0.4494 -0.1615
 4991TIP3   OH236463   1.305   6.581   5.946  0.2357 -0.3320  0.6190
 4991TIP3    H136464   1.292   6.557   6.038  1.7544 -0.5597  0.7908
 4991TIP3    H236465   1.395   6.611   5.941 -0.0431  0.3426 -0.6727
 4992TIP3   OH236466   1.825   2.773  12.216  0.4783  0.0284  0.4143
 4992TIP3    H136467   1.890   2.840  12.238 -0.4524  1.1495 -0.2136
 4992TIP3    H236468   1.848   2.746  12.127 -0.7260  1.4508 -0.3705
 4993TIP3   OH236469   1.768   0.908   1.947  0.3414  0.5520 -0.1767
 4993TIP3    H136470   1.703   0.838   1.953 -0.0819  0.6748 -2.2921
 4993TIP3    H236471   1.727   0.973   1.890  2.9155 -0.2118 -3.2033
 4994TIP3   OH236472   0.710   6.522   5.851 -0.0090 -0.2750  0.0884
 4994TIP3    H136473   0.619   6.496   5.868 -0.2936 -0.9252 -2.1833
 4994TIP3    H236474   0.747   6.451   5.799  1.3814  0.6305 -0.2198
 4995TIP3   OH236475   3.722   1.128  12.778 -1.2847  0.5456  0.2925
 4995TIP3    H136476   3.756   1.167  12.698  1.2833 -0.3532  0.8332
 4995TIP3    H236477   3.662   1.060  12.749 -0.8136  0.6039 -0.8655
 4996TIP3   OH236478   2.692   0.077  16.329 -0.2917 -0.5540 -0.2884
 4996TIP3    H136479   2.734   0.003  16.285  0.0608 -0.2270 -0.5100
 4996TIP3    H236480   2.709   0.152  16.272 -1.3495 -0.4475 -0.4794
 4997TIP3   OH236481   1.141   3.270  16.380  0.2631  0.2665  0.7858
 4997TIP3    H136482   1.105   3.220  16.454 -0.4821 -0.2106  0.1089
 4997TIP3    H236483   1.186   3.343  16.421  2.1695 -1.4100  1.8770
 4998TIP3   OH236484   5.246   0.905  15.101 -0.5344 -0.0496  0.7620
 4998TIP3    H136485   5.241   0.932  15.010 -0.9118 -2.3320  0.0505
 4998TIP3    H236486   5.339   0.888  15.116 -0.3449  1.1785  1.1100
 4999TIP3   OH236487   1.373   4.697   0.438  0.1737 -0.4683  0.5150
 4999TIP3    H136488   1.383   4.732   0.526  1.2535  2.4531 -0.6198
 4999TIP3    H236489   1.462   4.685   0.406 -0.1550 -0.1771 -0.5912
 5000TIP3   OH236490   6.673   5.496   1.646  0.1786  0.2064 -0.1400
 5000TIP3    H136491   6.704   5.421   1.698 -2.6733  0.5423  2.3701
 5000TIP3    H236492   6.722   5.571   1.679 -0.2057  0.0998  0.7007
 5001TIP3   OH236493   1.543   1.302  16.052 -0.0109  0.0776  0.3855
 5001TIP3    H136494   1.485   1.339  16.118  0.6008  1.4374  0.1853
 5001TIP3    H236495   1.549   1.209  16.075 -1.2168  0.1740  1.1729
 5002TIP3   OH236496   3.151   5.038   5.944  0.1709  0.8082  0.0092
 5002TIP3    H136497   3.110   5.116   5.983  2.0325  2.3767 -0.9596
 5002TIP3    H236498   3.129   5.045   5.851  0.1716  0.0415 -0.0483
 5003TIP3   OH236499   5.671   5.992  16.621 -0.2534 -0.5663  0.4210
 5003TIP3    H136500   5.727   5.954  16.553 -0.7706 -1.6267  0.5751
 5003TIP3    H236501   5.591   6.017  16.576  0.2407  0.7848  0.2356
 5004TIP3   OH236502   5.407   1.589   0.956  0.0429  0.4978 -0.4193
 5004TIP3    H136503   5.362   1.505   0.959  1.1945 -0.0931  0.7300
 5004TIP3    H236504   5.363   1.643   1.022  0.4806  0.1937  0.1224
 5005TIP3   OH236505   0.294   0.576   3.791 -1.1658 -0.2775 -0.6868
 5005TIP3    H136506   0.206   0.540   3.788 -0.4556 -2.3474  0.7984
 5005TIP3    H236507   0.351   0.503   3.765  0.1584  0.8898 -1.2356
 5006TIP3   OH236508   0.875   4.596  16.970 -0.3647  0.2117  0.2304
 5006TIP3    H136509   0.941   4.541  17.011 -1.1179 -1.6687 -0.9709
 5006TIP3    H236510   0.925   4.657  16.916  0.4739  0.5097  1.3116
 5007TIP3   OH236511   4.625   2.740   5.256 -0.3622 -0.2440  0.1314
 5007TIP3    H136512   4.552   2.781   5.303  0.1688 -1.3354  1.9972
 5007TIP3    H236513   4.648   2.664   5.309  0.8579 -1.0479 -1.4798
 5008TIP3   OH236514   0.920   5.320   0.026 -0.1548 -0.0550 -0.6255
 5008TIP3    H136515   0.955   5.370  -0.048 -1.3410  0.9442 -0.5296
 5008TIP3    H236516   0.848   5.373   0.060 -0.7521 -1.3177  0.1710
 5009TIP3   OH236517   1.731   0.688   1.146 -0.5154  0.2203  0.3854
 5009TIP3    H136518   1.742   0.760   1.084 -1.4280  0.1080  0.0752
 5009TIP3    H236519   1.713   0.730   1.230  0.1269  0.3674  0.4477
 5010TIP3   OH236520   3.186   6.535  16.326 -0.1638  0.6193 -0.0648
 5010TIP3    H136521   3.145   6.521  16.411 -0.4021 -0.3994 -0.3336
 5010TIP3    H236522   3.143   6.613  16.290  0.6797  1.7080  1.1862
 5011TIP3   OH236523   0.106   4.271   5.098  0.4520 -0.2129  0.3984
 5011TIP3    H136524   0.016   4.252   5.125  0.5610 -0.6534  0.4516
 5011TIP3    H236525   0.123   4.359   5.132  0.3627 -0.5010  1.1892
 5012TIP3   OH236526   5.640   1.532   4.208  0.0018 -0.5641  0.1117
 5012TIP3    H136527   5.637   1.553   4.301  3.9725  1.0591  0.0607
 5012TIP3    H236528   5.645   1.617   4.164  2.3363 -1.2822 -1.1902
 5013TIP3   OH236529   2.107   4.366  15.920  0.2765 -0.5982 -0.0710
 5013TIP3    H136530   2.069   4.294  15.971 -1.0563  0.4275  0.4526
 5013TIP3    H236531   2.123   4.435  15.984  0.3609  0.0243 -0.7543
 5014TIP3   OH236532   4.495   4.340  15.486  0.7640  0.3295 -0.1064
 5014TIP3    H136533   4.488   4.374  15.397  0.5355 -1.1042 -0.6547
 5014TIP3    H236534   4.570   4.386  15.524  1.3196  0.4104 -1.2781
 5015TIP3   OH236535   5.707   3.030   5.079 -0.2001 -0.1310  0.3369
 5015TIP3    H136536   5.786   3.058   5.125 -0.5956  0.5246  0.6160
 5015TIP3    H236537   5.641   3.021   5.147 -0.4204 -0.5077  0.0785
 5016TIP3   OH236538   0.935   1.499   4.839 -0.0179  1.0082 -1.0243
 5016TIP3    H136539   0.911   1.507   4.747 -1.4261  2.7933 -0.5398
 5016TIP3    H236540   0.929   1.405   4.858  0.1188  0.6469 -2.6799
 5017TIP3   OH236541   6.627   4.962  16.369 -0.6002 -0.2379  0.7858
 5017TIP3    H136542   6.595   4.975  16.458 -1.1617 -2.7613  1.0451
 5017TIP3    H236543   6.548   4.948  16.317 -0.3164  1.7879 -0.2675
 5018TIP3   OH236544   5.924   2.023  16.882  0.1382  0.1317  0.0566
 5018TIP3    H136545   5.977   1.968  16.939 -0.1637 -0.6042 -0.3527
 5018TIP3    H236546   5.837   2.022  16.922  0.2292  0.6673  0.2787
 5019TIP3   OH236547   4.892   6.183  13.444  0.0123  0.5134  0.2607
 5019TIP3    H136548   4.894   6.110  13.382 -0.4719  0.8686 -0.1842
 5019TIP3    H236549   4.968   6.168  13.501  0.1744 -0.0917 -0.1018
 5020TIP3   OH236550   1.664   0.928   1.310  0.3073  0.1786  0.0853
 5020TIP3    H136551   1.683   1.015   1.278  2.6272 -0.0712  0.6023
 5020TIP3    H236552   1.569   0.927   1.324  0.0050  2.0076 -1.5667
 5021TIP3   OH236553   6.799   2.153   1.722 -0.8495 -0.4112 -0.1699
 5021TIP3    H136554   6.789   2.067   1.762 -2.5038 -0.6190 -0.9547
 5021TIP3    H236555   6.807   2.136   1.629 -1.6536  0.3052 -0.3779
 5022TIP3   OH236556   2.262   1.258  12.795 -0.0228  0.5806 -0.1602
 5022TIP3    H136557   2.296   1.269  12.706  1.7596  0.5004  0.4663
 5022TIP3    H236558   2.339   1.232  12.847 -1.4781 -1.8432  0.9337
 5023TIP3   OH236559   1.149   3.663   3.568 -0.1220 -0.0063 -0.1943
 5023TIP3    H136560   1.162   3.590   3.508 -0.8844 -1.1775  0.9945
 5023TIP3    H236561   1.157   3.624   3.655  0.0866  1.4661  0.4782
 5024TIP3   OH236562   0.530   3.613  15.857 -0.4782  0.3353 -0.0850
 5024TIP3    H136563   0.599   3.676  15.881 -0.6054  0.5552 -0.2874
 5024TIP3    H236564   0.458   3.632  15.917 -0.0623 -0.4478  0.6792
 5025TIP3   OH236565   3.758   2.308  15.750  0.2330  0.1755  0.1961
 5025TIP3    H136566   3.733   2.226  15.707 -1.4015  0.7683 -0.0873
 5025TIP3    H236567   3.798   2.360  15.680 -0.3062  0.2593 -0.0566
 5026TIP3   OH236568   0.161   6.394   3.131  0.2617  0.2389 -0.1207
 5026TIP3    H136569   0.155   6.397   3.036  1.2459  1.5656 -0.1670
 5026TIP3    H236570   0.242   6.441   3.152  0.2336 -0.3093  1.3544
 5027TIP3   OH236571   4.244   5.167   5.478 -0.0935  0.1701  0.4357
 5027TIP3    H136572   4.298   5.225   5.532  0.6508 -0.3160  0.2381
 5027TIP3    H236573   4.253   5.081   5.518  0.9661 -0.3229 -0.7792
 5028TIP3   OH236574   6.661   5.301  15.656 -0.6230 -0.6569 -0.4454
 5028TIP3    H136575   6.621   5.237  15.597 -0.4158 -0.3252 -0.9536
 5028TIP3    H236576   6.587   5.349  15.692 -0.8948 -2.1635  1.1220
 5029TIP3   OH236577   6.756   3.209   1.510  0.2532 -0.6647  0.1830
 5029TIP3    H136578   6.757   3.127   1.560 -0.3019 -1.3690 -0.9195
 5029TIP3    H236579   6.815   3.193   1.436 -0.0327 -0.1450 -0.1667
 5030TIP3   OH236580   0.813   1.766   3.527 -0.0257 -0.1200 -0.0011
 5030TIP3    H136581   0.737   1.822   3.516  0.0334  0.2734  1.3700
 5030TIP3    H236582   0.787   1.682   3.490 -0.5521  0.4544 -0.9573
 5031TIP3   OH236583   3.941   2.554  15.927  0.2670 -0.0202  0.4215
 5031TIP3    H136584   3.905   2.617  15.865 -2.1776 -0.6881  1.0511
 5031TIP3    H236585   4.018   2.597  15.963  2.1523  0.2197 -3.3248
 5032TIP3   OH236586   4.355   3.096   0.592  0.1825  0.0670  0.5399
 5032TIP3    H136587   4.350   3.191   0.583 -2.3792  0.1255  1.6697
 5032TIP3    H236588   4.448   3.078   0.602  0.8095  2.3631 -0.4004
 5033TIP3   OH236589   0.377   0.764  16.147 -0.2814  0.0500  0.3915
 5033TIP3    H136590   0.356   0.854  16.170  1.3334  0.8440 -0.9807
 5033TIP3    H236591   0.472   0.759  16.156 -0.0676 -0.7981 -1.7494
 5034TIP3   OH236592   5.494   0.798  11.842 -0.1307 -0.1458  0.3004
 5034TIP3    H136593   5.427   0.827  11.780  0.0974 -0.5444 -0.1389
 5034TIP3    H236594   5.551   0.741  11.791  2.0194  2.0961 -0.0055
 5035TIP3   OH236595   2.666   4.747  14.739 -0.4564 -0.6873 -0.2290
 5035TIP3    H136596   2.648   4.821  14.796 -2.2238 -1.4283  0.2519
 5035TIP3    H236597   2.668   4.671  14.797 -1.7875 -1.3922 -1.0297
 5036TIP3   OH236598   1.629   3.446   6.251 -0.3829 -0.3933 -0.1678
 5036TIP3    H136599   1.594   3.502   6.321 -2.5715 -0.5622 -1.0399
 5036TIP3    H236600   1.551   3.413   6.206  0.9449 -1.0574 -2.0994
 5037TIP3   OH236601   2.034   0.760   6.262  0.0040 -0.4300 -0.0141
 5037TIP3    H136602   2.022   0.822   6.190 -1.2068  0.5391  0.9857
 5037TIP3    H236603   1.964   0.696   6.252 -0.3291 -0.1435  0.4366
 5038TIP3   OH236604   5.403   2.412  15.281 -0.5828  0.2228 -0.5720
 5038TIP3    H136605   5.477   2.462  15.315 -0.0838 -0.6939 -0.2484
 5038TIP3    H236606   5.361   2.376  15.360 -1.4160  0.7782 -0.7498
 5039TIP3   OH236607   4.752   5.439  10.653 -0.5687 -0.4169  0.1301
 5039TIP3    H136608   4.713   5.471  10.572 -1.7609 -4.0716 -0.9014
 5039TIP3    H236609   4.838   5.405  10.627 -0.2383 -0.1174  0.7864
 5040TIP3   OH236610   5.308   6.263   3.332 -0.3027  0.0292 -0.2120
 5040TIP3    H136611   5.237   6.258   3.396 -0.0609  0.1676  0.0686
 5040TIP3    H236612   5.372   6.321   3.372 -0.2301  0.2625 -0.6601
 5041TIP3   OH236613   3.808   2.162   0.795 -0.1465 -0.0378  0.0407
 5041TIP3    H136614   3.766   2.095   0.741  1.5491 -1.4793  0.4141
 5041TIP3    H236615   3.749   2.237   0.790 -0.7851 -0.6190 -2.6015
 5042TIP3   OH236616   0.454   3.705  12.127  0.3785 -0.6982  0.3676
 5042TIP3    H136617   0.399   3.633  12.099  0.3131 -0.1343 -1.0240
 5042TIP3    H236618   0.470   3.756  12.048  2.7723 -0.7467  0.7338
 5043TIP3   OH236619   6.552   0.218  13.089  0.8820  0.5304  0.1497
 5043TIP3    H136620   6.619   0.271  13.046  1.3382 -0.3927 -0.3099
 5043TIP3    H236621   6.482   0.210  13.024  0.9499  0.3123  0.1036
 5044TIP3   OH236622   4.765   1.866   3.351  0.0270 -0.2234 -0.1222
 5044TIP3    H136623   4.861   1.871   3.354 -0.0552  1.5484  1.6690
 5044TIP3    H236624   4.738   1.945   3.303 -0.5642  2.3387  3.9168
 5045TIP3   OH236625   2.737   5.474  14.552 -0.7518  0.0350 -0.3724
 5045TIP3    H136626   2.724   5.525  14.472  2.0471  1.7499  0.1034
 5045TIP3    H236627   2.781   5.394  14.523 -1.3751 -0.1902 -0.7103
 5046TIP3   OH236628   1.823   4.940  10.928 -0.5198  0.4650  0.3836
 5046TIP3    H136629   1.862   4.960  10.843 -0.6670 -0.5950  0.0445
 5046TIP3    H236630   1.876   4.988  10.992  0.4843  0.1469 -0.1936
 5047TIP3   OH236631   3.297   3.903   1.607 -0.2172 -0.4350 -0.2930
 5047TIP3    H136632   3.263   3.992   1.618  1.4021 -0.0838  2.7923
 5047TIP3    H236633   3.234   3.861   1.549 -0.3370  3.0476 -3.0681
 5048TIP3   OH236634   0.914   4.828   5.315 -0.4435 -0.3703 -0.1033
 5048TIP3    H136635   0.990   4.886   5.318 -0.4810 -0.3019 -0.4372
 5048TIP3    H236636   0.929   4.765   5.386 -0.0324 -0.4112 -0.2234
 5049TIP3   OH236637   3.986   0.934  12.459 -0.1010 -0.0968  0.4857
 5049TIP3    H136638   3.918   0.977  12.407 -0.0558 -1.4062 -0.7442
 5049TIP3    H236639   3.941   0.859  12.498 -0.1143  0.8410  2.3543
 5050TIP3   OH236640   5.022   0.214  12.537 -0.1376  0.4177  0.1747
 5050TIP3    H136641   5.047   0.304  12.520  1.8389 -0.0983  0.0743
 5050TIP3    H236642   5.076   0.162  12.477  0.1948 -0.9127  1.5575
 5051TIP3   OH236643   2.959   0.400   0.332  0.4370 -0.0493  0.6082
 5051TIP3    H136644   3.040   0.449   0.319  0.3642 -0.0169  0.2574
 5051TIP3    H236645   2.986   0.308   0.329  0.3599 -0.0530 -0.2605
 5052TIP3   OH236646   4.439   4.759   2.779 -0.3684  0.2509 -0.3228
 5052TIP3    H136647   4.358   4.713   2.755 -3.2678  4.6593 -0.2515
 5052TIP3    H236648   4.425   4.785   2.870  2.7865 -1.6089  0.8546
 5053TIP3   OH236649   6.578   0.044  16.564  0.2174  0.0664  0.4440
 5053TIP3    H136650   6.583  -0.044  16.601  1.2370  0.9059  2.4481
 5053TIP3    H236651   6.522   0.092  16.625  0.8438  1.1621  0.1798
 5054TIP3   OH236652   4.130   0.516   4.770  0.2035 -0.6058 -0.0238
 5054TIP3    H136653   4.128   0.423   4.748 -0.0867 -0.3253 -1.2984
 5054TIP3    H236654   4.223   0.538   4.773  0.2820 -0.9968  0.5931
 5055TIP3   OH236655   6.215   0.524   0.762 -1.1248 -0.4862 -0.1714
 5055TIP3    H136656   6.140   0.474   0.728  0.1240 -2.8964  0.3912
 5055TIP3    H236657   6.258   0.559   0.684 -2.6990  0.8048 -0.5106
 5056TIP3   OH236658   2.661   3.680   2.407 -0.2279  0.0316  0.0321
 5056TIP3    H136659   2.719   3.732   2.351 -0.5158 -0.3386 -0.6092
 5056TIP3    H236660   2.719   3.614   2.446 -0.7657 -3.0388 -3.7620
 5057TIP3   OH236661   1.266   4.387  17.005  0.3848  0.1297  0.2983
 5057TIP3    H136662   1.197   4.448  17.033 -1.4488 -0.6130 -2.1951
 5057TIP3    H236663   1.221   4.303  16.997  1.7258 -0.5247 -0.7977
 5058TIP3   OH236664   3.056   6.043  12.848  0.0755  0.0523  0.0886
 5058TIP3    H136665   3.025   6.133  12.844  2.4133  0.8512 -2.9670
 5058TIP3    H236666   3.121   6.043  12.918  1.3021  1.2147 -1.0133
 5059TIP3   OH236667   6.374   2.782   2.039  0.0071 -0.2613  0.5079
 5059TIP3    H136668   6.308   2.828   2.090 -0.2117 -0.1760  0.1532
 5059TIP3    H236669   6.329   2.757   1.958  0.2819 -0.5948  0.4517
 5060TIP3   OH236670   4.543   0.951  16.979  0.6038  0.2218 -0.4666
 5060TIP3    H136671   4.516   0.937  17.070 -0.5555  0.0860 -0.8124
 5060TIP3    H236672   4.623   0.900  16.969  0.2977 -0.4108  0.2515
 5061TIP3   OH236673   6.606   2.410   5.990  0.4243 -0.9584 -0.0767
 5061TIP3    H136674   6.521   2.375   5.964  0.9430 -0.9236 -1.9246
 5061TIP3    H236675   6.595   2.505   5.984  0.4661 -0.9375  0.1524
 5062TIP3   OH236676   6.314   1.111   5.993  0.5299  0.2421  0.2617
 5062TIP3    H136677   6.352   1.198   5.997 -1.4173  1.1491  0.0823
 5062TIP3    H236678   6.388   1.052   6.010  1.7462  1.9256  1.1345
 5063TIP3   OH236679   4.681   2.151  10.835 -0.2845 -0.3775  0.3016
 5063TIP3    H136680   4.748   2.111  10.891 -1.2458 -0.8160  1.1825
 5063TIP3    H236681   4.727   2.176  10.755  1.4809  1.5212  1.7927
 5064TIP3   OH236682   2.399   2.232   3.339  0.3081  0.1746 -0.0680
 5064TIP3    H136683   2.401   2.327   3.346  1.0884  0.3907 -2.2407
 5064TIP3    H236684   2.490   2.205   3.350  0.3548 -0.1325 -1.1117
 5065TIP3   OH236685   4.405   4.446   1.723  0.4709 -0.3935  0.5643
 5065TIP3    H136686   4.423   4.356   1.752  0.4171 -0.5240  0.1966
 5065TIP3    H236687   4.391   4.438   1.629 -1.0461 -0.2241  0.7550
 5066TIP3   OH236688   2.905   1.158   1.470 -0.8010  0.6738 -0.4285
 5066TIP3    H136689   2.952   1.224   1.419  0.2212 -0.7347 -1.3909
 5066TIP3    H236690   2.965   1.136   1.541 -0.7687  0.1677 -0.6117
 5067TIP3   OH236691   6.771   5.263   1.734 -0.0696 -0.3078 -0.5230
 5067TIP3    H136692   6.721   5.182   1.725 -0.0903 -0.1850 -1.7240
 5067TIP3    H236693   6.859   5.241   1.703 -0.0726  0.1067 -0.8491
 5068TIP3   OH236694   5.727   1.841   1.693 -0.3978 -0.0935  0.3647
 5068TIP3    H136695   5.664   1.881   1.753 -1.2494 -1.8524  0.6953
 5068TIP3    H236696   5.802   1.820   1.749  0.1754  1.2355  0.1340
 5069TIP3   OH236697   1.267   3.067   0.595 -0.8788  0.1447 -0.2496
 5069TIP3    H136698   1.299   3.070   0.505 -1.4615  5.2541 -0.5741
 5069TIP3    H236699   1.197   3.002   0.594 -0.1664 -0.7094 -3.1184
 5070TIP3   OH236700   5.590   2.940  16.757  0.8237 -0.7825  0.0545
 5070TIP3    H136701   5.672   2.943  16.708  0.0513  0.4020 -1.2466
 5070TIP3    H236702   5.574   3.031  16.783 -0.3224 -0.9119 -0.1437
 5071TIP3   OH236703   4.597   4.842  16.791  0.3455  1.0294  0.1980
 5071TIP3    H136704   4.653   4.902  16.840  1.1512 -0.0070  0.5896
 5071TIP3    H236705   4.657   4.791  16.737 -0.1086 -0.5521  1.1059
 5072TIP3   OH236706   6.229   2.210  14.525 -0.0484 -0.0138  0.1164
 5072TIP3    H136707   6.161   2.278  14.520 -2.1899 -2.0283  0.4100
 5072TIP3    H236708   6.292   2.245  14.589 -1.1266  1.6328  0.3612
 5073TIP3   OH236709   1.061   5.098  15.388  0.0978 -0.5435  0.8076
 5073TIP3    H136710   0.969   5.118  15.370 -0.0424 -1.4362  0.4352
 5073TIP3    H236711   1.093   5.061  15.305  0.7661 -0.3115  0.9630
 5074TIP3   OH236712   3.998   5.809  11.359  0.7638 -0.0575 -0.0194
 5074TIP3    H136713   4.063   5.804  11.289  0.2902 -1.2996 -0.3975
 5074TIP3    H236714   3.938   5.878  11.331  0.5831 -0.5385 -0.8472
 5075TIP3   OH236715   5.179   3.117  11.284  0.0471 -0.1025  0.6767
 5075TIP3    H136716   5.136   3.037  11.253 -1.2341  0.6904  0.3211
 5075TIP3    H236717   5.196   3.168  11.204  0.0823  0.3425  0.9636
 5076TIP3   OH236718   4.819   2.716  12.251  0.3102  0.3166 -0.3432
 5076TIP3    H136719   4.867   2.637  12.226  0.6035  0.5035 -0.3722
 5076TIP3    H236720   4.887   2.783  12.264  0.5990 -0.5301  4.2559
 5077TIP3   OH236721   3.795   3.210  12.540 -0.0855  0.1408 -0.4963
 5077TIP3    H136722   3.781   3.118  12.519  1.1345 -0.0812 -0.4180
 5077TIP3    H236723   3.825   3.210  12.631 -1.8685  0.7906  0.1278
 5078TIP3   OH236724   6.318   3.208   4.294 -0.3503  0.9265 -0.0016
 5078TIP3    H136725   6.368   3.282   4.330  0.8243  0.6286 -0.9446
 5078TIP3    H236726   6.360   3.131   4.333 -1.1941  0.7233  0.5244
 5079TIP3   OH236727   4.597   3.112  13.178  0.5056  0.2908  0.0620
 5079TIP3    H136728   4.642   3.183  13.224 -0.3569 -0.0109  1.4280
 5079TIP3    H236729   4.531   3.081  13.240  0.1679 -1.0155 -0.9062
 5080TIP3   OH236730   0.765   0.116   0.498  0.1991 -0.1286  0.0817
 5080TIP3    H136731   0.732   0.062   0.425 -0.1495 -0.2413  0.3188
 5080TIP3    H236732   0.859   0.125   0.480 -0.2649  1.9827 -1.7641
 5081TIP3   OH236733   2.194   0.872  17.171 -0.3925  0.1336 -0.4235
 5081TIP3    H136734   2.254   0.853  17.098 -1.2846 -0.7142 -0.9651
 5081TIP3    H236735   2.117   0.817  17.154 -1.5818  1.5963 -0.0628
 5082TIP3   OH236736   5.010   0.977   4.547 -0.1900  0.0390  0.3125
 5082TIP3    H136737   4.986   1.058   4.592 -1.2694 -1.0101  1.7146
 5082TIP3    H236738   5.065   0.930   4.610  0.1217 -0.4886 -0.3433
 5083TIP3   OH236739   6.123   0.208  14.591  0.1848 -0.0515 -0.6535
 5083TIP3    H136740   6.063   0.137  14.610  0.1788  0.2364  0.4694
 5083TIP3    H236741   6.067   0.283  14.574  0.2061 -0.0094 -0.5422
 5084TIP3   OH236742   0.133   1.218   1.749 -0.0774  0.0396  0.1295
 5084TIP3    H136743   0.076   1.168   1.692 -1.6649  2.0440 -0.1477
 5084TIP3    H236744   0.122   1.177   1.835  1.6433 -2.4270 -0.7075
 5085TIP3   OH236745   2.457   2.799  11.824  0.1537  0.2040  0.6855
 5085TIP3    H136746   2.506   2.717  11.824 -1.6808 -0.9758 -0.8792
 5085TIP3    H236747   2.453   2.824  11.732 -1.1112  0.9231  0.9204
 5086TIP3   OH236748   3.076   0.748   1.409 -0.2446 -0.5074  0.3390
 5086TIP3    H136749   3.138   0.796   1.355  0.4265  0.7465  2.1417
 5086TIP3    H236750   3.112   0.660   1.414 -0.2917 -0.6451 -1.1454
 5087TIP3   OH236751   4.978   5.908  17.185 -0.0208  0.0201  0.3971
 5087TIP3    H136752   4.888   5.921  17.155 -0.1838  1.6481  1.4202
 5087TIP3    H236753   5.009   5.997  17.205  1.6616 -0.5574  0.5030
 5088TIP3   OH236754   3.559   6.422  12.510  0.1921 -0.2682 -0.0161
 5088TIP3    H136755   3.502   6.459  12.443 -0.2507  2.7962  1.8526
 5088TIP3    H236756   3.502   6.365  12.562  0.3722 -2.0599 -1.6607
 5089TIP3   OH236757   4.219   3.775  15.903 -0.8062 -0.1038 -0.1266
 5089TIP3    H136758   4.279   3.708  15.872  0.5073  0.1458  1.7077
 5089TIP3    H236759   4.218   3.841  15.833  0.8297 -0.2729 -0.3482
 5090TIP3   OH236760   6.748   0.992   3.387 -0.4491  0.4383  0.3063
 5090TIP3    H136761   6.756   0.923   3.321  1.2523  0.0184  0.9231
 5090TIP3    H236762   6.816   0.973   3.450 -0.4144  2.2951  0.8733
 5091TIP3   OH236763   1.907   3.369  16.843 -0.3173  0.4542  0.3474
 5091TIP3    H136764   1.817   3.363  16.875 -0.3255  0.6294  0.3560
 5091TIP3    H236765   1.906   3.319  16.761  0.0248 -1.1810  1.2909
 5092TIP3   OH236766   3.029   4.894   2.264  0.7867 -0.1068 -0.1359
 5092TIP3    H136767   3.069   4.962   2.210  1.0091 -1.9899 -2.4736
 5092TIP3    H236768   3.103   4.847   2.302  0.6672  2.0814  3.2207
 5093TIP3   OH236769   2.170   2.344  17.209 -0.1344 -0.0747 -0.5839
 5093TIP3    H136770   2.082   2.361  17.243  0.2620 -1.1965  1.1286
 5093TIP3    H236771   2.228   2.363  17.283  0.8885 -1.4487 -1.0047
 5094TIP3   OH236772   4.493   2.455   1.683  0.0824  0.2736  0.1138
 5094TIP3    H136773   4.440   2.402   1.743 -0.0858  0.3393  0.0221
 5094TIP3    H236774   4.431   2.516   1.643  0.1935  0.2227 -0.1367
 5095TIP3   OH236775   4.305   6.674  15.843  0.6304 -0.3842  0.3132
 5095TIP3    H136776   4.327   6.748  15.899 -0.0400 -1.4647  2.0906
 5095TIP3    H236777   4.365   6.605  15.872  0.3459 -0.9278 -0.3844
 5096TIP3   OH236778   4.617   2.795  15.055 -0.5130 -0.0125 -0.3048
 5096TIP3    H136779   4.552   2.733  15.022 -0.3648  0.3483 -1.3356
 5096TIP3    H236780   4.603   2.874  15.002 -0.8918  0.9474  1.1732
 5097TIP3   OH236781   6.107   5.394  17.010 -0.3294 -0.5190  0.0711
 5097TIP3    H136782   6.068   5.479  17.027  0.7554 -0.3677  2.0408
 5097TIP3    H236783   6.159   5.407  16.931 -0.6114  0.4844  0.0418
 5098TIP3   OH236784   3.017   4.851  14.895  0.0818  0.0696 -0.1966
 5098TIP3    H136785   3.056   4.792  14.831 -1.0146 -0.8018 -0.1072
 5098TIP3    H236786   2.940   4.887  14.850  0.5550  1.1864 -0.1347
 5099TIP3   OH236787   5.844   1.142  14.612 -0.2260 -0.2885  0.2878
 5099TIP3    H136788   5.935   1.117  14.625 -0.1282  0.3782  0.8960
 5099TIP3    H236789   5.844   1.193  14.531 -0.0129 -0.0034  0.4697
 5100TIP3   OH236790   3.930   1.963  13.288 -0.3310 -0.1264 -0.0700
 5100TIP3    H136791   4.002   1.979  13.348 -1.5780  0.7730  1.2665
 5100TIP3    H236792   3.887   1.884  13.323  0.0079 -0.6652 -0.8617
 5101TIP3   OH236793   5.932   5.454  13.682  0.2492  0.4050  0.4029
 5101TIP3    H136794   5.867   5.458  13.612  0.3252  0.1629  0.3163
 5101TIP3    H236795   6.015   5.475  13.639  0.0449  2.2045  0.7878
 5102TIP3   OH236796   5.690   3.986   2.406 -0.5252  0.1510  0.0509
 5102TIP3    H136797   5.764   3.926   2.392  0.2743  1.1908 -0.3137
 5102TIP3    H236798   5.731   4.072   2.419 -1.6952  0.8690 -0.8210
 5103TIP3   OH236799   5.746   1.397  14.147  0.1198  0.4382 -0.0514
 5103TIP3    H136800   5.733   1.315  14.100  1.4617 -1.2986  2.3956
 5103TIP3    H236801   5.659   1.436  14.152 -0.9612 -1.8598  0.4229
 5104TIP3   OH236802   2.258   3.772  11.643 -0.3772  0.7330  0.6142
 5104TIP3    H136803   2.224   3.786  11.555  1.0654 -0.6663 -0.2105
 5104TIP3    H236804   2.317   3.845  11.659 -2.0772  2.0394  1.2333
 5105TIP3   OH236805   3.575   5.202   4.284 -0.0899  0.1921 -0.0913
 5105TIP3    H136806   3.588   5.173   4.374 -0.3226  0.3860  0.0045
 5105TIP3    H236807   3.650   5.259   4.266 -1.3617  2.2864  0.8648
 5106TIP3   OH236808   5.225   0.690  16.739  0.4706  0.1301  0.2557
 5106TIP3    H136809   5.307   0.713  16.783  0.5095  0.5291 -0.0203
 5106TIP3    H236810   5.241   0.706  16.646  0.7258 -1.7084 -0.0577
 5107TIP3   OH236811   4.466   6.693   4.228 -0.4879  0.4409  0.1231
 5107TIP3    H136812   4.530   6.647   4.174 -0.7708  0.5516 -0.3161
 5107TIP3    H236813   4.498   6.783   4.233 -0.6861  0.5343 -0.2294
 5108TIP3   OH236814   1.033   6.537   5.846  1.1034 -0.2059 -0.1539
 5108TIP3    H136815   1.128   6.546   5.852  1.1273  0.2686 -1.0431
 5108TIP3    H236816   1.018   6.442   5.849  1.4772 -0.2519  1.4029
 5109TIP3   OH236817   5.769   6.246  13.500  0.8216  0.0847 -0.2186
 5109TIP3    H136818   5.790   6.297  13.578  2.2022  1.1499 -1.2357
 5109TIP3    H236819   5.677   6.266  13.482  0.3777 -0.4878  1.3367
 5110TIP3   OH236820   0.543   5.972  14.578 -0.2638  0.4524 -0.3437
 5110TIP3    H136821   0.489   5.990  14.654  0.8521 -0.2004  0.6435
 5110TIP3    H236822   0.529   6.047  14.519 -2.4805  0.1159 -0.3055
 5111TIP3   OH236823   2.422   4.821   2.015 -0.1776 -0.0318  0.0530
 5111TIP3    H136824   2.368   4.831   2.093 -0.8415 -3.7898  0.2870
 5111TIP3    H236825   2.360   4.804   1.945  0.5434 -0.2946 -0.5350
 5112TIP3   OH236826   1.876   3.382  15.042  0.1537 -0.2433  0.1759
 5112TIP3    H136827   1.857   3.316  15.110 -0.6633 -1.2680 -1.0001
 5112TIP3    H236828   1.966   3.363  15.016  0.4822  0.1723  0.9691
 5113TIP3   OH236829   5.569   4.805  13.922 -0.7972 -0.0967 -0.1244
 5113TIP3    H136830   5.605   4.803  14.011 -0.7950 -0.5474 -0.1359
 5113TIP3    H236831   5.601   4.888  13.886 -1.3623  0.4208  0.5265
 5114TIP3   OH236832   0.356   4.939  11.707 -0.1175 -0.1429  0.3596
 5114TIP3    H136833   0.324   4.977  11.788  2.3628  0.0142  1.3395
 5114TIP3    H236834   0.278   4.934  11.651 -1.2475  2.9744  1.4396
 5115TIP3   OH236835   4.494   6.047  10.377 -0.1216  0.3899 -0.5294
 5115TIP3    H136836   4.415   6.018  10.333 -1.4387 -0.3203  2.1152
 5115TIP3    H236837   4.486   6.143  10.382  0.2731  0.5338 -2.1012
 5116TIP3   OH236838   4.555   5.073  14.084 -0.1509  0.4478 -0.1369
 5116TIP3    H136839   4.513   5.030  14.159  0.0421  0.7901  0.1702
 5116TIP3    H236840   4.497   5.054  14.010 -0.6645  0.6215  0.2147
 5117TIP3   OH236841   4.871   6.675  14.460 -0.6459  0.0433 -0.1280
 5117TIP3    H136842   4.938   6.615  14.429 -1.9797 -1.7884  0.3333
 5117TIP3    H236843   4.918   6.737  14.517  0.6886 -0.8968 -0.1664
 5118TIP3   OH236844   0.834   0.792   0.748 -0.2308 -0.3957  0.3406
 5118TIP3    H136845   0.783   0.829   0.676  0.0626  2.5199  1.5061
 5118TIP3    H236846   0.788   0.711   0.770 -2.0252  0.1123 -1.1962
 5119TIP3   OH236847   5.668   1.345  11.345 -0.0544  0.0723  0.6152
 5119TIP3    H136848   5.573   1.340  11.332 -0.1388 -0.7830  1.4545
 5119TIP3    H236849   5.679   1.409  11.415  0.0085  0.4337  0.2727
 5120TIP3   OH236850   1.439   5.760  13.412 -0.5171 -0.1689  1.1903
 5120TIP3    H136851   1.435   5.712  13.494  0.8951  0.1122  1.4500
 5120TIP3    H236852   1.407   5.848  13.434 -0.9855 -0.3425  1.2204
 5121TIP3   OH236853   3.204   4.497   3.341 -0.3443  0.3943  0.4186
 5121TIP3    H136854   3.198   4.503   3.437  0.4071 -0.0628  0.5096
 5121TIP3    H236855   3.243   4.411   3.326 -0.9640  0.2342 -0.3297
 5122TIP3   OH236856   2.874   1.879  14.936 -0.1272  0.3479  0.1776
 5122TIP3    H136857   2.839   1.962  14.905 -2.5081 -0.0136  1.6245
 5122TIP3    H236858   2.845   1.874  15.028  1.1444 -1.4597  0.5402
 5123TIP3   OH236859   6.477   1.782   5.406  0.1973 -0.1909 -0.4687
 5123TIP3    H136860   6.519   1.800   5.322 -0.2106  1.6522 -0.3291
 5123TIP3    H236861   6.495   1.860   5.458 -0.5869 -0.7956  0.7456
 5124TIP3   OH236862   0.960   5.812   1.311 -0.0290  0.4843  0.1138
 5124TIP3    H136863   1.027   5.856   1.364 -0.6328  1.7207 -0.1110
 5124TIP3    H236864   0.949   5.869   1.235 -1.1373  0.1430  0.0035
 5125TIP3   OH236865   6.523   3.897  12.109  0.2117 -0.0363  0.4707
 5125TIP3    H136866   6.457   3.830  12.126  1.1955 -0.4832  2.9761
 5125TIP3    H236867   6.599   3.847  12.077 -0.8226  0.5687 -3.4730
 5126TIP3   OH236868   5.341   6.375  14.509 -0.2194 -0.3086  0.5558
 5126TIP3    H136869   5.426   6.352  14.470 -0.1949  1.2636 -0.3989
 5126TIP3    H236870   5.277   6.350  14.442 -0.3156  0.7580  0.2380
 5127TIP3   OH236871   3.087   3.721   0.231 -0.0294  0.4854 -0.1229
 5127TIP3    H136872   3.174   3.749   0.258  0.0684  1.8377 -1.6614
 5127TIP3    H236873   3.103   3.656   0.162 -0.2757 -1.0198  1.1753
 5128TIP3   OH236874   6.767   4.287  15.443 -0.1022  0.0952  0.1129
 5128TIP3    H136875   6.745   4.209  15.392  2.2547 -1.3798  1.1507
 5128TIP3    H236876   6.786   4.254  15.531  0.0101  1.9761  0.8444
 5129TIP3   OH236877   4.741   0.030   1.100 -0.7910  0.1327  0.3960
 5129TIP3    H136878   4.755  -0.002   1.190 -1.8453 -0.0857  0.4982
 5129TIP3    H236879   4.646   0.041   1.093 -0.6892  0.4931 -0.5843
 5130TIP3   OH236880   6.732   5.125   4.464 -0.0768  0.0054  0.3946
 5130TIP3    H136881   6.795   5.070   4.511  0.5053 -1.2806 -1.7503
 5130TIP3    H236882   6.768   5.213   4.469  0.3421 -0.2181  1.6944
 5131TIP3   OH236883   3.587   6.628  12.091 -0.2193 -0.4405 -0.0302
 5131TIP3    H136884   3.647   6.657  12.160 -1.3078 -0.7498  1.0830
 5131TIP3    H236885   3.552   6.710  12.055  0.2881 -0.2763 -0.1585
 5132TIP3   OH236886   5.640   1.610  11.971  0.3125  0.7287 -0.2281
 5132TIP3    H136887   5.622   1.641  12.059  1.8240 -1.6740  1.0351
 5132TIP3    H236888   5.590   1.529  11.962  0.7146  0.5717 -1.3190
 5133TIP3   OH236889   2.480   1.168  14.750  0.1521 -0.2095  0.5206
 5133TIP3    H136890   2.468   1.263  14.751  0.5867 -0.1579  0.9438
 5133TIP3    H236891   2.559   1.153  14.699 -1.1488 -0.5026 -1.5366
 5134TIP3   OH236892   1.699   2.575   2.012 -0.3939  0.3945  0.4556
 5134TIP3    H136893   1.780   2.524   2.020 -0.6653 -0.2973 -0.9229
 5134TIP3    H236894   1.666   2.581   2.102 -0.0930 -1.4346  0.7318
 5135TIP3   OH236895   4.831   6.429  15.798 -0.6774 -0.5354  0.3034
 5135TIP3    H136896   4.872   6.506  15.837 -0.6086  1.4608 -3.3231
 5135TIP3    H236897   4.746   6.423  15.841 -0.6294  1.4919  0.7582
 5136TIP3   OH236898   0.144   0.193  13.454  0.4308 -0.1722  0.6227
 5136TIP3    H136899   0.135   0.152  13.540  0.2414  3.0027  2.2525
 5136TIP3    H236900   0.236   0.221  13.451  0.5820 -0.7336 -0.5038
 5137TIP3   OH236901   2.255   6.039  14.826  0.8162 -0.5440  0.2484
 5137TIP3    H136902   2.274   5.950  14.797 -0.5272 -0.8276  0.1640
 5137TIP3    H236903   2.337   6.087  14.813  0.9933 -1.2608 -1.6722
 5138TIP3   OH236904   4.790   0.897  13.128 -0.1755 -0.5442 -0.2318
 5138TIP3    H136905   4.851   0.829  13.101 -1.5982 -1.5911 -0.9390
 5138TIP3    H236906   4.770   0.944  13.048 -0.1602 -0.0839  0.0321
 5139TIP3   OH236907   0.054   3.755   0.934 -0.0051 -0.2643  0.7536
 5139TIP3    H136908   0.118   3.804   0.882  0.5401 -0.7469  0.9648
 5139TIP3    H236909   0.026   3.818   1.000  0.2913 -0.0645  0.6963
 5140TIP3   OH236910   5.764   6.493  12.074 -0.0142  0.1939 -0.0862
 5140TIP3    H136911   5.739   6.519  11.985  1.4977  3.2701  0.2423
 5140TIP3    H236912   5.849   6.452  12.064 -0.1771 -0.1393 -0.1187
 5141TIP3   OH236913   6.638   3.997  14.739  0.3665 -0.4389  0.2425
 5141TIP3    H136914   6.682   3.939  14.802  0.0460  0.5989  1.4496
 5141TIP3    H236915   6.681   4.082  14.750 -0.4948  0.0534 -0.1086
 5142TIP3   OH236916   4.796   3.763   2.705  0.4342 -0.3396 -0.3277
 5142TIP3    H136917   4.734   3.820   2.660 -1.2568 -2.4048 -0.7232
 5142TIP3    H236918   4.830   3.705   2.637 -0.2091 -1.8111  0.5646
 5143TIP3   OH236919   3.013   5.152   4.122 -0.5534  0.3464 -0.4711
 5143TIP3    H136920   3.060   5.071   4.142 -0.9869  0.3647  0.7360
 5143TIP3    H236921   3.065   5.194   4.054  1.4598  0.5808  1.0900
 5144TIP3   OH236922   2.755   5.898   0.268 -0.3941 -0.3532  0.1015
 5144TIP3    H136923   2.807   5.924   0.344 -0.6837  0.1134  0.1429
 5144TIP3    H236924   2.772   5.804   0.257 -1.6027 -0.8005  1.7266
 5145TIP3   OH236925   1.244   4.305  14.757 -0.0409  0.1521  0.3194
 5145TIP3    H136926   1.245   4.320  14.663  0.2912 -3.4071 -0.3745
 5145TIP3    H236927   1.170   4.246  14.772  0.6078 -0.2917  2.0679
 5146TIP3   OH236928   4.122   6.605   1.004  0.4927  0.5080  0.7250
 5146TIP3    H136929   4.202   6.601   1.057 -0.2231  0.3684  1.8415
 5146TIP3    H236930   4.143   6.664   0.932  1.2116  1.4825  1.6958
 5147TIP3   OH236931   6.180   1.739  15.138 -0.0538 -0.0690 -0.4994
 5147TIP3    H136932   6.269   1.769  15.157  0.1302 -0.5706 -0.5413
 5147TIP3    H236933   6.125   1.816  15.152  0.2817  0.0221  0.4060
 5148TIP3   OH236934   6.467   0.280  16.731  0.1423 -0.5220 -0.1955
 5148TIP3    H136935   6.436   0.279  16.821  1.4077 -2.0893  0.2704
 5148TIP3    H236936   6.520   0.360  16.725 -0.3188 -0.1708  0.3036
 5149TIP3   OH236937   6.284   0.522  15.857 -0.6185 -0.0389 -0.3498
 5149TIP3    H136938   6.241   0.508  15.941 -0.4056  0.0705 -0.2246
 5149TIP3    H236939   6.353   0.586  15.874  0.6206 -1.3691 -0.2232
 5150TIP3   OH236940   3.662   3.797   5.025 -0.6056 -0.0321 -0.2475
 5150TIP3    H136941   3.618   3.743   4.958 -0.7712 -0.4406  0.1874
 5150TIP3    H236942   3.752   3.806   4.992 -1.1061  1.1924 -1.3770
 5151TIP3   OH236943   5.657   3.306   0.902  0.4086  0.2640 -0.2913
 5151TIP3    H136944   5.713   3.229   0.884  2.0743  1.3253  0.1106
 5151TIP3    H236945   5.625   3.291   0.991 -1.5549 -1.2633 -1.1821
 5152TIP3   OH236946   1.399   3.571  16.298  0.1645 -0.6586 -0.1232
 5152TIP3    H136947   1.361   3.645  16.347  0.6235 -0.4000 -0.1517
 5152TIP3    H236948   1.336   3.553  16.229 -1.3428 -2.1198  1.5243
 5153TIP3   OH236949   1.476   2.093  11.372  0.3216  0.0807  0.6205
 5153TIP3    H136950   1.385   2.075  11.350  0.5865 -1.1032  0.4166
 5153TIP3    H236951   1.473   2.128  11.461 -0.3695  0.5301  0.4212
 5154TIP3   OH236952   2.708   3.135   4.140 -0.8543  0.2482 -0.3029
 5154TIP3    H136953   2.645   3.086   4.086 -0.6312 -2.2274  1.4881
 5154TIP3    H236954   2.662   3.150   4.222 -0.1964  1.3500 -0.1174
 5155TIP3   OH236955   2.138   0.117   3.393 -0.0722  0.3806  0.0071
 5155TIP3    H136956   2.048   0.084   3.388  0.2209 -0.3620 -0.6839
 5155TIP3    H236957   2.131   0.209   3.370 -0.5249  0.0683 -1.1770
 5156TIP3   OH236958   3.492   2.124   1.680 -0.1575  0.4218 -0.0855
 5156TIP3    H136959   3.448   2.093   1.759  1.5864 -1.0962  0.3703
 5156TIP3    H236960   3.584   2.131   1.705 -0.1161  4.1484 -0.7745
 5157TIP3   OH236961   3.388   3.592  12.598 -0.3327  0.2329  0.0589
 5157TIP3    H136962   3.357   3.618  12.685  0.8646  1.2334  0.2234
 5157TIP3    H236963   3.459   3.530  12.615 -0.8902 -0.5098 -0.2546
 5158TIP3   OH236964   0.006   2.381   5.028  0.4240  0.1841 -0.5665
 5158TIP3    H136965   0.070   2.447   5.056  0.3174  0.1873 -0.3243
 5158TIP3    H236966  -0.073   2.432   5.008 -0.1278  0.0200  1.0041
 5159TIP3   OH236967   5.926   3.702   5.848  0.0636  0.1119 -0.2775
 5159TIP3    H136968   5.939   3.644   5.923 -0.3086 -0.5599 -0.7136
 5159TIP3    H236969   6.008   3.696   5.799  0.0275 -0.0433 -0.3193
 5160TIP3   OH236970   6.160   6.573  16.640  0.5031  0.6894 -0.1462
 5160TIP3    H136971   6.177   6.598  16.731 -0.4226  1.2116 -0.0976
 5160TIP3    H236972   6.069   6.544  16.640  0.6019  0.3628 -0.8428
 5161TIP3   OH236973   5.401   3.616   5.354  0.2808 -0.0029 -0.5704
 5161TIP3    H136974   5.377   3.614   5.261  3.6065  2.6993 -1.7096
 5161TIP3    H236975   5.331   3.667   5.395 -0.9435 -0.7195 -1.7029
 5162TIP3   OH236976   1.959   4.471   5.631 -0.5667  0.2790 -0.2615
 5162TIP3    H136977   2.037   4.486   5.684 -1.7953  0.0075  1.7464
 5162TIP3    H236978   1.984   4.401   5.571  0.6211 -0.0496  0.5761
 5163TIP3   OH236979   6.466   6.398  10.687 -0.1800  0.4265  0.7204
 5163TIP3    H136980   6.537   6.391  10.751 -0.5200  0.0555  1.0631
 5163TIP3    H236981   6.402   6.455  10.729 -1.0706 -0.9816  1.3507
 5164TIP3   OH236982   1.572   1.385  13.738 -0.2848  0.4948 -0.1054
 5164TIP3    H136983   1.547   1.411  13.826  0.9876 -0.1938  0.4881
 5164TIP3    H236984   1.642   1.445  13.714  0.9574 -0.7310  0.2952
 5165TIP3   OH236985   1.782   1.373  16.219  0.2473 -0.0503 -0.3472
 5165TIP3    H136986   1.730   1.412  16.290  1.2962  1.9289 -0.6059
 5165TIP3    H236987   1.718   1.355  16.150 -0.6258 -0.9979  0.6690
 5166TIP3   OH236988   4.909   1.118   2.977  0.1615  0.0386 -0.0483
 5166TIP3    H136989   4.851   1.043   2.966 -1.6146  1.0968  1.4786
 5166TIP3    H236990   4.970   1.091   3.046 -0.8873  0.1834  0.9662
 5167TIP3   OH236991   0.853   2.276  13.280  0.0143 -0.3164  0.1122
 5167TIP3    H136992   0.881   2.356  13.324  0.6075  0.2814 -1.3041
 5167TIP3    H236993   0.759   2.270  13.300 -0.0682  0.8102  0.1266
 5168TIP3   OH236994   1.576   4.202   2.405  0.3431 -0.2706 -0.3501
 5168TIP3    H136995   1.584   4.231   2.496 -2.7860 -0.6287  0.1536
 5168TIP3    H236996   1.567   4.283   2.355  0.9962 -0.1095 -0.2154
 5169TIP3   OH236997   3.532   6.182  13.753  0.2307 -0.0905 -0.3082
 5169TIP3    H136998   3.614   6.211  13.714  0.6039 -0.7631 -0.0398
 5169TIP3    H236999   3.544   6.089  13.769 -0.3952 -0.0938  0.2136
 5170TIP3   OH237000   4.782   3.415  13.880  0.0447  0.1417 -0.6829
 5170TIP3    H137001   4.856   3.477  13.881 -0.6894  1.0394 -0.1990
 5170TIP3    H237002   4.820   3.332  13.909  0.8506  0.6145 -0.3320
 5171TIP3   OH237003   1.557   0.765   2.876 -0.2340 -0.3070  0.0417
 5171TIP3    H137004   1.652   0.764   2.878 -0.1734  0.2611 -1.3620
 5171TIP3    H237005   1.532   0.830   2.942  0.3972  0.2319 -0.2409
 5172TIP3   OH237006   2.716   4.056  17.018  0.0177 -0.1281 -0.0799
 5172TIP3    H137007   2.733   4.090  17.106 -0.6479  0.5488 -0.2016
 5172TIP3    H237008   2.737   3.962  17.024  0.7427  0.0638  0.5798
 5173TIP3   OH237009   4.409   5.470  12.793 -0.8394  0.3785  0.1158
 5173TIP3    H137010   4.346   5.538  12.767 -0.9167  0.2804  0.0455
 5173TIP3    H237011   4.355   5.392  12.806 -1.0563  0.7849  2.1265
 5174TIP3   OH237012   1.727   1.496  15.662  0.0162  0.6683 -0.0759
 5174TIP3    H137013   1.795   1.447  15.707  0.2851  1.6074  0.5602
 5174TIP3    H237014   1.646   1.476  15.709  0.2400  1.3702  0.6266
 5175TIP3   OH237015   1.936   0.298  13.970 -0.0518  0.3244  0.7183
 5175TIP3    H137016   1.891   0.222  13.933  1.4111 -0.2936  0.1332
 5175TIP3    H237017   2.029   0.274  13.967  0.5650  2.6781 -0.7530
 5176TIP3   OH237018   6.605   4.632   4.402  0.5698 -0.1446  0.5024
 5176TIP3    H137019   6.521   4.588   4.407  0.3485  0.1655 -0.3251
 5176TIP3    H237020   6.583   4.725   4.390  1.0085 -0.1318 -0.3202
 5177TIP3   OH237021   0.081   0.188   1.826  0.1839 -0.0495  0.6189
 5177TIP3    H137022   0.008   0.149   1.874 -2.2038  1.1956 -1.7542
 5177TIP3    H237023   0.158   0.165   1.878 -1.8655 -1.1596  3.4669
 5178TIP3   OH237024   1.170   3.978  13.188 -0.0062 -0.3829 -0.0735
 5178TIP3    H137025   1.121   4.012  13.263 -1.3390 -1.3217 -0.4788
 5178TIP3    H237026   1.257   3.960  13.223 -0.4298 -0.2535  1.1053
 5179TIP3   OH237027   2.472   6.638  14.033 -0.0918  0.4496  0.4617
 5179TIP3    H137028   2.489   6.546  14.054  0.4873 -0.3615 -2.9538
 5179TIP3    H237029   2.383   6.654  14.065 -0.6651 -1.6985  0.0911
 5180TIP3   OH237030   1.334   1.879  13.305  0.4959 -0.5660 -0.2199
 5180TIP3    H137031   1.357   1.970  13.325 -0.2666  0.1404 -2.3036
 5180TIP3    H237032   1.302   1.844  13.388  0.8150  1.0678  0.6380
 5181TIP3   OH237033   0.123   1.877   1.466  0.1881 -0.4341 -0.1140
 5181TIP3    H137034   0.083   1.964   1.476  1.1590  0.0478 -0.3283
 5181TIP3    H237035   0.203   1.893   1.416  0.4721 -1.4347 -0.0008
 5182TIP3   OH237036   2.252   6.380  16.057 -0.3196 -0.6102  0.7953
 5182TIP3    H137037   2.261   6.343  15.969  0.7068 -0.0527  0.6459
 5182TIP3    H237038   2.177   6.334  16.094 -0.9104 -0.7055 -0.4426
 5183TIP3   OH237039   2.075   0.799   1.003 -0.0362 -0.5019 -0.2407
 5183TIP3    H137040   2.082   0.871   0.941  0.3424 -0.4570 -0.1503
 5183TIP3    H237041   2.160   0.798   1.048 -0.9199  0.6405  1.5626
 5184TIP3   OH237042   1.389   6.435   5.240 -0.2790  0.2380 -0.6779
 5184TIP3    H137043   1.370   6.499   5.310  0.4600 -0.7038  0.4305
 5184TIP3    H237044   1.310   6.434   5.186 -1.1538  0.5122  0.5491
 5185TIP3   OH237045   4.239   0.751  11.237  0.1660  0.3410 -0.1097
 5185TIP3    H137046   4.224   0.677  11.178 -0.5811  0.5188 -0.1581
 5185TIP3    H237047   4.152   0.792  11.246  0.5910  1.2940 -0.1971
 5186TIP3   OH237048   4.837   4.342  12.273 -0.4092 -0.2054 -0.1064
 5186TIP3    H137049   4.923   4.348  12.316 -1.2724  0.2674  1.6472
 5186TIP3    H237050   4.831   4.251  12.245 -0.1614 -0.8075  1.6517
 5187TIP3   OH237051   4.448   5.562   3.730  0.5958  0.7017 -0.1833
 5187TIP3    H137052   4.404   5.609   3.659 -1.1134  0.6114  0.7676
 5187TIP3    H237053   4.383   5.556   3.799  1.7797 -0.4125  0.8955
 5188TIP3   OH237054   2.952   5.545  16.442  0.2311  0.2687  0.4504
 5188TIP3    H137055   2.890   5.505  16.502  0.6048 -0.7624  0.1676
 5188TIP3    H237056   2.992   5.616  16.493 -0.2425  0.1117  1.0520
 5189TIP3   OH237057   3.326   0.218   3.358 -0.3168 -0.1187 -0.1025
 5189TIP3    H137058   3.406   0.169   3.374 -0.3376 -0.1716 -0.1574
 5189TIP3    H237059   3.280   0.167   3.291 -0.9690 -0.7321  0.8002
 5190TIP3   OH237060   1.021   2.611   0.189 -0.0215  0.0997 -0.0867
 5190TIP3    H137061   1.002   2.589   0.098 -3.1607 -1.0139  0.7306
 5190TIP3    H237062   1.082   2.544   0.218 -2.8139 -2.6580 -0.0855
 5191TIP3   OH237063   3.943   5.533  16.935 -0.5608 -0.1619 -0.6229
 5191TIP3    H137064   3.937   5.482  16.854 -0.7050  0.3878 -0.9583
 5191TIP3    H237065   3.884   5.607  16.922 -1.1105 -0.4300  0.2536
 5192TIP3   OH237066   1.826   4.610   6.435  0.0736 -0.2743 -0.0582
 5192TIP3    H137067   1.833   4.591   6.529  0.0561 -0.5736 -0.1159
 5192TIP3    H237068   1.822   4.705   6.430  0.1778 -0.2523  0.2397
 5193TIP3   OH237069   3.936   0.970   3.719 -0.5044 -0.2825 -0.2601
 5193TIP3    H137070   3.860   0.918   3.746  0.0137 -0.1968  1.5438
 5193TIP3    H237071   3.986   0.981   3.800  1.1713  0.0929 -1.3151
 5194TIP3   OH237072   6.246   5.466  15.716  0.5411 -0.4861  0.0783
 5194TIP3    H137073   6.316   5.452  15.652 -0.8823  1.3146 -2.0605
 5194TIP3    H237074   6.199   5.383  15.718  0.1998 -0.3968 -1.8759
 5195TIP3   OH237075   3.455   3.427  17.002 -0.1770  0.1770 -0.2823
 5195TIP3    H137076   3.501   3.510  17.016  2.3883 -1.2810  0.6680
 5195TIP3    H237077   3.416   3.435  16.915  1.8246  1.6133 -1.1328
 5196TIP3   OH237078   0.834   1.485   2.416 -0.2437 -0.1259 -0.2155
 5196TIP3    H137079   0.905   1.438   2.460 -1.0762 -1.4530 -0.2220
 5196TIP3    H237080   0.794   1.538   2.485 -0.3274 -0.7063  0.1865
 5197TIP3   OH237081   2.060   2.791   2.765 -0.1495 -0.3932 -0.0977
 5197TIP3    H137082   2.073   2.738   2.844  1.6051 -0.4717 -0.3967
 5197TIP3    H237083   2.142   2.782   2.717  0.7783  3.6063  0.4177
 5198TIP3   OH237084   4.976   3.575  12.638  0.2154  0.4994 -0.4835
 5198TIP3    H137085   4.943   3.526  12.563 -0.6569 -0.6027  0.5738
 5198TIP3    H237086   5.060   3.535  12.658 -1.1275 -1.7102  1.2789
 5199TIP3   OH237087   6.317   0.849   1.277 -0.5762 -0.0136  0.0581
 5199TIP3    H137088   6.248   0.827   1.340 -0.2605  1.5625  0.9857
 5199TIP3    H237089   6.379   0.776   1.284 -1.6024 -0.9288 -0.0361
 5200TIP3   OH237090   3.337   3.586  11.728  0.6036 -0.0707 -0.0545
 5200TIP3    H137091   3.426   3.580  11.763  0.2107  0.8865  1.1511
 5200TIP3    H237092   3.295   3.505  11.758  0.2699  0.7365  1.7710
 5201TIP3   OH237093   2.298   6.009  16.180 -0.3222 -0.3139  0.2663
 5201TIP3    H137094   2.331   5.959  16.105 -0.3741 -2.0595  1.3592
 5201TIP3    H237095   2.363   5.995  16.248 -0.6965  0.5816  0.8232
 5202TIP3   OH237096   4.006   1.716   3.889  0.1107 -0.3396  0.7350
 5202TIP3    H137097   4.069   1.738   3.820  1.0373 -0.8763  1.3942
 5202TIP3    H237098   3.938   1.783   3.881 -0.1597 -0.7603 -1.1271
 5203TIP3   OH237099   3.196   6.535  13.361 -0.0756  0.5572 -0.3315
 5203TIP3    H137100   3.122   6.540  13.423  0.8452  2.3748  0.6954
 5203TIP3    H237101   3.227   6.625  13.353  2.1058 -0.1670 -0.6673
 5204TIP3   OH237102   6.642   5.760  12.324  0.4783 -0.2239  0.4109
 5204TIP3    H137103   6.678   5.833  12.274  0.1319  0.1996  0.7738
 5204TIP3    H237104   6.718   5.708  12.349  0.8166  0.5068  0.9283
 5205TIP3   OH237105   1.820   1.517  16.798 -0.4726 -0.3391 -0.4363
 5205TIP3    H137106   1.731   1.540  16.771 -0.4548  1.0195  0.5672
 5205TIP3    H237107   1.857   1.598  16.833  1.5024 -0.6325 -1.6575
 5206TIP3   OH237108   2.709   5.047  14.420 -0.3143 -0.3473 -0.2334
 5206TIP3    H137109   2.636   4.991  14.449  0.1998 -0.8342  0.1445
 5206TIP3    H237110   2.759   4.992  14.360 -0.0235 -0.1622 -0.1623
 5207TIP3   OH237111   5.739   3.622   0.010  0.6505 -0.5684  0.1284
 5207TIP3    H137112   5.793   3.678   0.067 -1.9940 -0.4055  2.7743
 5207TIP3    H237113   5.691   3.684  -0.045  1.5201 -0.5783 -0.6489
 5208TIP3   OH237114   6.224   1.987   2.468 -0.2360 -0.2377 -0.4379
 5208TIP3    H137115   6.209   1.914   2.408  0.8104 -0.5543 -0.3431
 5208TIP3    H237116   6.232   1.945   2.554  1.8213 -0.2149 -0.5676
 5209TIP3   OH237117   0.205   2.913   6.638  0.1414  0.1854 -0.2234
 5209TIP3    H137118   0.119   2.954   6.629 -0.1060 -0.5137 -1.2504
 5209TIP3    H237119   0.203   2.840   6.577  1.4485  0.1175 -0.2132
 5210TIP3   OH237120   5.610   6.770   5.394 -0.0314  0.0000 -0.1893
 5210TIP3    H137121   5.530   6.744   5.439  0.6948 -2.3527 -0.1580
 5210TIP3    H237122   5.672   6.788   5.465 -0.4749  1.8143 -0.2135
 5211TIP3   OH237123   0.998   0.577  11.824 -0.1447  0.0420 -0.2497
 5211TIP3    H137124   1.086   0.542  11.821 -0.0180  0.3304  0.0288
 5211TIP3    H237125   0.975   0.578  11.917 -0.3539  0.1790 -0.3009
 5212TIP3   OH237126   2.857   5.932  14.538 -0.2463 -0.1654  0.1563
 5212TIP3    H137127   2.870   6.024  14.514  0.7620 -0.5999 -1.0693
 5212TIP3    H237128   2.894   5.926  14.627  1.2422  0.2787 -0.4001
 5213TIP3   OH237129   3.461   6.082  14.255  0.3206  0.4752  0.1819
 5213TIP3    H137130   3.479   6.044  14.341  2.4687  0.7824 -0.0815
 5213TIP3    H237131   3.479   6.176  14.266 -1.5748  0.9011 -0.0579
 5214TIP3   OH237132   0.946   4.342   5.556 -0.8023  0.0527 -0.0178
 5214TIP3    H137133   1.016   4.401   5.584 -0.5916 -0.6153  0.8933
 5214TIP3    H237134   0.867   4.381   5.592 -0.8693  0.6136 -0.7440
 5215TIP3   OH237135   3.178   6.117   4.265 -0.1530  0.0541 -0.5983
 5215TIP3    H137136   3.126   6.114   4.345  0.0715 -0.9797 -0.4697
 5215TIP3    H237137   3.135   6.054   4.206 -0.0030  0.4064 -1.0897
 5216TIP3   OH237138   6.445   2.451  13.860 -0.4579 -0.4964 -0.7055
 5216TIP3    H137139   6.437   2.369  13.909  0.9205 -0.4294 -0.3112
 5216TIP3    H237140   6.426   2.519  13.924 -2.4956 -0.4833 -1.2440
 5217TIP3   OH237141   6.056   5.584   3.009 -0.5582 -0.0753  0.0068
 5217TIP3    H137142   6.135   5.637   3.023  1.0750 -2.8198  2.4923
 5217TIP3    H237143   5.996   5.612   3.079  0.9443 -2.3214  2.3998
 5218TIP3   OH237144   5.458   0.044   6.413 -0.5440 -0.0073  0.2968
 5218TIP3    H137145   5.505   0.128   6.417 -0.8509  0.1811  0.0071
 5218TIP3    H237146   5.411   0.039   6.497  0.9367 -0.7674  1.1227
 5219TIP3   OH237147   6.442   0.568   2.509  0.1517 -0.2241  0.7562
 5219TIP3    H137148   6.401   0.572   2.596  1.1219 -0.6478  1.2532
 5219TIP3    H237149   6.531   0.600   2.523 -0.1404  1.1838 -0.4026
 5220TIP3   OH237150   5.193   3.405   0.263  0.0173 -0.3426 -0.3288
 5220TIP3    H137151   5.241   3.464   0.322 -1.6406 -0.3696  1.1351
 5220TIP3    H237152   5.177   3.326   0.316  0.5631 -1.3653 -1.6434
 5221TIP3   OH237153   4.004   1.698  16.381 -0.1224  0.1890 -0.3661
 5221TIP3    H137154   4.086   1.747  16.386 -0.0551  0.2605 -1.7312
 5221TIP3    H237155   4.028   1.609  16.408  0.0132  0.6047  0.9378
 5222TIP3   OH237156   3.422   6.483  10.663  0.1674 -0.5973  0.4331
 5222TIP3    H137157   3.449   6.428  10.589 -1.6077 -1.0553  0.0836
 5222TIP3    H237158   3.414   6.571  10.626  1.5869 -0.3319  0.6665
 5223TIP3   OH237159   1.687   3.948  10.112  0.0890 -0.3162 -0.2111
 5223TIP3    H137160   1.721   3.863  10.084  1.5150  0.0310  0.3379
 5223TIP3    H237161   1.721   4.010  10.048 -0.4929 -0.0830 -0.3028
 5224TIP3   OH237162   6.248   2.728  16.362 -0.0129 -0.6303  0.1222
 5224TIP3    H137163   6.159   2.753  16.387 -0.1907 -1.4887  0.3754
 5224TIP3    H237164   6.246   2.724  16.266 -0.3590 -1.0390  0.1433
 5225TIP3   OH237165   0.617   6.675  12.246 -0.8309 -0.2070 -0.1046
 5225TIP3    H137166   0.682   6.646  12.182 -2.7904  0.1114 -2.3812
 5225TIP3    H237167   0.628   6.770  12.249 -0.8619 -0.2034 -0.1073
 5226TIP3   OH237168   1.711   3.395   3.539 -0.4220 -0.6122  0.5705
 5226TIP3    H137169   1.676   3.484   3.540 -0.9220 -0.7702 -0.9462
 5226TIP3    H237170   1.636   3.340   3.515 -0.2577 -1.5331  1.9956
 5227TIP3   OH237171   6.255   5.689  12.094 -0.0683 -0.0576 -0.1309
 5227TIP3    H137172   6.255   5.775  12.052 -0.4782 -1.1344 -2.5366
 5227TIP3    H237173   6.347   5.667  12.106  0.0893 -0.0037 -1.1788
 5228TIP3   OH237174   0.229   3.226   3.680 -0.3188 -0.8220  0.2964
 5228TIP3    H137175   0.193   3.312   3.660  0.6242 -0.9760 -2.5664
 5228TIP3    H237176   0.323   3.241   3.693 -0.2594 -1.3217  0.4685
 5229TIP3   OH237177   2.791   3.124  12.157  0.1096  0.6177 -0.0231
 5229TIP3    H137178   2.881   3.094  12.141  0.0163  0.8519 -1.0496
 5229TIP3    H237179   2.748   3.118  12.071 -0.9902  0.0721  0.5419
 5230TIP3   OH237180   2.276   4.370  13.180  0.0200  1.1298 -0.2717
 5230TIP3    H137181   2.300   4.350  13.271 -0.5287 -1.7132 -0.6479
 5230TIP3    H237182   2.257   4.284  13.141  0.6045  2.2115 -3.1967
 5231TIP3   OH237183   6.764   4.361   5.492  0.5311 -0.2103  0.5622
 5231TIP3    H137184   6.710   4.440   5.493 -0.5541 -0.9330  2.0991
 5231TIP3    H237185   6.728   4.309   5.420  0.3924  0.1172  0.3933
 5232TIP3   OH237186   4.396   4.147   3.711 -0.6065 -0.0012 -0.9405
 5232TIP3    H137187   4.472   4.092   3.696 -0.2061  0.8181 -2.0568
 5232TIP3    H237188   4.381   4.191   3.627  0.3209  3.1046  0.3605
 5233TIP3   OH237189   1.466   6.317   0.934  0.0816 -0.7440  0.5061
 5233TIP3    H137190   1.505   6.384   0.878  1.0248 -0.4779  1.4550
 5233TIP3    H237191   1.372   6.318   0.912  0.1373  0.6513  0.2732
 5234TIP3   OH237192   2.309   6.824  16.536  0.0383 -0.1188 -0.1797
 5234TIP3    H137193   2.274   6.800  16.621 -0.3903  2.8068  0.5836
 5234TIP3    H237194   2.237   6.810  16.475  0.1012 -1.4874  0.0337
 5235TIP3   OH237195   4.650   0.038  15.233  0.3205 -0.7658 -0.5660
 5235TIP3    H137196   4.667   0.125  15.269 -2.9886 -0.2824  0.1544
 5235TIP3    H237197   4.731  -0.010  15.248  1.7300  1.7016  0.4121
 5236TIP3   OH237198   5.567   4.538   2.172  0.5110 -0.3610  0.0425
 5236TIP3    H137199   5.530   4.559   2.257  1.8436 -1.0657  0.8204
 5236TIP3    H237200   5.503   4.572   2.109 -0.9211 -0.6392  1.3101
 5237TIP3   OH237201   6.522   4.559  11.409 -0.4455 -0.6229  0.5392
 5237TIP3    H137202   6.502   4.586  11.320 -1.0052 -0.0602  0.8275
 5237TIP3    H237203   6.464   4.484  11.425 -0.9566 -0.1915  0.7183
 5238TIP3   OH237204   6.638   0.696  12.851 -0.4418  0.1902 -0.3583
 5238TIP3    H137205   6.565   0.701  12.790 -0.2452 -1.7306 -0.8080
 5238TIP3    H237206   6.703   0.640  12.808 -0.5802 -1.8295  1.7950
 5239TIP3   OH237207   5.504   5.543  16.916 -0.6367 -0.0161 -0.3248
 5239TIP3    H137208   5.429   5.576  16.966  1.6434  0.4536  3.1952
 5239TIP3    H237209   5.531   5.464  16.962  0.7037 -0.4918 -1.8346
 5240TIP3   OH237210   0.065   2.963  13.751 -0.0203 -0.2974 -0.2667
 5240TIP3    H137211  -0.024   2.981  13.781 -1.1219 -0.9573 -2.8963
 5240TIP3    H237212   0.099   3.049  13.725 -0.0324 -0.1036  0.3487
 5241TIP3   OH237213   3.500   6.619  17.026 -0.0546  0.0025 -0.0280
 5241TIP3    H137214   3.568   6.642  16.964  0.5990 -1.9146 -0.0621
 5241TIP3    H237215   3.430   6.684  17.010  0.5258  0.1999 -1.9941
 5242TIP3   OH237216   2.090   2.609  15.707 -0.3505  0.3218  0.0648
 5242TIP3    H137217   2.098   2.515  15.726  3.4864  0.3309 -0.8357
 5242TIP3    H237218   2.163   2.649  15.753  1.9225  1.9398 -4.3693
 5243TIP3   OH237219   0.969   3.555  15.750  0.2785 -0.2511  0.1123
 5243TIP3    H137220   0.961   3.620  15.820 -1.0455  0.7979 -0.9585
 5243TIP3    H237221   0.928   3.476  15.785 -0.3671  0.2617  0.5300
 5244TIP3   OH237222   3.859   1.134  16.075 -0.3284 -0.0053 -0.4583
 5244TIP3    H137223   3.880   1.221  16.042 -0.9500 -0.1410 -1.2281
 5244TIP3    H237224   3.918   1.075  16.027  1.5048  0.1311  1.4536
 5245TIP3   OH237225   2.487   3.933  12.623 -0.2808 -0.1152 -0.2078
 5245TIP3    H137226   2.551   3.878  12.668  0.2984  0.3295 -0.4658
 5245TIP3    H237227   2.501   4.020  12.661 -0.3007  0.1073 -0.7103
 5246TIP3   OH237228   2.456   0.380   3.559 -0.5041 -0.5908  0.2724
 5246TIP3    H137229   2.505   0.402   3.638  0.0201  0.2823 -0.2800
 5246TIP3    H237230   2.415   0.296   3.579 -0.3546 -0.4009  1.4567
 5247TIP3   OH237231   4.576   6.338  13.849  0.3759  0.3976 -0.7334
 5247TIP3    H137232   4.567   6.243  13.853  0.0512  0.4380 -0.3766
 5247TIP3    H237233   4.490   6.371  13.875  0.7707  0.7957  0.1022
 5248TIP3   OH237234   6.119   3.546  11.754 -0.0973 -0.3878  0.0115
 5248TIP3    H137235   6.126   3.489  11.678 -0.4454  0.0171 -0.3311
 5248TIP3    H237236   6.208   3.579  11.768 -0.5736  2.2908 -2.3928
 5249TIP3   OH237237   1.929   4.777  17.158  0.1710  0.2746  0.0038
 5249TIP3    H137238   1.902   4.810  17.073  2.4203  3.4399  0.3582
 5249TIP3    H237239   1.915   4.850  17.218  0.1932 -1.3193  2.0873
 5250TIP3   OH237240   4.686   0.713   0.241 -0.4596  0.0842 -0.4803
 5250TIP3    H137241   4.753   0.777   0.219 -0.4622  0.3613  0.3058
 5250TIP3    H237242   4.728   0.628   0.228  0.0802  0.2571  0.1131
 5251TIP3   OH237243   0.701   3.059   5.842  0.0886  0.1721 -0.0098
 5251TIP3    H137244   0.701   3.128   5.909 -2.4556 -2.4402  3.0511
 5251TIP3    H237245   0.746   2.986   5.884  0.2146 -0.9434 -2.0003
 5252TIP3   OH237246   2.812   1.828   4.467  0.3053  0.2873  0.2430
 5252TIP3    H137247   2.731   1.871   4.438 -0.3255 -1.1308 -0.1681
 5252TIP3    H237248   2.881   1.874   4.419 -0.6458 -1.5897 -3.3149
 5253TIP3   OH237249   2.825   5.220  15.411 -0.3629 -0.3453  0.4061
 5253TIP3    H137250   2.871   5.149  15.365  0.9347  1.0131 -0.5124
 5253TIP3    H237251   2.850   5.299  15.362 -2.5611  0.6400  0.7962
 5254TIP3   OH237252   1.001   2.672   3.323  0.0517  0.1241  0.2313
 5254TIP3    H137253   1.015   2.757   3.365  0.7223  0.0416  0.1777
 5254TIP3    H237254   0.963   2.694   3.238 -1.2111  0.2964  0.8097
 5255TIP3   OH237255   1.265   1.080  14.280 -0.5316 -0.3381 -0.3675
 5255TIP3    H137256   1.336   1.083  14.216  0.3423  1.1101  0.6067
 5255TIP3    H237257   1.235   0.989  14.279  0.6153 -0.7310 -1.5672
 5256TIP3   OH237258   1.572   5.451   5.527 -0.0624  0.5608  0.1755
 5256TIP3    H137259   1.534   5.443   5.439  2.2388  0.7872 -0.9147
 5256TIP3    H237260   1.509   5.504   5.576 -1.5327  0.1965 -1.2386
 5257TIP3   OH237261   4.560   5.562  16.899 -0.2403  0.0840  0.2930
 5257TIP3    H137262   4.514   5.574  16.816  0.6943 -1.5828 -0.5324
 5257TIP3    H237263   4.635   5.621  16.893  0.9256 -1.4405 -0.9809
 5258TIP3   OH237264   5.904   4.974  15.550 -0.4180 -0.3507  0.4478
 5258TIP3    H137265   5.948   4.927  15.622  0.8927  0.3284  0.1149
 5258TIP3    H237266   5.949   5.058  15.545 -2.6800  0.9720  0.9809
 5259TIP3   OH237267   3.245   2.561   5.241 -0.3474  0.2824  0.2008
 5259TIP3    H137268   3.330   2.598   5.267  0.3612 -1.5677  0.6365
 5259TIP3    H237269   3.181   2.612   5.290  0.3793  2.4804 -0.9918
 5260TIP3   OH237270   4.976   6.217  15.738 -0.7722  0.5334 -0.3234
 5260TIP3    H137271   4.922   6.292  15.762 -0.4644  0.6435  0.0429
 5260TIP3    H237272   5.030   6.201  15.816 -0.9651 -0.1832 -0.3308
 5261TIP3   OH237273   2.993   2.475  13.655  0.1505 -0.1044  0.7639
 5261TIP3    H137274   2.985   2.512  13.743 -0.1227 -0.7006  0.9906
 5261TIP3    H237275   2.970   2.383  13.665  0.5106 -0.2666  0.1396
 5262TIP3   OH237276   6.302   4.549  12.298  0.1320  0.0982  0.3895
 5262TIP3    H137277   6.246   4.472  12.289 -0.5743  0.5383  0.9782
 5262TIP3    H237278   6.263   4.615  12.241  0.3063  0.2676  0.4616
 5263TIP3   OH237279   5.365   3.947   4.827  0.0962  0.0525 -0.0178
 5263TIP3    H137280   5.392   3.978   4.741 -0.0866  1.1226  0.2849
 5263TIP3    H237281   5.275   3.979   4.836 -0.0505 -0.4651  0.3706
 5264TIP3   OH237282   2.940   0.614   3.223  0.3669 -0.5416 -0.3184
 5264TIP3    H137283   3.020   0.562   3.233  0.8287  0.2682  0.3147
 5264TIP3    H237284   2.899   0.613   3.310  0.5796  0.4579 -0.1984
 5265TIP3   OH237285   3.771   4.403  12.613 -0.1968 -0.1268  0.8201
 5265TIP3    H137286   3.770   4.314  12.577 -2.2537 -0.3597  1.3023
 5265TIP3    H237287   3.679   4.421  12.634  0.2095  2.0221  0.9863
 5266TIP3   OH237288   4.576   2.133   1.248  0.0380  0.2050  0.0830
 5266TIP3    H137289   4.598   2.195   1.317  2.5096  0.3454 -0.7300
 5266TIP3    H237290   4.617   2.051   1.276  1.3742  0.3574 -1.3410
 5267TIP3   OH237291   3.796   4.430   6.022  0.0490 -0.1001 -0.0065
 5267TIP3    H137292   3.854   4.373   5.972 -0.5002 -0.5654 -0.1248
 5267TIP3    H237293   3.723   4.447   5.963  0.3862  1.0541 -0.1153
 5268TIP3   OH237294   2.540   4.262  11.615 -0.1480 -0.1480 -0.6470
 5268TIP3    H137295   2.467   4.297  11.666 -0.8178  0.5995 -2.0430
 5268TIP3    H237296   2.518   4.284  11.524  1.5759 -0.3536 -1.1530
 5269TIP3   OH237297   5.550   0.307  13.228 -0.1116  0.7130  0.0995
 5269TIP3    H137298   5.470   0.277  13.185  0.6196  0.5340 -1.1803
 5269TIP3    H237299   5.616   0.242  13.204  0.6698  1.4452  0.2353
 5270TIP3   OH237300   2.713   2.661  11.470 -0.1067  0.5280  0.2073
 5270TIP3    H137301   2.772   2.660  11.394 -1.9875  2.4866 -1.4199
 5270TIP3    H237302   2.741   2.737  11.520 -1.2907  1.5915 -0.6837
 5271TIP3   OH237303   6.434   0.499  13.664 -0.2468 -0.2432  0.4088
 5271TIP3    H137304   6.355   0.523  13.617  0.2279  2.5385  0.8854
 5271TIP3    H237305   6.403   0.463  13.747 -1.0041 -2.2018 -0.6563
 5272TIP3   OH237306   2.735   5.791  15.282  0.1193  0.0285  0.1375
 5272TIP3    H137307   2.714   5.735  15.207  2.2668 -1.0696  0.2873
 5272TIP3    H237308   2.783   5.864  15.245 -0.2055  0.3156  0.2755
 5273TIP3   OH237309   1.364   0.399   2.637  0.6405  0.7164 -0.7051
 5273TIP3    H137310   1.459   0.388   2.629  1.2038  2.0312  2.5445
 5273TIP3    H237311   1.349   0.491   2.614  0.1406  0.5191 -1.1904
 5274TIP3   OH237312   2.998   1.277   4.420 -0.5339 -0.5524 -0.1267
 5274TIP3    H137313   3.005   1.368   4.391  4.0235 -0.5643  0.3564
 5274TIP3    H237314   3.020   1.225   4.343 -0.1450 -1.1103  0.3525
 5275TIP3   OH237315   1.043   1.733  11.403 -0.6429  0.8237 -0.7099
 5275TIP3    H137316   1.046   1.789  11.326  0.3476  1.6259 -0.1124
 5275TIP3    H237317   0.975   1.771  11.458 -0.6916  0.8222 -0.7693
 5276TIP3   OH237318   6.303   4.519   1.667  0.2582  0.3522  0.5752
 5276TIP3    H137319   6.327   4.455   1.600 -1.0445 -1.0785  1.4079
 5276TIP3    H237320   6.317   4.473   1.750  0.5391  1.6205  1.2545
 5277TIP3   OH237321   5.907   4.405  14.669  0.0197 -0.5659 -0.2306
 5277TIP3    H137322   5.891   4.452  14.587 -0.8615 -0.8320 -0.2157
 5277TIP3    H237323   5.821   4.377  14.698  0.1884  0.4413  1.3492
 5278TIP3   OH237324   3.957   2.790  15.788  0.3713 -0.0358  0.0911
 5278TIP3    H137325   4.009   2.729  15.735  0.0157  0.6671 -1.1087
 5278TIP3    H237326   4.001   2.874  15.778 -0.8851  0.5489 -0.8544
 5279TIP3   OH237327   5.033   1.021  12.945  0.0943  0.3111 -0.4015
 5279TIP3    H137328   4.983   1.102  12.938 -0.6985 -0.1422 -0.1282
 5279TIP3    H237329   5.074   1.026  13.032 -2.2466 -0.8047  0.8843
 5280TIP3   OH237330   2.373   0.883   1.679  0.7378  0.5648  0.0561
 5280TIP3    H137331   2.318   0.928   1.616  2.1626  0.5098 -1.2767
 5280TIP3    H237332   2.403   0.953   1.738 -0.9769  0.5399  1.0164
 5281TIP3   OH237333   4.710   1.052   3.233 -0.5100  0.3421 -0.3855
 5281TIP3    H137334   4.660   0.977   3.201  1.7491 -2.0662  1.2402
 5281TIP3    H237335   4.655   1.090   3.302 -0.9724 -0.9901  0.0109
 5282TIP3   OH237336   6.127   4.594   0.948  0.2997  0.2977  0.1285
 5282TIP3    H137337   6.049   4.603   1.002  0.1839 -0.5985  0.1344
 5282TIP3    H237338   6.168   4.513   0.978  1.0706  0.5928 -0.0844
 5283TIP3   OH237339   3.786   0.002   2.287  0.3422 -0.2641  0.3429
 5283TIP3    H137340   3.783  -0.087   2.324 -1.4874 -0.6128 -0.5016
 5283TIP3    H237341   3.694   0.028   2.280  0.8117  1.4063 -0.1467
 5284TIP3   OH237342   0.802   4.287  15.178 -0.2035  0.0155  0.1253
 5284TIP3    H137343   0.748   4.280  15.099 -0.6817 -0.2486  0.4692
 5284TIP3    H237344   0.776   4.369  15.219 -1.3628 -0.7784  1.0236
 5285TIP3   OH237345   5.886   2.076   6.677 -0.2930 -0.3801 -0.5523
 5285TIP3    H137346   5.935   2.009   6.726 -0.5394 -0.8663 -0.9692
 5285TIP3    H237347   5.948   2.107   6.611 -0.2947 -0.4500 -0.5869
 5286TIP3   OH237348   1.730   0.255  12.550 -0.1574 -0.1264 -0.2479
 5286TIP3    H137349   1.676   0.176  12.560  1.1717 -0.9807  0.4476
 5286TIP3    H237350   1.765   0.248  12.462  1.2807 -1.2191  0.3701
 5287TIP3   OH237351   4.556   3.596  13.110  0.0762  0.1469 -0.1255
 5287TIP3    H137352   4.626   3.564  13.167 -0.7550  0.9599  1.4206
 5287TIP3    H237353   4.586   3.576  13.022  2.4026  0.7606  0.4539
 5288TIP3   OH237354   6.205   2.077   5.299 -0.0163 -0.2877 -0.1653
 5288TIP3    H137355   6.125   2.092   5.349  0.0402 -3.0006  0.9182
 5288TIP3    H237356   6.197   2.135   5.224 -3.0837 -0.4997 -0.1507
 5289TIP3   OH237357   5.641   2.865   2.565  1.1113 -0.2671  0.5014
 5289TIP3    H137358   5.638   2.804   2.639  0.5745  0.3585  1.0118
 5289TIP3    H237359   5.711   2.926   2.587  1.8201 -0.8364 -0.1303
 5290TIP3   OH237360   4.691   5.463   3.209  0.2654  0.0427 -0.5065
 5290TIP3    H137361   4.677   5.552   3.243 -0.5770  0.7036 -2.4134
 5290TIP3    H237362   4.744   5.476   3.130  1.6239 -1.3511  0.1299
 5291TIP3   OH237363   5.946   3.709   4.672 -0.6945  0.0249 -0.0756
 5291TIP3    H137364   5.922   3.626   4.711 -1.2712 -0.2770 -1.0424
 5291TIP3    H237365   5.862   3.751   4.651 -0.4316  1.1731  1.0340
 5292TIP3   OH237366   1.632   1.485   1.838  0.0401  0.2050 -0.8804
 5292TIP3    H137367   1.625   1.392   1.819 -0.3184  0.2291 -0.8845
 5292TIP3    H237368   1.588   1.528   1.765 -2.4133  0.2543  0.5096
 5293TIP3   OH237369   5.199   0.412  12.510 -0.2844 -0.2806  0.5427
 5293TIP3    H137370   5.275   0.371  12.552  0.4289  0.0833 -0.3412
 5293TIP3    H237371   5.223   0.504  12.504 -1.8109  0.2943  2.3843
 5294TIP3   OH237372   2.700   1.466  15.762 -0.3652 -0.2800  0.2621
 5294TIP3    H137373   2.639   1.504  15.824 -0.1001  1.6544 -0.5851
 5294TIP3    H237374   2.646   1.412  15.703 -1.2689  1.3018 -0.4040
 5295TIP3   OH237375   5.430   1.625  12.303 -0.1281  0.7034  0.5618
 5295TIP3    H137376   5.431   1.615  12.399  0.6083  0.5616  0.5424
 5295TIP3    H237377   5.505   1.682  12.284  0.3919 -0.1550 -0.0236
 5296TIP3   OH237378   0.597   0.279  12.467  0.1535  0.2805  0.0414
 5296TIP3    H137379   0.542   0.203  12.446  0.6275 -0.1473  0.3314
 5296TIP3    H237380   0.543   0.331  12.527  0.0138 -0.0672  0.2201
 5297TIP3   OH237381   5.584   5.240  15.686  0.0669 -0.2631 -0.1580
 5297TIP3    H137382   5.606   5.262  15.595  0.6734  1.5271  0.3759
 5297TIP3    H237383   5.499   5.197  15.681 -1.3565  2.4855 -1.3392
 5298TIP3   OH237384   4.028   2.515   0.125 -0.6002 -0.0627 -0.7296
 5298TIP3    H137385   3.965   2.527   0.197  1.3997  2.0249  0.8093
 5298TIP3    H237386   4.106   2.479   0.167  1.0282  2.2705 -1.5386
 5299TIP3   OH237387   1.451   6.454  12.757  0.2688 -0.4084 -0.1005
 5299TIP3    H137388   1.497   6.372  12.741 -0.3048 -0.8818  0.6195
 5299TIP3    H237389   1.366   6.443  12.715  0.0868 -0.2897  0.2327
 5300TIP3   OH237390   3.484   4.930  15.090  0.0675 -0.4256 -0.5156
 5300TIP3    H137391   3.574   4.960  15.081  0.0305 -0.1970 -0.1403
 5300TIP3    H237392   3.489   4.857  15.152  0.0887 -0.8815 -1.0422
 5301TIP3   OH237393   0.415   1.888  15.497  0.5849 -0.6502  1.0214
 5301TIP3    H137394   0.386   1.866  15.409 -0.6505 -0.9247  1.4789
 5301TIP3    H237395   0.478   1.819  15.519 -0.7816 -1.8900  1.1823
 5302TIP3   OH237396   1.689   2.722  14.892  0.0727 -0.3782  0.9603
 5302TIP3    H137397   1.778   2.738  14.860 -0.3030 -0.8475 -0.3889
 5302TIP3    H237398   1.643   2.805  14.882 -0.2898 -0.7419 -0.6290
 5303TIP3   OH237399   3.124   6.129   4.889  0.3535  0.7265 -0.1145
 5303TIP3    H137400   3.153   6.214   4.858 -0.5640  0.8174 -0.7573
 5303TIP3    H237401   3.177   6.066   4.841  2.2531  0.9328  1.6093
 5304TIP3   OH237402   6.700   2.324   5.297  0.0143  0.1540 -0.1052
 5304TIP3    H137403   6.661   2.405   5.331 -1.5919 -0.9385  0.8054
 5304TIP3    H237404   6.771   2.353   5.240  0.0335  2.1722  0.8784
 5305TIP3   OH237405   3.279   4.024   0.844  0.3792 -0.0417 -0.4616
 5305TIP3    H137406   3.285   4.033   0.939 -3.9278 -0.9028  0.0863
 5305TIP3    H237407   3.298   3.932   0.827  1.0876  0.0987 -0.4744
 5306TIP3   OH237408   3.116   2.927   1.918 -0.3007  0.0511 -0.3043
 5306TIP3    H137409   3.061   2.855   1.950  1.4472 -1.5475 -0.7171
 5306TIP3    H237410   3.117   2.916   1.823  3.0232 -1.8674 -0.1922
 5307TIP3   OH237411   0.356   6.255  13.763  0.1979 -0.1349 -0.4614
 5307TIP3    H137412   0.411   6.177  13.752  0.0738 -0.6157  1.8456
 5307TIP3    H237413   0.270   6.228  13.730 -0.0470 -1.2933  1.0114
 5308TIP3   OH237414   2.190   1.133  15.291  0.0905 -0.1574 -0.0734
 5308TIP3    H137415   2.215   1.201  15.354 -0.0886  0.2066 -0.3872
 5308TIP3    H237416   2.161   1.182  15.213 -1.0481 -0.5745  0.0689
 5309TIP3   OH237417   2.801   0.735  15.819 -0.1065 -0.0769  0.3172
 5309TIP3    H137418   2.827   0.673  15.750 -0.6528 -0.6921  0.6487
 5309TIP3    H237419   2.882   0.753  15.867 -0.1994 -1.8099  1.2111
 5310TIP3   OH237420   3.661   3.438  10.965 -0.6573  0.1103  0.4303
 5310TIP3    H137421   3.567   3.448  10.955 -0.5705  0.0255 -0.5895
 5310TIP3    H237422   3.672   3.357  11.014 -1.0993 -0.2546 -0.0703
 5311TIP3   OH237423   5.303   0.737  10.996 -0.4436  0.5771  0.4839
 5311TIP3    H137424   5.283   0.707  10.908 -1.2390 -0.5143  1.0138
 5311TIP3    H237425   5.389   0.779  10.989  0.8918 -2.1099 -0.2462
 5312TIP3   OH237426   6.470   0.444   1.529  0.3683  0.4104  1.0564
 5312TIP3    H137427   6.394   0.398   1.492  0.3722  0.5400  0.8857
 5312TIP3    H237428   6.540   0.427   1.466  0.1754  1.2889  0.5987
 5313TIP3   OH237429   1.337   5.042   0.582 -0.1111  0.3804 -0.2153
 5313TIP3    H137430   1.278   5.044   0.507 -1.8193  1.4593  1.0678
 5313TIP3    H237431   1.324   4.955   0.620  1.6359 -0.6155 -1.7589
 5314TIP3   OH237432   0.322   5.778   5.702 -0.2998  0.4593  0.3348
 5314TIP3    H137433   0.397   5.768   5.761 -0.5649 -0.1256  0.5819
 5314TIP3    H237434   0.304   5.689   5.672 -0.6357  0.6579 -0.0476
 5315TIP3   OH237435   2.144   0.658   4.374  0.3194 -0.5762 -0.4626
 5315TIP3    H137436   2.199   0.735   4.389  0.7492 -0.9877  0.1485
 5315TIP3    H237437   2.108   0.637   4.460  1.6861 -2.1422 -0.2117
 5316TIP3   OH237438   2.407   0.882   5.097  0.9879 -0.0233  0.9528
 5316TIP3    H137439   2.345   0.816   5.065  1.1970 -0.7115  1.9093
 5316TIP3    H237440   2.468   0.895   5.025  1.3019 -1.3401  0.9608
 5317TIP3   OH237441   4.570   5.060  11.782  0.4877 -0.2601  0.2691
 5317TIP3    H137442   4.514   5.137  11.790  0.2883 -0.4980  1.3972
 5317TIP3    H237443   4.654   5.086  11.821  0.4949 -0.5364  0.4465
 5318TIP3   OH237444   4.333   6.831   0.499 -0.3575  0.0639 -0.1145
 5318TIP3    H137445   4.239   6.813   0.499 -0.4470  0.3799 -1.7480
 5318TIP3    H237446   4.374   6.749   0.471  0.0493 -0.6869  2.4410
 5319TIP3   OH237447   1.196   3.785  12.819  0.4059 -0.2241 -0.1268
 5319TIP3    H137448   1.119   3.732  12.799  0.2730  0.2584 -0.9430
 5319TIP3    H237449   1.231   3.810  12.733  0.7198  0.6372  0.2438
 5320TIP3   OH237450   3.766   2.696  14.513  0.2327 -0.1361 -0.4075
 5320TIP3    H137451   3.859   2.711  14.498  0.4306 -1.0443 -0.1031
 5320TIP3    H237452   3.753   2.719  14.605 -0.2910  2.0474 -0.9556
 5321TIP3   OH237453   2.704   0.013   0.950 -0.5856  0.3228 -0.2304
 5321TIP3    H137454   2.653  -0.052   0.904 -1.4510  1.0953 -0.3980
 5321TIP3    H237455   2.672   0.010   1.041  0.8100 -0.8938  0.2556
 5322TIP3   OH237456   4.890   0.922  13.974  0.2996  0.3466  0.4808
 5322TIP3    H137457   4.840   0.993  13.934 -0.4460  0.4710  1.5945
 5322TIP3    H237458   4.956   0.966  14.027  1.5117  0.1824 -0.8239
 5323TIP3   OH237459   1.577   0.296  14.533 -0.7933 -0.0316  0.1355
 5323TIP3    H137460   1.531   0.217  14.562 -0.4571 -0.6704 -1.0195
 5323TIP3    H237461   1.595   0.281  14.440 -2.0583  2.0489 -0.5152
 5324TIP3   OH237462   2.339   0.454   6.053  0.0015  0.5610 -0.2026
 5324TIP3    H137463   2.313   0.373   6.099  0.3896  0.2566 -0.5144
 5324TIP3    H237464   2.266   0.472   5.994 -2.0630  2.7229  2.6896
 5325TIP3   OH237465   0.978   5.370   2.365 -0.3820  0.5302 -0.2136
 5325TIP3    H137466   0.946   5.299   2.422  1.0459 -0.6094 -0.7711
 5325TIP3    H237467   0.923   5.364   2.287 -0.3907  0.1473 -0.1820
 5326TIP3   OH237468   6.761   2.669  12.562  1.3273 -0.6271 -0.1761
 5326TIP3    H137469   6.671   2.699  12.572  0.9867 -1.7748  0.2471
 5326TIP3    H237470   6.774   2.664  12.467  1.8304  2.0683 -0.3337
 5327TIP3   OH237471   2.898   3.087   6.509 -0.3208 -0.4834  0.8530
 5327TIP3    H137472   2.913   3.143   6.433 -3.3071 -1.2532 -0.4357
 5327TIP3    H237473   2.959   3.015   6.498  0.2169  0.0960 -0.0732
 5328TIP3   OH237474   2.318   2.252  15.769 -0.1640  0.2901 -0.7595
 5328TIP3    H137475   2.376   2.194  15.719 -0.9882 -1.3533  0.0981
 5328TIP3    H237476   2.370   2.277  15.846  0.7474  2.0133 -1.8780
 5329TIP3   OH237477   0.515   0.341  16.403  0.5863 -0.1998 -0.3105
 5329TIP3    H137478   0.571   0.390  16.463  0.5465  0.1637 -0.5661
 5329TIP3    H237479   0.450   0.300  16.459 -0.7980  1.8879 -0.2683
 5330TIP3   OH237480   0.159   2.571  14.439  0.6817 -0.3606  0.3889
 5330TIP3    H137481   0.123   2.588  14.352 -3.2426  1.8925  2.2258
 5330TIP3    H237482   0.123   2.485  14.463  0.2326 -0.1343  0.5184
 5331TIP3   OH237483   1.505   4.066   4.063 -0.3668  0.6465  0.7721
 5331TIP3    H137484   1.462   4.011   4.128 -1.9846  0.7429 -0.1634
 5331TIP3    H237485   1.585   4.018   4.041  0.5764  0.9428  3.2663
 5332TIP3   OH237486   6.215   1.872   2.758 -0.2352  0.6697  0.6080
 5332TIP3    H137487   6.309   1.866   2.745 -0.4946 -0.6012 -1.0241
 5332TIP3    H237488   6.205   1.916   2.842  1.8112  0.4571  1.0097
 5333TIP3   OH237489   1.306   0.821  11.438 -0.1577  0.7824 -0.2954
 5333TIP3    H137490   1.323   0.908  11.403 -2.1471  2.6775  3.0031
 5333TIP3    H237491   1.213   0.823  11.463 -0.0224 -1.9971  0.7229
 5334TIP3   OH237492   2.403   0.655   0.865  0.3687  0.5088 -0.2340
 5334TIP3    H137493   2.413   0.632   0.772 -1.7260 -0.3534 -0.2902
 5334TIP3    H237494   2.461   0.594   0.910 -0.0550 -0.3882 -0.8617
 5335TIP3   OH237495   2.692   0.497   0.879 -0.4526  0.4180  0.0262
 5335TIP3    H137496   2.648   0.413   0.893  1.5329 -0.7333 -0.2063
 5335TIP3    H237497   2.738   0.513   0.961  1.4520 -0.2106 -0.8562
 5336TIP3   OH237498   1.545   2.901  16.572 -0.2278  0.2481  0.0788
 5336TIP3    H137499   1.603   2.900  16.649 -1.1697 -1.2475  0.8215
 5336TIP3    H237500   1.603   2.921  16.499  1.1333 -0.5383  0.8881
 5337TIP3   OH237501   3.656   4.767   1.041  0.4718  0.3299 -0.2389
 5337TIP3    H137502   3.672   4.688   0.989  0.9389 -0.2829  0.7990
 5337TIP3    H237503   3.666   4.839   0.979  0.1698 -0.4076 -1.1807
 5338TIP3   OH237504   3.067   2.430  12.790 -0.1615  0.4194  0.0908
 5338TIP3    H137505   2.989   2.395  12.832 -0.2325  2.3364  1.6636
 5338TIP3    H237506   3.041   2.515  12.756  0.7035  0.1597 -1.3103
 5339TIP3   OH237507   3.737   0.319   1.579 -0.0771  0.0955 -0.0673
 5339TIP3    H137508   3.670   0.312   1.511  0.5030 -1.5704 -0.4972
 5339TIP3    H237509   3.813   0.273   1.543  0.3693 -0.4831  1.5400
 5340TIP3   OH237510   4.039   3.146   5.460 -0.0095  0.2988 -0.3306
 5340TIP3    H137511   4.134   3.136   5.470 -0.1756 -1.6105 -0.3396
 5340TIP3    H237512   4.004   3.134   5.548 -0.3703 -1.0590 -0.6403
 5341TIP3   OH237513   5.621   6.609  14.428  0.4464 -0.1590 -0.5381
 5341TIP3    H137514   5.542   6.630  14.478  2.3252  0.9076  2.2210
 5341TIP3    H237515   5.618   6.514  14.416 -0.4825 -0.3341  0.9199
 5342TIP3   OH237516   3.496   3.928  16.512 -0.8285  0.2136  0.7190
 5342TIP3    H137517   3.474   3.853  16.457  1.2586 -1.0508  1.4535
 5342TIP3    H237518   3.567   3.972  16.464  0.5781 -0.5452  1.9940
 5343TIP3   OH237519   0.704   3.795  11.026  0.6014 -0.2112 -0.0443
 5343TIP3    H137520   0.709   3.794  11.121  0.0932 -1.2510 -0.0141
 5343TIP3    H237521   0.741   3.880  11.000  1.4480 -0.2434  1.0296
 5344TIP3   OH237522   1.996   5.781   1.122 -0.3658  0.7187  0.0541
 5344TIP3    H137523   1.904   5.804   1.138 -0.8862 -0.5437 -0.9486
 5344TIP3    H237524   1.992   5.707   1.062  1.3048  0.0173  0.7541
 5345TIP3   OH237525   0.095   2.038  13.726  0.0891 -0.3237  0.4461
 5345TIP3    H137526   0.056   1.962  13.771  2.3135 -1.3536  0.7923
 5345TIP3    H237527   0.137   2.000  13.649  0.2738  0.7477  0.0158
 5346TIP3   OH237528   0.279   0.566   4.090  0.1002 -0.1658 -0.6656
 5346TIP3    H137529   0.274   0.539   3.998 -1.5261 -1.9962 -0.1201
 5346TIP3    H237530   0.345   0.508   4.128  0.9927  0.7951 -0.7206
 5347TIP3   OH237531   2.062   0.346  15.196  0.2177 -0.1218 -0.3120
 5347TIP3    H137532   2.064   0.253  15.175  0.6727 -0.2572  0.2861
 5347TIP3    H237533   1.979   0.358  15.242  0.7322 -0.5053  0.7540
 5348TIP3   OH237534   1.359   5.866  16.752 -0.0073  0.0943  0.2606
 5348TIP3    H137535   1.418   5.892  16.822  0.1209  0.2356  0.1001
 5348TIP3    H237536   1.271   5.881  16.788  0.0183 -1.2121  0.9328
 5349TIP3   OH237537   0.841   3.229   1.342  0.0292 -0.3697  0.0606
 5349TIP3    H137538   0.761   3.220   1.393  0.7958  0.2737  1.4475
 5349TIP3    H237539   0.899   3.161   1.376  0.8664  0.6276  0.7053
 5350TIP3   OH237540   5.280   0.434   3.663 -0.1879 -0.0897 -0.4405
 5350TIP3    H137541   5.255   0.343   3.649  0.9245 -0.3209 -1.0480
 5350TIP3    H237542   5.273   0.447   3.757 -1.5314 -0.4329 -0.4667
 5351TIP3   OH237543   0.514   6.041   6.132  0.6206  0.4920  0.4207
 5351TIP3    H137544   0.451   6.112   6.114 -1.3354 -0.9576  1.1763
 5351TIP3    H237545   0.570   6.076   6.201 -0.5488  1.1733  1.0537
 5352TIP3   OH237546   3.096   6.350   5.454  0.2607  0.4715  0.0591
 5352TIP3    H137547   3.091   6.446   5.457  2.1252  0.6534 -0.8809
 5352TIP3    H237548   3.189   6.332   5.440 -0.1468 -1.4560 -0.3955
 5353TIP3   OH237549   2.134   4.827  14.650  0.1741 -0.3452 -0.0087
 5353TIP3    H137550   2.206   4.771  14.677  0.7218  0.1575 -0.3992
 5353TIP3    H237551   2.105   4.869  14.731 -0.3248 -1.2744  0.3052
 5354TIP3   OH237552   1.059   0.937   1.884  0.4488 -0.1542 -0.1100
 5354TIP3    H137553   1.109   1.003   1.835 -0.0326  0.8832  0.7723
 5354TIP3    H237554   0.970   0.946   1.852 -0.4147  2.2461  2.5848
 5355TIP3   OH237555   6.820   0.653  15.986 -0.3594  0.4005 -0.2277
 5355TIP3    H137556   6.840   0.744  15.965  2.2371 -0.0049  0.1860
 5355TIP3    H237557   6.804   0.653  16.081 -0.3880  0.4222 -0.2327
 5356TIP3   OH237558   4.043   1.876   0.657  0.1957  0.1184  0.1582
 5356TIP3    H137559   4.062   1.955   0.606 -1.6475  1.0691  0.8574
 5356TIP3    H237560   4.066   1.899   0.747  1.3740 -0.8037  0.1209
 5357TIP3   OH237561   2.963   2.885  12.081  0.8634  0.0330  0.6872
 5357TIP3    H137562   2.991   2.800  12.113  0.5056 -0.7431 -0.9492
 5357TIP3    H237563   3.039   2.920  12.034  0.4673 -0.1697 -0.1186
 5358TIP3   OH237564   5.353   5.826   2.829 -0.6524  0.7975  0.3367
 5358TIP3    H137565   5.269   5.863   2.802 -0.4462  1.2054  0.2499
 5358TIP3    H237566   5.385   5.780   2.752  0.2883  2.5862 -0.3905
 5359TIP3   OH237567   0.230   5.036  11.341 -0.0132 -0.2185 -0.4345
 5359TIP3    H137568   0.274   4.953  11.322  1.2394 -0.0842  1.6413
 5359TIP3    H237569   0.294   5.103  11.318  0.1769  0.0543  0.8568
 5360TIP3   OH237570   2.109   2.456   5.515 -0.4075  0.0516 -0.1451
 5360TIP3    H137571   2.193   2.470   5.471 -0.2471 -0.6738 -0.0794
 5360TIP3    H237572   2.066   2.542   5.512  0.6267  0.6191  0.4440
 5361TIP3   OH237573   3.097   5.784  12.835  0.4598  0.9593  0.3916
 5361TIP3    H137574   3.085   5.764  12.929 -2.1793 -1.1337 -0.2366
 5361TIP3    H237575   3.089   5.879  12.830 -0.6478  1.0309  2.1956
 5362TIP3   OH237576   2.792   2.802  16.326 -0.0560  0.0126  0.0545
 5362TIP3    H137577   2.746   2.737  16.273  0.4550  0.8486 -1.4949
 5362TIP3    H237578   2.880   2.803  16.290 -0.2578  2.0823 -0.4840
 5363TIP3   OH237579   2.413   2.696  12.083 -0.1914  0.5210 -0.0238
 5363TIP3    H137580   2.452   2.723  12.166  1.1252 -3.0136  0.6831
 5363TIP3    H237581   2.461   2.747  12.017 -0.4142  2.4986  1.2706
 5364TIP3   OH237582   4.557   1.353  11.385 -0.1705  0.1330  0.4208
 5364TIP3    H137583   4.640   1.378  11.344 -0.2882 -2.3471 -1.5829
 5364TIP3    H237584   4.582   1.318  11.470  0.4359  2.2396  1.1928
 5365TIP3   OH237585   2.856   3.367  14.220  0.1986 -0.4605  0.2310
 5365TIP3    H137586   2.836   3.297  14.282  0.0317  0.3911  1.1563
 5365TIP3    H237587   2.873   3.444  14.275  0.6065  0.1759 -0.7563
 5366TIP3   OH237588   1.391   3.755  16.899  0.5066  0.1165  0.1319
 5366TIP3    H137589   1.357   3.824  16.957  1.7902  0.1677  0.8844
 5366TIP3    H237590   1.471   3.793  16.863 -0.4492  0.2269 -2.0234
 5367TIP3   OH237591   6.334   4.681  13.551  0.2876  0.3561  0.2447
 5367TIP3    H137592   6.401   4.733  13.595 -1.1315  1.2834  1.4301
 5367TIP3    H237593   6.258   4.740  13.547 -0.6746 -0.8985 -0.3774
 5368TIP3   OH237594   0.187   1.267   0.895 -0.1963  0.2091 -0.7309
 5368TIP3    H137595   0.264   1.315   0.864  0.3002 -0.5889 -0.7443
 5368TIP3    H237596   0.197   1.265   0.990  0.3598 -0.8305 -0.8078
 5369TIP3   OH237597   3.258   4.047   0.518 -0.3180  0.0898  0.3116
 5369TIP3    H137598   3.183   4.032   0.577  0.2330  0.2170  1.0558
 5369TIP3    H237599   3.231   4.122   0.465 -0.9514 -0.2238  0.1691
 5370TIP3   OH237600   5.256   4.522   4.638  0.0493  0.5397  0.2108
 5370TIP3    H137601   5.319   4.594   4.645 -1.1739  1.5829  0.7360
 5370TIP3    H237602   5.208   4.540   4.558  0.3726 -0.2411 -0.1710
 5371TIP3   OH237603   1.819   6.523  14.712  0.7289 -0.1460 -0.3227
 5371TIP3    H137604   1.780   6.497  14.628  1.0069 -0.0096 -0.4962
 5371TIP3    H237605   1.910   6.543  14.691  0.7416  0.1129 -0.0274
 5372TIP3   OH237606   3.358   0.458  14.861 -0.0128 -0.7399 -0.6050
 5372TIP3    H137607   3.384   0.384  14.916  1.3105 -0.2554 -0.5669
 5372TIP3    H237608   3.433   0.516  14.860 -1.5707  1.4356  0.6600
 5373TIP3   OH237609   3.577   0.874   3.399 -0.3468 -0.4681  0.3905
 5373TIP3    H137610   3.549   0.927   3.473 -1.9424 -0.1259 -0.4128
 5373TIP3    H237611   3.527   0.907   3.325  1.8190 -0.2390 -1.0630
 5374TIP3   OH237612   2.658   2.041  16.568 -0.5866  0.0240  0.1947
 5374TIP3    H137613   2.692   1.954  16.547 -0.0270  0.6363 -1.6460
 5374TIP3    H237614   2.631   2.035  16.659  1.4427 -1.4636  0.7758
 5375TIP3   OH237615   3.914   5.769   5.818  0.1241 -0.5413 -0.2700
 5375TIP3    H137616   3.836   5.742   5.867 -1.0869 -0.8546 -2.2479
 5375TIP3    H237617   3.954   5.837   5.872 -0.8738 -1.1776  1.3392
 5376TIP3   OH237618   6.268   1.602   1.982 -0.5918  0.5043 -0.2954
 5376TIP3    H137619   6.207   1.631   1.914 -0.2026  0.1880 -0.7886
 5376TIP3    H237620   6.351   1.643   1.960 -0.2368 -0.3113 -0.5415
 5377TIP3   OH237621   5.979   2.501   0.739  0.2297 -0.1539 -0.0159
 5377TIP3    H137622   6.059   2.480   0.787  0.1617 -1.9107 -0.6006
 5377TIP3    H237623   5.926   2.550   0.801  0.7587 -1.0954  1.2206
 5378TIP3   OH237624   3.746   2.689   5.620 -0.1447  0.0049 -0.4874
 5378TIP3    H137625   3.701   2.608   5.599  1.1550 -1.1735  1.0304
 5378TIP3    H237626   3.839   2.668   5.612  0.2303  1.2757  0.1528
 5379TIP3   OH237627   5.607   3.530   6.385  0.0169 -0.3273 -0.6062
 5379TIP3    H137628   5.521   3.491   6.395 -0.8057  1.3997 -0.5975
 5379TIP3    H237629   5.600   3.586   6.308  1.5255 -1.1009 -1.3554
 5380TIP3   OH237630   3.519   2.335   2.269  0.0954  0.3221 -0.1055
 5380TIP3    H137631   3.514   2.400   2.338  0.9628  0.3659 -0.0702
 5380TIP3    H237632   3.435   2.290   2.271 -0.6097  1.5948 -0.2966
 5381TIP3   OH237633   4.338   3.548  12.214  0.2989 -0.2414 -0.3461
 5381TIP3    H137634   4.279   3.605  12.264  0.2217 -0.2353 -0.4451
 5381TIP3    H237635   4.348   3.591  12.129 -1.3246 -1.3359 -1.1559
 5382TIP3   OH237636   4.818   4.956  11.538  0.5258  0.0944  0.0630
 5382TIP3    H137637   4.747   5.018  11.521 -0.1043 -0.6146  0.0687
 5382TIP3    H237638   4.837   4.967  11.632 -0.4398 -0.5951  0.3498
 5383TIP3   OH237639   1.097   2.208   2.179 -0.3862  0.2738 -0.8928
 5383TIP3    H137640   1.095   2.137   2.243 -0.7071 -0.4345 -1.6724
 5383TIP3    H237641   1.047   2.279   2.219 -0.0769  0.0560 -0.1161
 5384TIP3   OH237642   5.398   5.643  13.457 -0.0655  0.0029  0.5715
 5384TIP3    H137643   5.379   5.649  13.551  0.2780 -2.5120  0.8605
 5384TIP3    H237644   5.347   5.714  13.418 -0.2769  1.0574  2.6317
 5385TIP3   OH237645   4.767   3.666  16.672 -0.2639  0.1446  0.6007
 5385TIP3    H137646   4.726   3.593  16.718 -1.0630  1.3414  1.8646
 5385TIP3    H237647   4.695   3.709  16.626  0.1030  0.4327  0.2930
 5386TIP3   OH237648   5.584   2.048  14.752  0.1653 -0.6060  0.0440
 5386TIP3    H137649   5.643   2.004  14.813 -0.2237 -1.7459 -0.3788
 5386TIP3    H237650   5.521   2.093  14.809 -0.2588 -1.7499  0.4993
 5387TIP3   OH237651   5.555   4.574  12.739  0.5886  0.4681  0.5179
 5387TIP3    H137652   5.553   4.641  12.807  0.1024 -0.3604  1.3484
 5387TIP3    H237653   5.641   4.584  12.698  1.5245  0.0452  2.2690
 5388TIP3   OH237654   1.309   0.215  11.508  0.0458 -0.0008 -0.1162
 5388TIP3    H137655   1.323   0.159  11.585  1.0539 -0.7497 -0.8323
 5388TIP3    H237656   1.369   0.181  11.442 -0.4048  0.9959 -1.0610
 5389TIP3   OH237657   5.894   5.581  17.066  0.0486 -0.1873  0.0732
 5389TIP3    H137658   5.828   5.592  17.134 -0.7804 -2.0341 -0.3655
 5389TIP3    H237659   5.843   5.567  16.986  0.8867 -2.7515 -0.0937
 5390TIP3   OH237660   4.921   2.081  13.740  0.6546  0.1985  0.3447
 5390TIP3    H137661   4.874   2.117  13.816  0.4549  0.8692 -0.0870
 5390TIP3    H237662   4.943   1.991  13.766 -3.1614 -1.1380 -0.3475
 5391TIP3   OH237663   2.673   5.117  16.080 -0.6066  0.2625  0.6051
 5391TIP3    H137664   2.591   5.165  16.079 -0.5335  0.3884  0.6350
 5391TIP3    H237665   2.699   5.117  16.172 -1.9568 -2.1343  1.0616
 5392TIP3   OH237666   1.564   2.420  13.976 -0.0607  0.3484  0.0284
 5392TIP3    H137667   1.526   2.375  13.901 -0.1217  0.6219 -0.1044
 5392TIP3    H237668   1.539   2.366  14.051 -0.0088  0.0820 -0.1445
 5393TIP3   OH237669   0.342   0.857   1.844 -0.1725 -0.3605 -0.4826
 5393TIP3    H137670   0.248   0.850   1.826 -0.1568 -0.5935 -0.4819
 5393TIP3    H237671   0.383   0.807   1.773 -0.1849 -3.0323  1.2315
 5394TIP3   OH237672   2.279   1.361   4.907 -0.3221 -0.0071  0.2005
 5394TIP3    H137673   2.247   1.446   4.877 -0.8115  1.3280  3.9570
 5394TIP3    H237674   2.374   1.371   4.911 -0.2309 -0.2678 -0.8903
 5395TIP3   OH237675   2.216   2.787   5.716  0.2847 -0.2257 -0.3544
 5395TIP3    H137676   2.238   2.856   5.779 -1.9804 -1.1922  1.6315
 5395TIP3    H237677   2.293   2.731   5.714  0.5810  0.0618  1.3017
 5396TIP3   OH237678   2.948   2.166   5.963  0.4466  0.3397  0.1036
 5396TIP3    H137679   2.975   2.211   6.043  0.2265  2.3124 -0.8552
 5396TIP3    H237680   2.854   2.180   5.958  0.5804  1.0166 -0.9130
 5397TIP3   OH237681   2.342   1.184  14.511  0.2106 -0.5519 -0.2453
 5397TIP3    H137682   2.388   1.162  14.592 -0.8344  0.2582  0.6032
 5397TIP3    H237683   2.258   1.139  14.518  0.5283 -1.3749 -1.4098
 5398TIP3   OH237684   0.364   0.852   4.692  0.0027  0.4573 -0.2730
 5398TIP3    H137685   0.349   0.940   4.727  1.1344  1.1931 -1.5365
 5398TIP3    H237686   0.453   0.830   4.721 -0.3676 -0.3927  0.2518
 5399TIP3   OH237687   5.771   3.172  13.224 -0.3363  0.2810  0.0590
 5399TIP3    H137688   5.751   3.233  13.153  2.2843  0.5197 -0.6015
 5399TIP3    H237689   5.821   3.225  13.287  0.0096 -0.6490  0.5817
 5400TIP3   OH237690   5.309   6.684  11.086  0.3255  0.1952 -0.4046
 5400TIP3    H137691   5.223   6.642  11.091  1.5718 -2.4363  0.4154
 5400TIP3    H237692   5.292   6.767  11.041 -2.1349 -1.5588 -3.0637
 5401TIP3   OH237693   1.671   0.483  16.809 -0.0514  0.1843  0.0957
 5401TIP3    H137694   1.598   0.423  16.795 -0.0053  0.5699 -2.2062
 5401TIP3    H237695   1.634   0.570  16.798  0.5371  0.4292  0.0045
 5402TIP3   OH237696   1.291   4.972   4.808  0.4396  0.5139  0.1211
 5402TIP3    H137697   1.310   4.923   4.728 -1.4145 -0.2080  0.0535
 5402TIP3    H237698   1.198   4.954   4.825  0.5231  1.4952  1.8609
 5403TIP3   OH237699   4.154   5.848   0.822  0.1028 -0.0217 -0.3390
 5403TIP3    H137700   4.060   5.835   0.815  0.0417 -0.4479  1.0004
 5403TIP3    H237701   4.184   5.777   0.879  0.9334  1.1838  0.7938
 5404TIP3   OH237702   3.963   3.083  15.008 -0.4579  0.3787 -0.7909
 5404TIP3    H137703   3.896   3.071  15.075  0.3539 -1.1025 -0.2010
 5404TIP3    H237704   3.990   2.994  14.985  0.4430  0.9166 -1.8978
 5405TIP3   OH237705   2.776   4.599  12.552 -0.2065 -0.6174 -0.0928
 5405TIP3    H137706   2.717   4.600  12.477 -1.2221  0.2164  0.6839
 5405TIP3    H237707   2.863   4.586  12.514 -0.5635  0.8531 -1.5211
 5406TIP3   OH237708   2.069   4.804  11.583 -1.0420  0.3624  0.1831
 5406TIP3    H137709   2.115   4.749  11.519 -0.9148  1.9791 -1.1856
 5406TIP3    H237710   2.011   4.744  11.629  0.5515 -1.2735  0.1703
 5407TIP3   OH237711   3.209   2.913  14.505  0.2007  0.0408  0.5338
 5407TIP3    H137712   3.151   2.898  14.579 -0.9679 -1.2153 -0.5891
 5407TIP3    H237713   3.293   2.874  14.531  0.2689  0.9224  1.7417
 5408TIP3   OH237714   1.107   5.003  13.633  0.1806 -0.4631  0.3077
 5408TIP3    H137715   1.073   5.082  13.591  1.0074 -0.3302 -0.1218
 5408TIP3    H237716   1.056   4.931  13.594 -0.4382 -0.1681  0.5586
 5409TIP3   OH237717   5.241   2.307   1.896  0.5802 -0.3661 -0.3792
 5409TIP3    H137718   5.306   2.237   1.905 -0.7732 -1.9236 -1.8950
 5409TIP3    H237719   5.220   2.307   1.802 -0.9831  0.6638 -0.0579
 5410TIP3   OH237720   6.415   4.188  16.881  0.2383  0.3421  0.3342
 5410TIP3    H137721   6.455   4.185  16.794 -0.5270 -1.0492 -0.0145
 5410TIP3    H237722   6.332   4.233  16.868  1.3337  2.6770  0.9379
 5411TIP3   OH237723   1.039   0.917   1.556  0.0010 -0.3768  0.6290
 5411TIP3    H137724   1.023   0.987   1.620  0.3741 -0.5911  0.9607
 5411TIP3    H237725   1.110   0.865   1.595 -1.2708 -1.8301  1.1032
 5412TIP3   OH237726   4.799   3.607   1.362 -0.2797  0.1935  0.5697
 5412TIP3    H137727   4.770   3.600   1.453 -0.2469  1.4057  0.6812
 5412TIP3    H237728   4.884   3.650   1.367 -1.2923  2.3793 -0.1613
 5413TIP3   OH237729   0.820   0.724   5.289 -0.5564  0.0695  0.2016
 5413TIP3    H137730   0.821   0.701   5.196 -0.2179  2.6690 -0.4985
 5413TIP3    H237731   0.912   0.739   5.311 -0.7281  0.3774  0.7273
 5414TIP3   OH237732   4.236   2.395  15.279 -0.2087  0.3103 -0.4843
 5414TIP3    H137733   4.152   2.350  15.292 -0.6618  1.0156 -0.9207
 5414TIP3    H237734   4.300   2.336  15.318 -0.9259 -0.1552  0.0258
 5415TIP3   OH237735   1.515   5.972   1.281 -0.4464 -0.1858 -0.1556
 5415TIP3    H137736   1.482   6.053   1.242 -1.0547 -0.4424 -0.1878
 5415TIP3    H237737   1.444   5.941   1.337 -0.4467 -0.9910 -0.5844
 5416TIP3   OH237738   4.192   2.620   3.664 -0.2475  0.6366 -0.2559
 5416TIP3    H137739   4.220   2.536   3.628  0.3334  0.4265  0.6706
 5416TIP3    H237740   4.210   2.683   3.594 -2.2424 -0.1894 -1.6466
 5417TIP3   OH237741   0.691   6.283   4.631  0.0689 -0.0600  0.3875
 5417TIP3    H137742   0.691   6.216   4.563  0.1938  1.6943 -1.4256
 5417TIP3    H237743   0.782   6.315   4.634 -0.2461  0.8604  0.3636
 5418TIP3   OH237744   2.180   3.039  16.157 -0.0223  0.1968 -0.7235
 5418TIP3    H137745   2.163   3.131  16.177 -1.1439  0.1035 -1.1911
 5418TIP3    H237746   2.210   3.002  16.240  2.3632  1.3836 -0.9585
 5419TIP3   OH237747   3.805   4.249  13.315 -0.0297 -0.1791  0.3319
 5419TIP3    H137748   3.749   4.281  13.386 -0.7672  0.7673 -0.6381
 5419TIP3    H237749   3.885   4.301  13.322  0.2837 -0.7473  1.0362
 5420TIP3   OH237750   0.001   1.396   2.576 -0.0622 -0.0827  0.2243
 5420TIP3    H137751   0.016   1.395   2.481 -1.5268 -0.0728 -0.0283
 5420TIP3    H237752   0.062   1.463   2.608 -0.5013  0.8934 -0.8975
 5421TIP3   OH237753   3.259   2.189   2.288  0.5055 -0.4700 -0.5447
 5421TIP3    H137754   3.280   2.129   2.359 -0.4593  0.1312  0.2755
 5421TIP3    H237755   3.218   2.134   2.221 -0.6154 -0.6921  0.3103
 5422TIP3   OH237756   1.325   3.233  16.175 -0.2404 -0.0123  0.1754
 5422TIP3    H137757   1.355   3.142  16.179 -0.0626  0.0290 -0.1678
 5422TIP3    H237758   1.263   3.241  16.248 -1.9194 -1.0156 -1.0804
 5423TIP3   OH237759   2.821   5.347   1.510 -0.7059 -0.4754 -1.0993
 5423TIP3    H137760   2.791   5.257   1.519  0.5426 -0.8580 -0.5331
 5423TIP3    H237761   2.743   5.396   1.482 -2.1779 -1.1583  1.5082
 5424TIP3   OH237762   1.683   5.408  12.809 -0.7787  0.0791  0.3135
 5424TIP3    H137763   1.746   5.473  12.780 -1.0497  0.8822  1.4343
 5424TIP3    H237764   1.638   5.449  12.883 -2.5325 -0.5065 -0.3518
 5425TIP3   OH237765   2.921   4.912  10.561  0.0043  0.0466  0.1451
 5425TIP3    H137766   2.825   4.914  10.563 -0.0314  0.6201 -1.2136
 5425TIP3    H237767   2.945   4.978  10.496  1.2634 -1.0180 -0.5238
 5426TIP3   OH237768   3.438   3.166  14.629 -0.5120  0.3347  0.5649
 5426TIP3    H137769   3.413   3.227  14.560 -0.7902  0.2394  0.5799
 5426TIP3    H237770   3.444   3.081  14.585  2.0482  0.6982  0.0720
 5427TIP3   OH237771   6.641   5.979   3.621  0.8347 -0.5602  0.2926
 5427TIP3    H137772   6.602   6.065   3.636 -2.3322 -1.6476 -1.0124
 5427TIP3    H237773   6.718   5.997   3.567 -0.2803  1.4172 -0.7462
 5428TIP3   OH237774   5.129   5.018   1.551 -0.2853  0.0878 -0.1412
 5428TIP3    H137775   5.215   5.055   1.571  0.9396 -2.4506 -0.3248
 5428TIP3    H237776   5.078   5.092   1.519  2.2056  1.4858 -1.1894
 5429TIP3   OH237777   4.258   1.103   1.106  0.3054 -0.3911  0.3905
 5429TIP3    H137778   4.169   1.106   1.072  0.5347  0.5749 -0.1906
 5429TIP3    H237779   4.249   1.070   1.195 -1.0962  2.8866  1.6551
 5430TIP3   OH237780   1.389   5.575   5.886  0.0816 -0.1175  0.1348
 5430TIP3    H137781   1.376   5.483   5.864  0.8722 -0.3671  0.6694
 5430TIP3    H237782   1.386   5.620   5.802 -1.8225 -0.4125 -0.0122
 5431TIP3   OH237783   4.334   4.141  16.828  0.2049  0.0155 -0.6991
 5431TIP3    H137784   4.362   4.232  16.834 -0.0328  0.0383  0.1953
 5431TIP3    H237785   4.242   4.147  16.802  0.5098 -0.0145 -1.8532
 5432TIP3   OH237786   0.754   6.698  13.341 -0.4591 -0.3786  0.7150
 5432TIP3    H137787   0.784   6.641  13.271  0.0832  0.6210  0.1072
 5432TIP3    H237788   0.708   6.770  13.297  0.0742  0.3790  1.3433
 5433TIP3   OH237789   3.673   4.302  14.593 -0.0976 -0.1836 -0.0708
 5433TIP3    H137790   3.658   4.229  14.534  0.1856  0.8004 -1.4166
 5433TIP3    H237791   3.686   4.262  14.679 -0.6216 -1.6465 -0.6538
 5434TIP3   OH237792   5.078   5.276   3.944 -0.1072  0.2907 -0.0310
 5434TIP3    H137793   4.995   5.323   3.952  0.2076  0.5778  2.7596
 5434TIP3    H237794   5.055   5.184   3.954 -0.1206  0.3661  0.6890
 5435TIP3   OH237795   3.442   6.493   5.100 -0.1526 -0.0442 -0.4831
 5435TIP3    H137796   3.506   6.429   5.132 -0.6924  0.0039  0.7857
 5435TIP3    H237797   3.472   6.516   5.012  1.0013 -0.7641 -0.3016
 5436TIP3   OH237798   5.948   4.837  16.623  0.4095 -0.3626  0.2791
 5436TIP3    H137799   5.913   4.926  16.629  0.0350 -0.5514  0.9311
 5436TIP3    H237800   5.896   4.786  16.684  1.0879 -0.8901  0.4348
 5437TIP3   OH237801   1.989   0.853   2.099 -0.2126 -0.2162 -0.2787
 5437TIP3    H137802   2.054   0.863   2.030  2.3811 -0.0174  2.0031
 5437TIP3    H237803   1.905   0.865   2.055  1.3487  2.0345 -2.9819
 5438TIP3   OH237804   1.256   4.682   4.072 -0.0285  0.3318 -0.3794
 5438TIP3    H137805   1.228   4.757   4.019 -2.6326  0.3070  0.7983
 5438TIP3    H237806   1.337   4.652   4.031  0.7902  3.4018 -1.2532
 5439TIP3   OH237807   3.138   3.312  12.319  0.1711 -0.0085 -0.3041
 5439TIP3    H137808   3.195   3.235  12.322  0.7600  0.4512  0.4973
 5439TIP3    H237809   3.059   3.285  12.366  0.0545 -0.3730 -0.7001
 5440TIP3   OH237810   4.730   3.154  16.364 -0.0422  0.6530  0.4986
 5440TIP3    H137811   4.764   3.208  16.293 -0.4431  0.4747  0.1760
 5440TIP3    H237812   4.777   3.071  16.356 -0.5744  0.3950  0.0318
 5441TIP3   OH237813   2.386   5.815  16.016  0.4202 -0.0747  0.8168
 5441TIP3    H137814   2.472   5.830  16.054 -0.5008  0.3585  2.8885
 5441TIP3    H237815   2.348   5.745  16.068  1.1547 -3.7588 -2.9971
 5442TIP3   OH237816   6.592   2.607  16.176  0.6139 -0.0306 -0.1192
 5442TIP3    H137817   6.564   2.602  16.084  1.6550  0.5285 -0.4765
 5442TIP3    H237818   6.650   2.531  16.187  1.3290  0.4877 -0.2339
 5443TIP3   OH237819   1.224   2.668   5.277  0.3407  0.2886  0.0325
 5443TIP3    H137820   1.243   2.597   5.338 -2.2691 -1.2915 -0.8348
 5443TIP3    H237821   1.135   2.696   5.299  0.6953  2.1578 -0.7500
 5444TIP3   OH237822   5.908   1.774  14.433  0.0725 -0.6380  0.0727
 5444TIP3    H137823   5.917   1.706  14.367 -0.4752  0.0222 -0.7035
 5444TIP3    H237824   5.837   1.745  14.490 -0.7798 -0.3041 -0.7948
 5445TIP3   OH237825   4.853   0.668  11.450  0.5842 -0.1004  0.6231
 5445TIP3    H137826   4.927   0.609  11.461 -0.4338 -1.5410  0.0959
 5445TIP3    H237827   4.858   0.694  11.358  0.4609 -0.1776  0.5943
 5446TIP3   OH237828   6.229   2.886   6.134 -0.0488 -0.1676  0.6671
 5446TIP3    H137829   6.161   2.945   6.101 -1.8994 -3.0915 -1.1579
 5446TIP3    H237830   6.228   2.901   6.229 -0.8271  2.2405  0.3651
 5447TIP3   OH237831   1.930   3.229   4.621  0.7397  0.2250 -0.6018
 5447TIP3    H137832   1.850   3.177   4.621  1.5366 -1.0414 -0.5782
 5447TIP3    H237833   1.953   3.240   4.713  0.0886  1.4363 -0.5596
 5448TIP3   OH237834   3.200   6.698  12.571 -0.0441  0.2240 -0.1534
 5448TIP3    H137835   3.206   6.793  12.569 -0.6145  0.2650 -1.7857
 5448TIP3    H237836   3.113   6.680  12.608 -1.1446  0.4883 -2.3788
 5449TIP3   OH237837   1.241   0.641  13.408 -0.5960 -1.3302  0.7223
 5449TIP3    H137838   1.281   0.554  13.413 -0.0357 -1.0819  0.5838
 5449TIP3    H237839   1.307   0.696  13.366 -1.2852 -1.0384 -0.0206
 5450TIP3   OH237840   3.274   5.874  14.779 -0.1145  0.3921  0.4787
 5450TIP3    H137841   3.313   5.890  14.865  2.1689  1.7176 -0.6998
 5450TIP3    H237842   3.283   5.780  14.766  2.1833  0.5301  0.5714
 5451TIP3   OH237843   3.408   0.208  16.060 -0.0098 -0.7852 -0.0643
 5451TIP3    H137844   3.339   0.233  15.998  0.6664  0.2050 -0.4469
 5451TIP3    H237845   3.367   0.220  16.146 -1.2020 -2.8855 -0.2661
 5452TIP3   OH237846   2.580   1.994  14.032 -0.1034 -0.3195 -0.0230
 5452TIP3    H137847   2.526   2.034  14.101 -0.8071  0.0667 -0.7754
 5452TIP3    H237848   2.652   2.056  14.019  0.1268 -0.4771  0.4742
 5453TIP3   OH237849   0.715   1.377   3.866  0.8335  0.2516  0.2348
 5453TIP3    H137850   0.794   1.424   3.893  0.2957  1.0244  0.5122
 5453TIP3    H237851   0.645   1.443   3.870 -0.0333 -0.6827  1.0640
 5454TIP3   OH237852   1.849   1.692  14.629 -0.1681 -0.4607  0.9072
 5454TIP3    H137853   1.944   1.705  14.633  0.0155 -0.2930 -1.7722
 5454TIP3    H237854   1.836   1.631  14.556 -2.1234 -0.3726  1.1219
 5455TIP3   OH237855   2.645   1.578  11.102 -0.1590 -0.6999 -0.1815
 5455TIP3    H137856   2.630   1.584  11.008 -2.4330 -1.5425  0.0479
 5455TIP3    H237857   2.575   1.631  11.140  0.2912 -0.9573  1.0449
 5456TIP3   OH237858   0.041   0.081  13.683  0.2463 -0.4465  0.3683
 5456TIP3    H137859   0.083   0.145  13.741 -0.6262  0.8889 -0.3981
 5456TIP3    H237860  -0.053   0.093  13.699 -0.0877  0.6822 -1.9564
 5457TIP3   OH237861   5.513   3.959   2.063  0.3796  0.0238  0.2716
 5457TIP3    H137862   5.483   4.014   2.135  0.5167 -1.7964  1.8159
 5457TIP3    H237863   5.472   3.874   2.080  2.0268 -1.0086 -0.6610
 5458TIP3   OH237864   0.882   1.784   2.130  0.1539  0.6223  0.0042
 5458TIP3    H137865   0.944   1.731   2.079  0.1048  0.2294  0.3487
 5458TIP3    H237866   0.800   1.734   2.126  0.0870  0.7130  0.2615
 5459TIP3   OH237867   2.937   4.017   1.580  0.1537 -0.1057 -0.3859
 5459TIP3    H137868   2.873   3.946   1.589  0.5442 -0.2964  1.1054
 5459TIP3    H237869   2.891   4.094   1.615  0.2659  0.0606 -0.6016
 5460TIP3   OH237870   0.106   5.731  12.803  0.6706 -0.1588 -0.5532
 5460TIP3    H137871   0.190   5.701  12.768  1.7818  0.6125  1.3307
 5460TIP3    H237872   0.051   5.743  12.726  2.6210  0.3447 -1.9339
 5461TIP3   OH237873   1.517   1.798   0.834 -0.0401 -0.8800  0.3875
 5461TIP3    H137874   1.580   1.761   0.895  0.0941 -0.9733  0.1926
 5461TIP3    H237875   1.570   1.847   0.771 -0.0961 -1.5670 -0.2098
 5462TIP3   OH237876   3.709   5.303  14.274 -0.2270 -0.1396  0.4169
 5462TIP3    H137877   3.656   5.373  14.310  1.2825  0.2539  2.0273
 5462TIP3    H237878   3.755   5.267  14.349  1.1049 -1.0327 -0.7698
 5463TIP3   OH237879   4.281   2.766   3.456  0.7792  0.1183 -0.2150
 5463TIP3    H137880   4.302   2.693   3.397  2.5062  0.0495  0.4285
 5463TIP3    H237881   4.304   2.844   3.405 -2.5004  0.4330 -1.5070
 5464TIP3   OH237882   2.046   4.778   4.112 -0.2485 -0.0572  0.2147
 5464TIP3    H137883   2.074   4.858   4.157 -1.3313  0.3857  0.1327
 5464TIP3    H237884   1.951   4.776   4.123 -0.1423 -1.9799  1.2572
 5465TIP3   OH237885   5.142   3.445   5.266  0.3520 -0.5845  0.1018
 5465TIP3    H137886   5.147   3.479   5.355 -1.8241 -0.5488  0.2557
 5465TIP3    H237887   5.179   3.514   5.211 -0.2326  0.2753  0.7867
 5466TIP3   OH237888   1.275   5.290   3.600  0.3667 -0.2660  0.2373
 5466TIP3    H137889   1.356   5.340   3.607  0.3214 -0.2792  0.9617
 5466TIP3    H237890   1.220   5.342   3.541  1.0019 -0.4099 -0.5012
 5467TIP3   OH237891   3.675   4.553   4.749 -0.2085 -0.2669  0.1789
 5467TIP3    H137892   3.601   4.584   4.801  0.2294  0.3714  0.4375
 5467TIP3    H237893   3.637   4.527   4.665 -0.8677 -0.9216  0.6590
 5468TIP3   OH237894   0.932   3.570  11.569  0.3039  0.0020 -0.0193
 5468TIP3    H137895   0.904   3.507  11.503 -0.3927 -0.3958  0.6416
 5468TIP3    H237896   1.018   3.539  11.597  0.1894 -0.3618 -0.0669
 5469TIP3   OH237897   1.250   1.582   3.933  0.3914 -0.3494 -0.1976
 5469TIP3    H137898   1.172   1.624   3.968  0.7852 -0.5249  0.9270
 5469TIP3    H237899   1.241   1.590   3.838  0.5457  2.4389 -0.0568
 5470TIP3   OH237900   1.568   4.526   5.757  0.2951  0.4321  0.1419
 5470TIP3    H137901   1.590   4.617   5.741  0.5535  0.4279  0.4551
 5470TIP3    H237902   1.541   4.523   5.849  1.1636  0.0357  0.3937
 5471TIP3   OH237903   4.545   1.016  14.277  0.0467  0.2916  0.0335
 5471TIP3    H137904   4.571   0.946  14.336  2.5373 -0.3956 -1.7474
 5471TIP3    H237905   4.495   0.972  14.209 -0.4808  0.6589  0.1748
 5472TIP3   OH237906   0.344   2.236   1.915 -0.3043 -0.1630 -0.1634
 5472TIP3    H137907   0.303   2.315   1.881 -0.7271 -0.5059 -0.4819
 5472TIP3    H237908   0.347   2.177   1.839 -0.1067 -0.4920  0.0962
 5473TIP3   OH237909   3.936   2.415  12.779  0.4906  0.1797 -0.0464
 5473TIP3    H137910   3.865   2.350  12.777 -0.1777  0.8445  1.0978
 5473TIP3    H237911   4.015   2.363  12.791  0.0734 -0.4860 -0.1172
 5474TIP3   OH237912   0.558   1.827   3.466  0.5848 -0.2881 -0.3616
 5474TIP3    H137913   0.524   1.914   3.485 -0.5988 -0.7394 -0.3449
 5474TIP3    H237914   0.541   1.776   3.545 -2.1659 -1.5238 -1.6142
 5475TIP3   OH237915   1.046   0.042   2.515 -0.1487 -0.2479  0.3499
 5475TIP3    H137916   0.967   0.094   2.535  0.0501 -0.3414  1.4309
 5475TIP3    H237917   1.102   0.054   2.592  0.1453 -1.6108  0.3604
 5476TIP3   OH237918   3.372   1.697   0.545  0.1221  0.2626  0.0845
 5476TIP3    H137919   3.277   1.711   0.541  0.1608  0.8457  0.9436
 5476TIP3    H237920   3.390   1.634   0.475 -1.0817 -0.8060  0.6832
 5477TIP3   OH237921   4.187   0.177  12.834 -0.4490 -0.6382 -0.3466
 5477TIP3    H137922   4.123   0.229  12.785 -0.4531  0.8836  1.1413
 5477TIP3    H237923   4.137   0.140  12.907  0.1809 -0.0766  0.3903
 5478TIP3   OH237924   0.922   6.552  14.549 -0.9714  0.1342 -0.5091
 5478TIP3    H137925   0.842   6.538  14.598  0.1128 -0.0088  1.2841
 5478TIP3    H237926   0.918   6.644  14.522 -0.4156  0.9968  2.1296
 5479TIP3   OH237927   1.299   1.511   5.280  0.1345 -0.1537 -0.1665
 5479TIP3    H137928   1.246   1.503   5.201 -1.0550 -0.1738  0.5963
 5479TIP3    H237929   1.363   1.579   5.259 -1.7999  1.7403 -0.3331
 5480TIP3   OH237930   5.091   5.684  15.939 -0.1458 -0.1341  0.0981
 5480TIP3    H137931   5.126   5.642  15.860  0.4051  0.6822 -0.1072
 5480TIP3    H237932   5.164   5.681  16.002 -0.4053 -0.2955  0.3965
 5481TIP3   OH237933   6.800   2.284   2.778 -1.0727  0.2299  0.1316
 5481TIP3    H137934   6.716   2.239   2.774 -0.7748 -0.5562  2.0765
 5481TIP3    H237935   6.851   2.237   2.843  0.3574  1.5775  0.0626
 5482TIP3   OH237936   3.026   5.967   4.101  1.1215  0.4152  0.0421
 5482TIP3    H137937   2.933   5.975   4.079  0.7681  0.9529  1.5785
 5482TIP3    H237938   3.062   5.910   4.033 -0.8907 -2.0192  0.8369
 5483TIP3   OH237939   3.459   0.704  11.113  0.1859  0.2372 -0.4119
 5483TIP3    H137940   3.485   0.636  11.176 -2.0416  0.4187  0.8198
 5483TIP3    H237941   3.538   0.755  11.099  0.6175  0.8275  3.1375
 5484TIP3   OH237942   1.679   5.196   2.702  0.2887 -0.6558  0.2654
 5484TIP3    H137943   1.694   5.214   2.609  0.7350 -0.8606  0.2959
 5484TIP3    H237944   1.593   5.234   2.720  0.7342  0.4843  0.0725
 5485TIP3   OH237945   0.122   6.251  12.905 -0.0749 -0.1758  0.3775
 5485TIP3    H137946   0.211   6.249  12.940  0.1468 -0.5664 -0.2018
 5485TIP3    H237947   0.118   6.178  12.844 -0.7239 -0.0217  0.2273
 5486TIP3   OH237948   2.762   4.919   2.530  0.5553 -0.6649  0.3379
 5486TIP3    H137949   2.814   4.999   2.536  0.8916 -0.8255 -0.4473
 5486TIP3    H237950   2.708   4.931   2.452  0.7623 -1.3045  0.0994
 5487TIP3   OH237951   6.394   0.721  12.741  0.0435 -0.2384  0.2527
 5487TIP3    H137952   6.401   0.668  12.661  0.4652 -2.1341  1.4837
 5487TIP3    H237953   6.329   0.676  12.794  0.1924  0.6678  1.2384
 5488TIP3   OH237954   4.594   6.197  13.512 -0.8443  0.2034 -0.4904
 5488TIP3    H137955   4.520   6.198  13.451 -1.9219 -0.7457  0.7446
 5488TIP3    H237956   4.617   6.105  13.520  0.8245  0.5145 -1.2084
 5489TIP3   OH237957   4.483   4.016   6.448  0.1599 -0.6091 -0.1870
 5489TIP3    H137958   4.425   4.017   6.524  0.4082  0.6207  0.0016
 5489TIP3    H237959   4.560   4.066   6.476  0.6562 -0.9269 -0.9451
 5490TIP3   OH237960   1.952   6.468   4.438 -0.1711 -0.2113  0.5216
 5490TIP3    H137961   1.958   6.443   4.346  0.3431  0.9295  0.2210
 5490TIP3    H237962   2.035   6.511   4.457 -0.6015  0.3191  1.2884
 5491TIP3   OH237963   2.781   0.284   4.424  0.0947 -0.6485 -0.2879
 5491TIP3    H137964   2.700   0.254   4.467  0.4939 -0.6077  0.5002
 5491TIP3    H237965   2.849   0.226   4.458  0.9307  1.2354  1.4209
 5492TIP3   OH237966   2.255   3.569   2.622 -0.2476  0.4682  0.6354
 5492TIP3    H137967   2.321   3.526   2.678  2.3240 -2.0984 -3.7630
 5492TIP3    H237968   2.292   3.656   2.605  0.3816  0.2256  0.7106
 5493TIP3   OH237969   3.572   6.508   5.377 -0.5106 -0.0205  0.2419
 5493TIP3    H137970   3.574   6.540   5.287 -1.7372  1.2645  0.6349
 5493TIP3    H237971   3.562   6.586   5.431  1.5954 -0.6249  1.6195
 5494TIP3   OH237972   2.401   1.550   2.363 -0.1314 -0.2342  0.0295
 5494TIP3    H137973   2.332   1.605   2.399  1.0440  1.6024 -0.3761
 5494TIP3    H237974   2.475   1.563   2.422  0.8499  0.4002 -1.2892
 5495TIP3   OH237975   1.336   2.512  12.139 -0.2377  0.5134  0.4142
 5495TIP3    H137976   1.273   2.493  12.070 -0.7417 -0.7574  1.1780
 5495TIP3    H237977   1.295   2.582  12.191 -0.9822 -0.1939  0.8151
 5496TIP3   OH237978   3.938   0.997  16.865  0.2831 -0.0683  0.2520
 5496TIP3    H137979   3.913   1.078  16.910  1.0640 -0.0533  0.6893
 5496TIP3    H237980   3.917   1.013  16.773 -0.0606  0.4306  0.4100
 5497TIP3   OH237981   1.705   5.577  11.297  0.9771 -0.2777  0.3532
 5497TIP3    H137982   1.615   5.575  11.330  1.4808 -3.8454  1.9425
 5497TIP3    H237983   1.696   5.602  11.205 -1.4365  1.0156  0.8598
 5498TIP3   OH237984   2.162   5.422  10.411 -0.2508  0.0484 -0.0335
 5498TIP3    H137985   2.177   5.332  10.383 -0.0095 -0.1862  0.8164
 5498TIP3    H237986   2.183   5.475  10.334  0.5045 -0.5591 -0.2582
 5499TIP3   OH237987   6.115   3.761  15.715  0.3150 -0.2876  0.7926
 5499TIP3    H137988   6.034   3.713  15.728  0.5474 -1.2461 -0.9385
 5499TIP3    H237989   6.177   3.722  15.775 -0.2478 -0.1976  1.4375
 5500TIP3   OH237990   1.773   0.722   4.186  0.4137  0.0174  0.2488
 5500TIP3    H137991   1.791   0.743   4.095  0.9893  1.3699  0.6541
 5500TIP3    H237992   1.859   0.706   4.225  0.0655 -2.9501  0.0590
 5501TIP3   OH237993   1.504   0.674   3.919 -0.2495  0.4532 -0.6865
 5501TIP3    H137994   1.461   0.754   3.950  0.7038  0.9855 -0.6699
 5501TIP3    H237995   1.451   0.602   3.954  1.0100  0.9872  2.6905
 5502TIP3   OH237996   2.052   1.679   1.790 -0.1369  0.1993 -0.1356
 5502TIP3    H137997   2.069   1.642   1.877 -1.3197  2.4378  1.1393
 5502TIP3    H237998   2.127   1.735   1.773 -0.6057  0.9260  0.1485
 5503TIP3   OH237999   3.492   2.101  17.101 -0.6012  0.2985  0.1863
 5503TIP3    H138000   3.496   2.193  17.127 -1.6375  1.3201 -2.7938
 5503TIP3    H238001   3.582   2.070  17.109 -0.4172  1.2258  2.2264
 5504TIP3   OH238002   3.083   3.913  15.085  0.6812  0.1766 -0.0756
 5504TIP3    H138003   3.151   3.920  15.018  0.8513  0.9423  0.1695
 5504TIP3    H238004   3.046   4.001  15.091 -0.5102 -0.2878 -0.3762
 5505TIP3   OH238005   3.480   0.049   5.141  0.7299 -0.6340  0.3365
 5505TIP3    H138006   3.495   0.045   5.236 -2.1225 -2.0974  0.8315
 5505TIP3    H238007   3.401   0.101   5.131  0.1878 -1.6616 -1.1095
 5506TIP3   OH238008   0.536   0.941  15.407 -0.3286  0.7664  0.8061
 5506TIP3    H138009   0.493   0.880  15.466 -0.6672 -1.3633 -1.4914
 5506TIP3    H238010   0.465   0.978  15.354  0.0856  1.6070  0.8238
 5507TIP3   OH238011   4.535   4.807  11.861  0.0005  0.2955  0.8134
 5507TIP3    H138012   4.553   4.889  11.816 -2.2441  0.2699 -0.2866
 5507TIP3    H238013   4.621   4.767  11.875  0.9167  0.3549 -3.3933
 5508TIP3   OH238014   0.702   2.951   3.968  0.8564 -0.0417  0.1794
 5508TIP3    H138015   0.615   2.952   3.927  1.1741 -0.3765 -0.5306
 5508TIP3    H238016   0.686   2.929   4.059  0.3288 -1.9046 -0.3216
 5509TIP3   OH238017   4.413   4.146  14.089 -0.2304  0.0948  0.4234
 5509TIP3    H138018   4.409   4.054  14.113 -0.7529  0.5677  2.3195
 5509TIP3    H238019   4.505   4.162  14.070 -0.1413 -0.8142  0.0404
 5510TIP3   OH238020   5.139   3.139   1.645 -0.4548 -0.2877 -0.4894
 5510TIP3    H138021   5.184   3.087   1.578 -0.4855 -1.0804  0.0855
 5510TIP3    H238022   5.200   3.142   1.719  0.3278  2.0823 -1.1462
 5511TIP3   OH238023   2.702   0.769   3.111  0.0494  0.6376 -0.2292
 5511TIP3    H138024   2.753   0.691   3.088 -0.0368  0.5859 -0.2457
 5511TIP3    H238025   2.700   0.769   3.206  1.2404  1.3874 -0.1788
 5512TIP3   OH238026   5.106   5.554   1.967  0.0552 -0.6119 -0.4117
 5512TIP3    H138027   5.091   5.635   2.015 -1.4339 -0.8695 -0.3956
 5512TIP3    H238028   5.201   5.544   1.966  0.1711 -0.5057  2.3272
 5513TIP3   OH238029   4.049   6.154  11.547  0.1489 -0.3091 -0.0430
 5513TIP3    H138030   4.085   6.065  11.546 -0.4614 -0.5982 -2.7827
 5513TIP3    H238031   3.959   6.144  11.578  0.4790 -0.4397  0.8991
 5514TIP3   OH238032   2.986   5.219   5.432 -0.0624 -0.5451 -0.0402
 5514TIP3    H138033   2.938   5.289   5.388 -0.3126 -0.9976 -0.4883
 5514TIP3    H238034   3.048   5.265   5.489  0.6097  0.0566 -1.2225
 5515TIP3   OH238035   3.975   5.500  13.512  0.1718 -0.0136  0.0164
 5515TIP3    H138036   3.966   5.499  13.417 -0.8905 -0.4160  0.1088
 5515TIP3    H238037   4.012   5.414  13.534  0.3023  0.0332 -0.0207
 5516TIP3   OH238038   4.695   2.216   3.333 -0.0667 -0.3146 -0.5818
 5516TIP3    H138039   4.740   2.187   3.253 -1.4046 -0.5007 -1.3079
 5516TIP3    H238040   4.602   2.200   3.314 -0.3035 -2.2873  1.8029
 5517TIP3   OH238041   5.570   0.773   3.531 -0.1038 -0.0230  0.7662
 5517TIP3    H138042   5.520   0.803   3.606  0.0569 -1.6381  1.5582
 5517TIP3    H238043   5.527   0.692   3.503  0.3835  0.0648 -0.3180
 5518TIP3   OH238044   2.666   4.352  15.287  1.2182  0.0817  0.1275
 5518TIP3    H138045   2.690   4.310  15.370 -0.0701 -0.2244  0.3656
 5518TIP3    H238046   2.698   4.442  15.296  0.4018  0.2825  1.3061
 5519TIP3   OH238047   3.804   0.246   6.004  0.3855 -0.1407 -0.0328
 5519TIP3    H138048   3.773   0.336   6.013  0.1218 -0.3117  0.9142
 5519TIP3    H238049   3.730   0.193   6.035 -0.1831 -0.7815 -2.3196
 5520TIP3   OH238050   0.643   3.130  13.034 -0.1861 -0.1440 -0.3894
 5520TIP3    H138051   0.688   3.157  13.113 -0.4844 -1.2583  0.1840
 5520TIP3    H238052   0.613   3.041  13.052 -1.5534  0.1104 -1.1997
 5521TIP3   OH238053   3.834   0.613  14.782 -0.3156 -0.4565  0.3071
 5521TIP3    H138054   3.851   0.569  14.699  1.3451 -0.1343  0.4427
 5521TIP3    H238055   3.808   0.542  14.841 -1.3264 -0.7115 -0.4079
 5522TIP3   OH238056   2.483   5.948  14.130  0.0801  0.3086 -0.1220
 5522TIP3    H138057   2.573   5.922  14.110  0.2984  0.4575  0.6147
 5522TIP3    H238058   2.445   5.971  14.046  0.6671  0.0370 -0.4674
 5523TIP3   OH238059   2.886   2.203  14.098  0.3748 -0.3620  0.4289
 5523TIP3    H138060   2.844   2.260  14.033  1.1330 -0.2542  0.0275
 5523TIP3    H238061   2.852   2.235  14.182  2.9610  2.6954  0.5095
 5524TIP3   OH238062   5.125   5.771   0.638  0.3075 -0.2676  0.3377
 5524TIP3    H138063   5.045   5.822   0.652 -0.1713 -0.0742 -2.5776
 5524TIP3    H238064   5.105   5.685   0.674  0.0024  0.6324  2.4937
 5525TIP3   OH238065   2.479   4.805   0.325 -0.0282  0.4388 -0.2547
 5525TIP3    H138066   2.533   4.880   0.352 -0.9921  0.9871  0.1911
 5525TIP3    H238067   2.453   4.825   0.235 -0.2161  0.6019 -0.1648
 5526TIP3   OH238068   6.034   2.417  16.547 -0.5732  0.0042 -0.3845
 5526TIP3    H138069   5.967   2.484  16.563  0.1565  0.8080 -0.6591
 5526TIP3    H238070   5.998   2.338  16.587 -1.2833  0.6465  0.2818
 5527TIP3   OH238071   2.099   0.866  15.107 -0.4368 -0.1964 -0.3379
 5527TIP3    H138072   2.179   0.839  15.063 -0.1383  0.4114 -0.1752
 5527TIP3    H238073   2.042   0.789  15.103 -0.5892 -0.0473 -2.1598
 5528TIP3   OH238074   5.376   2.764   4.600 -0.4763 -0.1090 -0.7896
 5528TIP3    H138075   5.426   2.763   4.518 -0.5108 -1.5179 -0.8156
 5528TIP3    H238076   5.294   2.719   4.578  0.0624 -1.7132  0.3332
 5529TIP3   OH238077   4.599   3.599   3.944 -0.6726 -0.3388 -0.2999
 5529TIP3    H138078   4.542   3.657   3.893 -0.6144 -0.3061 -0.3281
 5529TIP3    H238079   4.682   3.598   3.895 -0.5946 -0.2550 -0.1686
 5530TIP3   OH238080   2.921   4.312  16.964  0.0207 -0.4627  0.0190
 5530TIP3    H138081   2.844   4.274  17.006  0.6509 -1.9816 -0.1243
 5530TIP3    H238082   2.980   4.332  17.037  0.2223 -1.0275  0.0151
 5531TIP3   OH238083   6.718   1.784   3.426 -0.7783  0.0910  0.1016
 5531TIP3    H138084   6.713   1.695   3.390  2.5583 -1.3937  2.7395
 5531TIP3    H238085   6.789   1.825   3.376 -0.1503  0.0770  0.9492
 5532TIP3   OH238086   2.865   1.544  10.689 -0.0341 -0.2219  0.0983
 5532TIP3    H138087   2.916   1.550  10.770 -0.6286  1.5011  0.3868
 5532TIP3    H238088   2.888   1.624  10.641 -2.1492  0.4337  0.0767
 5533TIP3   OH238089   2.449   2.610   0.901  0.2297  0.6501  0.0193
 5533TIP3    H138090   2.501   2.533   0.922  1.0392  1.4623  1.1344
 5533TIP3    H238091   2.406   2.634   0.984 -1.2732  0.5003 -0.6742
 5534TIP3   OH238092   5.893   4.864   1.975 -0.3549  0.0742 -0.4642
 5534TIP3    H138093   5.878   4.882   1.882  1.7227  0.5838 -0.7477
 5534TIP3    H238094   5.886   4.769   1.982  0.9464 -0.1318 -1.4801
 5535TIP3   OH238095   0.524   0.141  16.146  0.2793 -0.1638 -0.5537
 5535TIP3    H138096   0.534   0.091  16.227 -0.1899  0.3076 -0.1981
 5535TIP3    H238097   0.570   0.089  16.080 -0.3127 -1.1353 -0.2267
 5536TIP3   OH238098   1.044   3.829  11.332 -0.0931  0.6533  0.4480
 5536TIP3    H138099   1.012   3.810  11.244  0.4735 -1.2794  0.6098
 5536TIP3    H238100   1.121   3.884  11.318 -0.5715  1.1741 -0.2001
 5537TIP3   OH238101   0.365   0.626  14.223 -0.1983  0.2550 -0.3538
 5537TIP3    H138102   0.429   0.557  14.203  0.0134  0.4544 -0.3670
 5537TIP3    H238103   0.389   0.657  14.310 -1.4186 -0.9490  0.4648
 5538TIP3   OH238104   5.989   1.763   1.333  0.4849  0.6678  0.0615
 5538TIP3    H138105   6.024   1.779   1.421 -2.1131  1.4405  1.0467
 5538TIP3    H238106   5.894   1.773   1.342 -0.3581 -3.3015 -1.9738
 5539TIP3   OH238107   0.674   4.468   3.581 -0.3359 -0.1212  0.5207
 5539TIP3    H138108   0.612   4.498   3.514  0.6354  0.7211 -0.0249
 5539TIP3    H238109   0.735   4.541   3.592  1.4515 -1.4529 -0.0595
 5540TIP3   OH238110   3.080   2.265   3.817 -0.6620 -0.3869  0.6161
 5540TIP3    H138111   2.990   2.257   3.786 -0.8913  1.1878  0.7929
 5540TIP3    H238112   3.107   2.353   3.790  0.0925 -0.0356  2.3948
 5541TIP3   OH238113   5.334   0.094   1.711 -0.8692  0.2077  0.0457
 5541TIP3    H138114   5.307   0.043   1.634 -2.1330  0.1455  0.4974
 5541TIP3    H238115   5.372   0.030   1.771 -0.6847  0.1140 -0.1722
 5542TIP3   OH238116   6.325   6.137   4.204 -0.2216  0.6750  0.0703
 5542TIP3    H138117   6.326   6.042   4.210 -0.7617  0.7382  2.0001
 5542TIP3    H238118   6.389   6.158   4.136 -0.4671 -1.0637 -0.7367
 5543TIP3   OH238119   2.741   4.463  16.273 -0.0527  0.2976  0.0007
 5543TIP3    H138120   2.760   4.390  16.213 -3.9319 -1.3211  0.4474
 5543TIP3    H238121   2.801   4.450  16.346  0.5645 -1.4180 -0.7529
 5544TIP3   OH238122   2.819   3.041   1.700  0.3584 -0.9188 -0.0851
 5544TIP3    H138123   2.913   3.032   1.683  1.3495  1.2436  3.3515
 5544TIP3    H238124   2.791   3.110   1.640  1.3246 -0.5234 -0.1067
 5545TIP3   OH238125   1.664   0.199  14.285  0.4653  0.2057  0.9121
 5545TIP3    H138126   1.759   0.203  14.273  0.2901 -1.0978 -1.6223
 5545TIP3    H238127   1.628   0.247  14.210 -0.8634 -0.7917  0.8735
 5546TIP3   OH238128   4.046   5.154  16.515  0.5517  0.2823 -0.3277
 5546TIP3    H138129   3.977   5.218  16.498  0.0536 -0.1993 -0.1134
 5546TIP3    H238130   4.008   5.092  16.577  1.7106  0.9379  1.1264
 5547TIP3   OH238131   0.610   6.013   5.715 -0.1215  0.0657  0.4524
 5547TIP3    H138132   0.631   5.934   5.665  0.2246  0.6567 -0.3742
 5547TIP3    H238133   0.527   6.044   5.677  0.4880  0.8926 -0.2590
 5548TIP3   OH238134   0.683   2.110   6.210 -0.1194  0.2181 -0.1742
 5548TIP3    H138135   0.648   2.022   6.201  0.7159 -0.2390  0.8376
 5548TIP3    H238136   0.722   2.112   6.298  1.8247  0.8653 -0.9861
 5549TIP3   OH238137   2.254   3.062   5.293 -0.0520  0.1921 -0.2513
 5549TIP3    H138138   2.297   3.010   5.361  0.2150  1.0811  0.2734
 5549TIP3    H238139   2.325   3.090   5.236  0.0397  1.3605  0.4125
 5550TIP3   OH238140   3.138   3.441   5.607  0.0909 -0.0487  0.1650
 5550TIP3    H138141   3.049   3.452   5.642  0.9175  1.0594  2.0622
 5550TIP3    H238142   3.153   3.347   5.609 -1.0044 -0.2457 -0.1168
 5551TIP3   OH238143   0.512   4.093   2.242 -0.0754  0.0017  0.2677
 5551TIP3    H138144   0.542   4.138   2.163  2.8844  0.0368  1.3107
 5551TIP3    H238145   0.501   4.163   2.307 -2.2097 -0.0615  0.0567
 5552TIP3   OH238146   4.480   3.830   0.348  0.1576  0.0145  0.2766
 5552TIP3    H138147   4.548   3.763   0.341  0.8004  0.6008  0.8090
 5552TIP3    H238148   4.488   3.881   0.268  2.2016  1.7803  1.5056
 5553TIP3   OH238149   1.166   1.751  12.406  0.2735 -0.0224 -0.8177
 5553TIP3    H138150   1.168   1.658  12.426 -1.9738 -0.0766 -0.6242
 5553TIP3    H238151   1.173   1.794  12.491 -2.0447 -0.1323 -0.5022
 5554TIP3   OH238152   3.292   5.904  16.236 -0.1521 -0.3439 -0.0394
 5554TIP3    H138153   3.358   5.946  16.182  0.4099  0.2335  1.0615
 5554TIP3    H238154   3.217   5.893  16.178  0.5499 -0.0775 -1.0251
 5555TIP3   OH238155   0.521   5.614  12.070  0.3528 -0.1973  0.0993
 5555TIP3    H138156   0.458   5.542  12.079 -2.1661  1.9559  0.8155
 5555TIP3    H238157   0.531   5.626  11.976  0.8747 -1.4626 -0.0373
 5556TIP3   OH238158   4.048   3.281  17.203  0.1308 -0.4041 -0.2476
 5556TIP3    H138159   4.109   3.303  17.133 -0.8049  0.5081 -0.8009
 5556TIP3    H238160   4.020   3.191  17.184  0.4879 -0.4415 -0.5923
 5557TIP3   OH238161   0.575   2.239   2.965 -0.1329  0.0844  0.0411
 5557TIP3    H138162   0.647   2.232   3.027 -0.8140  1.4391  1.0247
 5557TIP3    H238163   0.506   2.183   3.002 -0.3419  0.4615  0.2286
 5558TIP3   OH238164   6.371   6.242  13.112 -0.2511  0.4438  0.3125
 5558TIP3    H138165   6.383   6.332  13.081 -2.5851  0.7611  0.1997
 5558TIP3    H238166   6.390   6.188  13.036  0.0702  0.8872  0.0695
 5559TIP3   OH238167   6.716   5.225  12.031 -0.2849  0.0298  0.1450
 5559TIP3    H138168   6.796   5.230  12.083 -1.1408  0.7167  1.4433
 5559TIP3    H238169   6.725   5.296  11.968  0.5497 -0.5175 -0.3855
 5560TIP3   OH238170   5.089   3.906   2.873  0.2290 -0.4722 -0.3639
 5560TIP3    H138171   5.132   3.856   2.942 -2.9979 -1.1255  1.3410
 5560TIP3    H238172   5.054   3.839   2.813 -1.0073 -0.1526 -0.0284
 5561TIP3   OH238173   5.851   1.545  16.263  0.3189  0.0693  0.3778
 5561TIP3    H138174   5.773   1.495  16.240  0.1125 -0.1991  1.5980
 5561TIP3    H238175   5.837   1.571  16.354  0.9572  1.3395  0.1498
 5562TIP3   OH238176   5.217   3.189   3.272  0.4497  0.9013 -0.2407
 5562TIP3    H138177   5.259   3.127   3.331 -0.7982 -0.1517 -0.4171
 5562TIP3    H238178   5.250   3.166   3.185 -2.2028 -1.5559 -0.7279
 5563TIP3   OH238179   2.363   3.582  12.735  0.5569  0.3672  0.3135
 5563TIP3    H138180   2.438   3.570  12.677  0.2512 -0.2750  0.0432
 5563TIP3    H238181   2.317   3.498  12.732 -0.2972  0.8268  0.2852
 5564TIP3   OH238182   3.693   3.486   6.004  0.4526 -0.1203  0.1151
 5564TIP3    H138183   3.768   3.436   5.973 -0.0556 -1.0039  0.2770
 5564TIP3    H238184   3.656   3.433   6.074 -0.9296 -0.1940 -0.6424
 5565TIP3   OH238185   1.058   4.287  13.040  0.7594 -0.2970  0.4686
 5565TIP3    H138186   1.080   4.368  12.993 -0.3270  0.3473  1.0244
 5565TIP3    H238187   1.089   4.217  12.983  0.1325  0.4754 -0.8660
 5566TIP3   OH238188   2.359   1.122  16.913 -0.3118  0.2122 -0.1946
 5566TIP3    H138189   2.277   1.084  16.881 -0.3738 -0.2511  0.4887
 5566TIP3    H238190   2.422   1.050  16.906 -0.7153 -0.5117  2.3113
 5567TIP3   OH238191   4.544   1.721  12.243  0.0800  0.3048 -0.0658
 5567TIP3    H138192   4.579   1.810  12.244 -1.0392  0.7581 -0.0116
 5567TIP3    H238193   4.522   1.705  12.151  1.1101 -0.2752 -0.2359
 5568TIP3   OH238194   3.708   4.520  13.524  0.3704  1.2873 -0.3878
 5568TIP3    H138195   3.662   4.438  13.508  0.4319  1.0008  0.8244
 5568TIP3    H238196   3.639   4.585  13.531  0.2977  1.2714 -0.8855
 5569TIP3   OH238197   4.177   2.185  17.071 -0.0379 -0.2410  0.5585
 5569TIP3    H138198   4.093   2.230  17.067  0.4952  0.7817  0.3818
 5569TIP3    H238199   4.237   2.241  17.022  0.2967 -2.0095 -1.1713
 5570TIP3   OH238200   2.449   5.661   4.534 -0.1643 -0.0192 -0.5282
 5570TIP3    H138201   2.389   5.628   4.602  0.2102  1.4660  0.5653
 5570TIP3    H238202   2.535   5.631   4.561 -0.1934 -0.8140 -1.2609
 5571TIP3   OH238203   4.747   5.940  12.054 -0.1987  0.2763  0.6016
 5571TIP3    H138204   4.687   5.984  12.114  2.9837  2.5010  2.4683
 5571TIP3    H238205   4.769   5.858  12.097 -0.8031  0.1087  0.5953
 5572TIP3   OH238206   5.477   1.763   4.746 -0.3508  0.2287  0.1067
 5572TIP3    H138207   5.571   1.779   4.754  0.0728 -0.9714 -1.8793
 5572TIP3    H238208   5.446   1.755   4.837  1.5935 -0.1323  0.7860
 5573TIP3   OH238209   6.138   0.692  10.609 -0.0143  0.6675  0.4660
 5573TIP3    H138210   6.223   0.736  10.598 -0.2504  0.9100 -0.4249
 5573TIP3    H238211   6.150   0.607  10.568  0.4529 -0.1697  2.2242
 5574TIP3   OH238212   4.401   5.221  12.408 -0.2731 -0.0687  0.2688
 5574TIP3    H138213   4.457   5.235  12.331 -0.8123 -0.0261 -0.1197
 5574TIP3    H238214   4.418   5.297  12.464 -0.9455  0.6344 -0.4652
 5575TIP3   OH238215   5.020   3.999   5.218 -0.3333  0.2329 -0.2135
 5575TIP3    H138216   4.938   4.037   5.187 -0.5511 -0.2915 -0.2909
 5575TIP3    H238217   5.000   3.967   5.306 -0.5480 -0.9567 -0.6766
 5576TIP3   OH238218   2.120   4.464   0.382  0.0226  0.2759  0.3161
 5576TIP3    H138219   2.180   4.499   0.448  0.2609 -1.4614  1.0689
 5576TIP3    H238220   2.170   4.396   0.338 -0.4677  0.7581 -1.0428
 5577TIP3   OH238221   4.629   6.654  16.051 -0.4133 -0.0734 -0.1397
 5577TIP3    H138222   4.703   6.604  16.086 -1.6041 -0.4747  1.9768
 5577TIP3    H238223   4.596   6.601  15.979  0.6630 -0.4207 -0.4023
 5578TIP3   OH238224   5.164   5.298  16.675 -0.7303  0.3500 -0.1066
 5578TIP3    H138225   5.087   5.256  16.637 -0.4332 -0.0456 -0.2783
 5578TIP3    H238226   5.206   5.229  16.725  1.8673 -0.7067 -3.4095
 5579TIP3   OH238227   1.058   0.270  12.094  0.6227 -0.1167  0.4484
 5579TIP3    H138228   1.130   0.318  12.053  1.2248 -1.1949  0.2035
 5579TIP3    H238229   0.989   0.269  12.027  0.0862  1.4666  0.9114
 5580TIP3   OH238230   2.669   1.057  12.094  0.0650 -0.4039  0.3533
 5580TIP3    H138231   2.607   1.060  12.021 -0.3045 -3.2945  0.4251
 5580TIP3    H238232   2.753   1.038  12.053  0.4886  1.0399  0.4796
 5581TIP3   OH238233   6.064   4.728  13.455 -0.7503 -0.3039  0.3677
 5581TIP3    H138234   6.012   4.650  13.440  0.6468 -1.2410  0.2470
 5581TIP3    H238235   6.096   4.753  13.368 -2.4871  1.3976  0.1394
 5582TIP3   OH238236   5.744   5.952   0.292  0.2204  0.0200 -0.4291
 5582TIP3    H138237   5.683   5.896   0.340 -1.1103 -0.6532 -2.7248
 5582TIP3    H238238   5.688   6.020   0.254  1.1373  0.2850 -1.3380
 5583TIP3   OH238239   1.768   6.524   5.265  0.0122  0.3774 -0.1165
 5583TIP3    H138240   1.716   6.462   5.214  0.5687  0.6297 -1.0223
 5583TIP3    H238241   1.790   6.476   5.345 -1.4086  0.1941  0.1969
 5584TIP3   OH238242   4.083   4.918  14.767  0.2613 -0.3096 -0.2904
 5584TIP3    H138243   4.128   4.998  14.796 -0.3226 -0.2212  0.3949
 5584TIP3    H238244   4.023   4.897  14.838  0.1856 -1.1923 -0.6021
 5585TIP3   OH238245   3.787   6.720   3.116  0.0223  0.3376  0.1620
 5585TIP3    H138246   3.744   6.746   3.197 -0.1931  1.4891 -0.3063
 5585TIP3    H238247   3.805   6.802   3.070  0.1839 -0.2852 -0.9355
 5586TIP3   OH238248   3.586   5.377  15.511  0.2314 -0.4752 -0.8044
 5586TIP3    H138249   3.552   5.317  15.445  0.5894 -1.7197  0.1048
 5586TIP3    H238250   3.579   5.329  15.594 -0.8695  1.3165  0.1935
 5587TIP3   OH238251   6.031   3.034   6.013 -0.0861  0.3606  0.3450
 5587TIP3    H138252   6.012   3.100   5.946  0.3895 -0.7622 -0.9212
 5587TIP3    H238253   5.958   3.041   6.075 -0.2249  1.8230  0.0628
 5588TIP3   OH238254   3.445   1.095   5.252  0.4132 -0.1210 -0.1149
 5588TIP3    H138255   3.382   1.065   5.187  0.3072  0.7636 -0.4396
 5588TIP3    H238256   3.505   1.152   5.204  0.4034  0.4536  0.5268
 5589TIP3   OH238257   4.793   6.373  15.176 -0.2380  0.2302 -0.1037
 5589TIP3    H138258   4.817   6.404  15.264  1.0863  0.1230 -0.4053
 5589TIP3    H238259   4.754   6.287  15.191  2.1769 -0.8855  0.2416
 5590TIP3   OH238260   4.012   5.032   4.395  0.7048  0.2823  0.1362
 5590TIP3    H138261   3.986   5.003   4.482 -1.4686 -0.7152 -0.7585
 5590TIP3    H238262   4.066   5.110   4.409  2.7066 -1.3759  2.4600
 5591TIP3   OH238263   3.415   1.178   6.160 -0.3803  0.6486 -0.6481
 5591TIP3    H138264   3.335   1.204   6.116 -0.0944  1.0639 -0.9281
 5591TIP3    H238265   3.414   1.082   6.158 -0.4815  0.6593 -1.3604
 5592TIP3   OH238266   1.286   2.738  14.879 -0.0950 -0.3838 -0.7798
 5592TIP3    H138267   1.210   2.769  14.928  0.5392  1.2066 -0.7370
 5592TIP3    H238268   1.297   2.647  14.908  0.5616  0.6008  2.5303
 5593TIP3   OH238269   6.669   0.079   2.273  0.1413  0.6870  0.4414
 5593TIP3    H138270   6.759   0.111   2.267  0.6203 -0.3356  1.6220
 5593TIP3    H238271   6.615   0.152   2.243  1.3499  1.3888 -0.1000
 5594TIP3   OH238272   2.397   3.854  13.232 -0.0657  0.5854  0.2288
 5594TIP3    H138273   2.404   3.758  13.227 -0.3840  0.5982 -0.5327
 5594TIP3    H238274   2.303   3.871  13.227  0.0766  1.0230 -1.3106
 5595TIP3   OH238275   1.270   6.759   1.362  1.2381 -0.0154 -0.3294
 5595TIP3    H138276   1.289   6.706   1.284  1.5998  0.0686 -0.2993
 5595TIP3    H238277   1.175   6.756   1.370  1.2918 -1.4197  0.1843
 5596TIP3   OH238278   2.997   3.513  14.751 -0.1005 -0.2508  0.2429
 5596TIP3    H138279   2.981   3.569  14.827 -1.6177 -0.8036  0.3548
 5596TIP3    H238280   3.022   3.428  14.787 -0.5276 -0.4294  0.1218
 5597TIP3   OH238281   4.617   3.638   2.891  0.1398 -0.8883  0.0718
 5597TIP3    H138282   4.557   3.712   2.902  1.4517  0.9144 -3.3715
 5597TIP3    H238283   4.561   3.563   2.872 -1.1199  0.0765 -0.1007
 5598TIP3   OH238284   4.420   5.748  13.581 -0.3029 -0.1726  0.0231
 5598TIP3    H138285   4.463   5.673  13.620 -0.5919  0.1556  1.0052
 5598TIP3    H238286   4.388   5.717  13.497 -0.0977 -1.0395  0.2623
 5599TIP3   OH238287   6.198   5.283   2.086  0.0075  0.4175  0.2914
 5599TIP3    H138288   6.194   5.191   2.061 -0.3110  0.8992 -1.5705
 5599TIP3    H238289   6.259   5.285   2.160 -0.2419 -1.3230  0.5777
 5600TIP3   OH238290   6.433   3.863  17.121 -0.5081 -0.2194 -0.9241
 5600TIP3    H138291   6.438   3.851  17.026 -2.3581  0.1767 -1.1071
 5600TIP3    H238292   6.412   3.777  17.155 -1.1750 -0.0928 -1.0095
 5601TIP3   OH238293   0.712   4.201   0.758  0.3066  0.2572 -0.9985
 5601TIP3    H138294   0.688   4.248   0.838  1.2698 -1.4733  0.3877
 5601TIP3    H238295   0.630   4.168   0.723 -0.1763  1.4378 -1.0016
 5602TIP3   OH238296   2.241   3.337  12.774 -0.2500 -0.0446  0.0659
 5602TIP3    H138297   2.324   3.290  12.772 -1.1248 -2.1720  3.7416
 5602TIP3    H238298   2.187   3.288  12.836 -2.3079  4.2952  2.1784
 5603TIP3   OH238299   6.667   3.698   5.294  0.1773  0.6030  0.6880
 5603TIP3    H138300   6.657   3.791   5.275  1.3754  0.4494 -0.8913
 5603TIP3    H238301   6.625   3.653   5.220  3.1991 -0.0361 -0.7936
 5604TIP3   OH238302   0.626   5.921   5.448 -0.1184 -0.2609  0.0675
 5604TIP3    H138303   0.613   5.989   5.382 -1.1097  0.2069  0.7296
 5604TIP3    H238304   0.568   5.849   5.421  1.0204 -0.9301 -0.7013
 5605TIP3   OH238305   0.378   2.027   6.996 -0.3806  0.0492 -0.3996
 5605TIP3    H138306   0.286   2.048   6.983 -0.6195 -0.2044  0.7522
 5605TIP3    H238307   0.410   2.097   7.054 -0.2163 -0.6441  0.3573
 5606TIP3   OH238308   4.407   2.543  16.679  0.6356 -0.4628 -0.0802
 5606TIP3    H138309   4.408   2.594  16.598  1.0460 -0.2163  0.0782
 5606TIP3    H238310   4.449   2.460  16.655  2.1430  0.1682  0.2274
 5607TIP3   OH238311   2.204   2.602   0.675 -0.3658  0.2793  0.6803
 5607TIP3    H138312   2.299   2.613   0.677 -0.2506 -0.7857  2.1522
 5607TIP3    H238313   2.175   2.628   0.763 -1.4790  0.8149  0.1795
 5608TIP3   OH238314   1.362   4.353   3.275  1.1328  0.2942  0.0684
 5608TIP3    H138315   1.452   4.378   3.298  1.2450 -0.3190  0.3041
 5608TIP3    H238316   1.372   4.274   3.223  0.8269  1.1586 -1.3821
 5609TIP3   OH238317   6.730   0.016   1.954  0.4733  0.2865  0.4321
 5609TIP3    H138318   6.752  -0.054   1.893 -1.4357  0.4750 -0.5723
 5609TIP3    H238319   6.707  -0.029   2.036 -0.3663 -0.2670 -0.0862
 5610TIP3   OH238320   5.079   4.708  16.500 -0.1283 -0.1909  0.0736
 5610TIP3    H138321   5.088   4.629  16.553 -0.9494 -0.3311  0.0153
 5610TIP3    H238322   5.100   4.681  16.411  0.9351 -0.0267  0.2579
 5611TIP3   OH238323   3.628   3.708   3.661 -0.0567 -0.6162 -0.0919
 5611TIP3    H138324   3.708   3.694   3.610 -0.3817 -0.3117 -0.7037
 5611TIP3    H238325   3.558   3.677   3.603 -0.4014 -0.6336  0.3353
 5612TIP3   OH238326   5.582   6.438   4.867  0.2905  0.2263 -0.0606
 5612TIP3    H138327   5.664   6.418   4.911  0.1698 -0.9038 -0.3336
 5612TIP3    H238328   5.539   6.503   4.923  2.0709  2.0738 -0.7192
 5613TIP3   OH238329   1.499   2.700   4.108 -0.3498 -0.0963 -0.2848
 5613TIP3    H138330   1.484   2.789   4.140 -1.0567 -1.0063  2.1301
 5613TIP3    H238331   1.593   2.696   4.091 -0.2812  1.0548 -0.2482
 5614TIP3   OH238332   3.097   2.774  16.265 -0.1209  0.2421  0.2043
 5614TIP3    H138333   3.126   2.814  16.183  1.1971  1.4154  1.1981
 5614TIP3    H238334   3.158   2.702  16.279  1.4363  1.7311  1.4894
 5615TIP3   OH238335   3.059   5.281  16.450 -0.3792 -0.2026 -0.3087
 5615TIP3    H138336   3.008   5.361  16.462 -0.0197 -0.0935  0.5852
 5615TIP3    H238337   3.148   5.311  16.432 -0.1575 -0.3879  0.4319
 5616TIP3   OH238338   2.305   5.179   0.275 -0.0572 -0.2774  0.0231
 5616TIP3    H138339   2.389   5.199   0.317  0.4454 -3.2015  0.5951
 5616TIP3    H238340   2.310   5.225   0.191  1.2504  1.1997  0.8427
 5617TIP3   OH238341   2.663   4.960  14.915 -0.0685  0.0546  0.2057
 5617TIP3    H138342   2.605   5.005  14.976 -0.0619  0.9060 -0.3925
 5617TIP3    H238343   2.740   5.016  14.909  0.0507 -0.1596 -0.3674
 5618TIP3   OH238344   2.721   2.109  15.875 -0.2284  0.0537 -0.0016
 5618TIP3    H138345   2.728   2.039  15.940  2.9097  1.5372  1.4690
 5618TIP3    H238346   2.789   2.089  15.811  0.2241  1.3456  0.0501
 5619TIP3   OH238347   2.650   1.367  16.797  0.1837 -1.2869  0.2281
 5619TIP3    H138348   2.611   1.302  16.738  2.9871 -2.3909 -0.6066
 5619TIP3    H238349   2.667   1.319  16.878  0.6743 -1.1399  0.2202
 5620TIP3   OH238350   1.804   0.815   6.479  0.0651 -0.1337  0.1745
 5620TIP3    H138351   1.748   0.739   6.462 -0.9594  0.4421  0.8822
 5620TIP3    H238352   1.891   0.786   6.453 -0.7599 -0.5358 -2.4498
 5621TIP3   OH238353   0.888   4.166   5.338  0.0257  0.0500 -0.6223
 5621TIP3    H138354   0.907   4.218   5.416  0.8417 -1.8431  0.5319
 5621TIP3    H238355   0.970   4.165   5.289  0.7171 -1.8165  0.4586
 5622TIP3   OH238356   4.427   6.413   3.991 -0.4826  0.4686 -0.4483
 5622TIP3    H138357   4.367   6.432   4.064  0.3046  1.2309  0.0263
 5622TIP3    H238358   4.463   6.499   3.967 -1.2032  0.3245 -2.1770
 5623TIP3   OH238359   0.562   6.201  12.552  0.1129  0.4187 -0.4382
 5623TIP3    H138360   0.567   6.283  12.501 -1.6645  0.4191 -0.6843
 5623TIP3    H238361   0.490   6.216  12.613  0.9847 -0.3062  0.8005
 5624TIP3   OH238362   2.429   0.070   4.322 -0.2276  0.6676 -0.4004
 5624TIP3    H138363   2.489   0.076   4.397 -0.9428 -0.2464  0.2665
 5624TIP3    H238364   2.484   0.041   4.249  0.1543 -0.1437  0.1983
 5625TIP3   OH238365   3.881   2.460  16.350  0.3233 -0.2955 -0.2040
 5625TIP3    H138366   3.856   2.382  16.399 -0.0980  0.3659  0.6635
 5625TIP3    H238367   3.901   2.526  16.417 -0.4000  0.6785 -0.9009
 5626TIP3   OH238368   0.682   1.957   4.330 -0.3722  0.0863 -0.3730
 5626TIP3    H138369   0.743   1.911   4.388 -1.1452  1.5761  1.7007
 5626TIP3    H238370   0.598   1.913   4.344 -1.0320  1.7710  1.3413
 5627TIP3   OH238371   5.305   6.322   3.742 -0.1062  0.6612 -0.1816
 5627TIP3    H138372   5.395   6.348   3.723  0.5285 -1.6193 -0.6529
 5627TIP3    H238373   5.313   6.255   3.809 -1.3643 -0.2050 -0.8402
 5628TIP3   OH238374   5.446   4.831  13.636  0.0392  0.3769 -0.1432
 5628TIP3    H138375   5.491   4.820  13.720 -1.9284 -0.9787  0.8402
 5628TIP3    H238376   5.502   4.785  13.573  0.9389  0.3326  0.6565
 5629TIP3   OH238377   2.060   6.356   3.122 -0.5791  0.1964 -0.1378
 5629TIP3    H138378   2.042   6.266   3.149  2.7311 -0.9014 -1.0263
 5629TIP3    H238379   2.094   6.399   3.201  0.2536 -0.1684 -0.2812
 5630TIP3   OH238380   5.180   1.940  14.070  0.0761 -0.2365  0.1100
 5630TIP3    H138381   5.211   2.026  14.041 -0.2065  0.0646  0.6877
 5630TIP3    H238382   5.257   1.899  14.108  0.4466 -0.6268 -1.0181
 5631TIP3   OH238383   5.800   1.516  15.592 -0.3552  0.0384 -0.0113
 5631TIP3    H138384   5.876   1.553  15.638 -0.1986  1.4865 -1.3606
 5631TIP3    H238385   5.813   1.421  15.597  0.9452  0.2332  0.7556
 5632TIP3   OH238386   0.450   2.942   3.503  0.6588 -0.1173  0.4971
 5632TIP3    H138387   0.391   2.908   3.570  1.2490 -0.4557  0.8591
 5632TIP3    H238388   0.501   2.866   3.475  1.4863  0.3118  0.7923
 5633TIP3   OH238389   0.149   0.574  11.067 -0.1746 -0.8843 -0.2891
 5633TIP3    H138390   0.132   0.644  11.130 -0.9859 -0.9526 -0.4133
 5633TIP3    H238391   0.166   0.496  11.121  0.8260 -0.5741 -0.1504
 5634TIP3   OH238392   5.545   2.470   6.315  0.3783  0.1396  0.0972
 5634TIP3    H138393   5.637   2.446   6.318  0.4242  0.1120 -1.0984
 5634TIP3    H238394   5.538   2.548   6.370  1.3841  0.9538 -0.8822
 5635TIP3   OH238395   1.653   4.863   3.866 -0.3222 -0.6394  0.1562
 5635TIP3    H138396   1.696   4.788   3.909  1.7551 -0.3063 -1.1988
 5635TIP3    H238397   1.623   4.918   3.938  1.5814 -0.9119  1.2126
 5636TIP3   OH238398   3.883   5.364  16.476  0.2261  0.9522  0.2056
 5636TIP3    H138399   3.910   5.450  16.444  0.2520  0.7700 -0.2711
 5636TIP3    H238400   3.795   5.378  16.510 -0.2210  0.9366 -0.9073
 5637TIP3   OH238401   0.512   0.425   1.844  0.2980 -0.1217 -0.2457
 5637TIP3    H138402   0.543   0.344   1.885  0.4247 -1.0463 -2.0501
 5637TIP3    H238403   0.574   0.440   1.773 -0.3343  0.9873 -0.5737
 5638TIP3   OH238404   0.107   6.125  11.982 -0.8713 -0.3152 -0.5867
 5638TIP3    H138405   0.123   6.166  12.067  0.8037  0.6507 -1.3193
 5638TIP3    H238406   0.186   6.143  11.932 -1.5048 -1.5509 -2.0972
 5639TIP3   OH238407   5.463   3.338  13.274  0.5822 -0.0065  0.1443
 5639TIP3    H138408   5.491   3.285  13.349  0.7514 -0.5917 -0.3201
 5639TIP3    H238409   5.379   3.299  13.249  0.0233  0.8367  0.6532
 5640TIP3   OH238410   2.652   1.900   1.492 -0.5625  0.6082 -0.0522
 5640TIP3    H138411   2.667   1.916   1.585 -2.0511 -0.1666  0.3559
 5640TIP3    H238412   2.680   1.980   1.448  0.8125  0.7202  0.9861
 5641TIP3   OH238413   4.916   5.213   1.882  0.1953 -0.5548  0.0727
 5641TIP3    H138414   4.902   5.292   1.830 -1.0519 -0.6328  0.2522
 5641TIP3    H238415   4.995   5.232   1.932  0.8728 -0.0955 -1.1149
 5642TIP3   OH238416   5.249   5.390   6.101  0.4106  0.3852 -0.1584
 5642TIP3    H138417   5.275   5.448   6.172 -0.3746  0.6627 -0.0932
 5642TIP3    H238418   5.241   5.304   6.142 -2.3142  0.9207  0.6667
 5643TIP3   OH238419   3.729   3.046   4.494  0.3459 -0.0966  0.3550
 5643TIP3    H138420   3.716   3.118   4.556 -0.0289  0.5640 -0.4665
 5643TIP3    H238421   3.676   2.974   4.530  0.1355  0.2706  0.7965
 5644TIP3   OH238422   3.977   5.516  15.827  0.0161  0.3798  0.1493
 5644TIP3    H138423   3.989   5.611  15.826  1.7329  0.2122 -1.2866
 5644TIP3    H238424   4.041   5.484  15.891  0.0790  0.1398 -0.0309
 5645TIP3   OH238425   4.908   3.814  15.850 -0.3057 -0.2777 -0.6446
 5645TIP3    H138426   4.861   3.734  15.824 -1.6427 -0.0973  1.0511
 5645TIP3    H238427   4.906   3.869  15.772 -0.2790 -1.4847 -1.5195
 5646TIP3   OH238428   5.472   3.292  15.652 -0.3764 -0.1799 -0.0424
 5646TIP3    H138429   5.387   3.250  15.650  0.3406 -1.9407  2.3941
 5646TIP3    H238430   5.455   3.380  15.687 -1.3227  0.0037 -0.9232
 5647TIP3   OH238431   1.149   0.200  13.224  0.1559 -0.5165 -0.4604
 5647TIP3    H138432   1.175   0.278  13.272  0.6098 -1.5743  1.0660
 5647TIP3    H238433   1.064   0.222  13.186 -1.3479 -0.3567  2.6863
 5648TIP3   OH238434   3.966   6.643  12.005  0.1931 -0.2583 -0.5700
 5648TIP3    H138435   4.056   6.649  11.974  0.4544 -1.1688 -0.0279
 5648TIP3    H238436   3.912   6.649  11.926  0.6333  1.7830 -0.7852
 5649TIP3   OH238437   5.870   4.681  13.166  0.2872  0.1512 -0.3638
 5649TIP3    H138438   5.957   4.671  13.205  0.3017  0.2395 -0.3721
 5649TIP3    H238439   5.873   4.630  13.086  0.1889 -0.2073 -0.1400
 5650TIP3   OH238440   0.975   0.236  15.013 -0.3449  0.2145  0.2374
 5650TIP3    H138441   0.970   0.318  15.062  1.3654  0.7304 -0.3685
 5650TIP3    H238442   1.047   0.250  14.951 -0.8278 -1.3103 -0.7104
 5651TIP3   OH238443   0.080   2.424   3.847  0.2478 -0.4798  0.1479
 5651TIP3    H138444   0.008   2.369   3.816 -0.4864  0.3723  0.2980
 5651TIP3    H238445   0.147   2.417   3.779 -0.2957 -0.6618 -0.3799
 5652TIP3   OH238446   6.437   0.576  12.164  0.2104 -0.0205 -0.3801
 5652TIP3    H138447   6.520   0.592  12.120 -0.0844  1.0978 -0.5515
 5652TIP3    H238448   6.390   0.517  12.105  0.1858  0.7390 -1.1340
 5653TIP3   OH238449   4.911   6.240  12.957 -0.1718  0.1151  0.7023
 5653TIP3    H138450   4.860   6.237  12.876  0.9489  0.4526 -0.0295
 5653TIP3    H238451   4.943   6.150  12.968 -0.0640  0.1399  0.5959
 5654TIP3   OH238452   3.516   1.847   3.587 -0.4942 -0.0415 -0.1100
 5654TIP3    H138453   3.460   1.815   3.517 -0.7211  0.3697 -0.1221
 5654TIP3    H238454   3.519   1.942   3.574 -0.9517  0.1050  0.7212
 5655TIP3   OH238455   5.826   1.018   2.027 -0.2256  0.6143 -0.1903
 5655TIP3    H138456   5.909   0.981   1.999 -0.1361  0.6792 -0.0095
 5655TIP3    H238457   5.829   1.015   2.123 -0.6062  0.2228 -0.1885
 5656TIP3   OH238458   1.886   3.860   6.070 -0.1937 -0.5183 -0.5697
 5656TIP3    H138459   1.978   3.879   6.056  0.3464 -1.8233  0.9612
 5656TIP3    H238460   1.856   3.928   6.130  0.0564 -0.7341 -0.2011
 5657TIP3   OH238461   6.624   2.705  15.685 -0.1674  0.3318  0.7613
 5657TIP3    H138462   6.670   2.779  15.726 -0.6231 -0.5654  3.0515
 5657TIP3    H238463   6.532   2.719  15.706 -0.5107  0.1914 -0.5970
 5658TIP3   OH238464   5.303   0.847  11.662 -0.4240 -0.1868 -0.2318
 5658TIP3    H138465   5.219   0.848  11.616  0.4308  1.0026 -1.8642
 5658TIP3    H238466   5.367   0.831  11.594  0.8237  0.5548  0.7282
 5659TIP3   OH238467   2.483   6.084  11.656 -0.2358  0.3019  0.3854
 5659TIP3    H138468   2.451   6.033  11.582 -2.1085  2.5322 -0.4749
 5659TIP3    H238469   2.571   6.050  11.673 -0.0894 -0.9014 -2.2685
 5660TIP3   OH238470   4.603   5.357  14.252  0.2633 -0.2322  0.0221
 5660TIP3    H138471   4.535   5.334  14.189  1.1272 -0.2299 -0.9456
 5660TIP3    H238472   4.673   5.394  14.199  0.8024  0.2732  1.0538
 5661TIP3   OH238473   2.878   0.824   1.789 -0.0008 -0.0234 -0.3697
 5661TIP3    H138474   2.895   0.891   1.856 -0.8147 -0.3568  0.1973
 5661TIP3    H238475   2.797   0.854   1.747  0.5302  0.2052 -1.2465
 5662TIP3   OH238476   2.390   0.473  10.867 -0.5607 -0.1688 -0.7985
 5662TIP3    H138477   2.391   0.532  10.792  3.5853  2.3047  0.8705
 5662TIP3    H238478   2.442   0.398  10.840 -0.0723  0.1645 -0.7874
 5663TIP3   OH238479   3.270   6.377   3.156  0.7198  0.3142 -0.6299
 5663TIP3    H138480   3.177   6.356   3.165  1.0009 -1.0266 -0.7219
 5663TIP3    H238481   3.311   6.336   3.232  1.8867 -3.4285 -3.0211
 5664TIP3   OH238482   2.918   2.454  16.637 -0.2952  0.7971  0.6353
 5664TIP3    H138483   2.927   2.364  16.669 -2.5559  0.3491  0.1678
 5664TIP3    H238484   2.876   2.445  16.551  2.5769  2.1474 -1.0722
 5665TIP3   OH238485   4.268   1.791   0.371 -0.2302  0.5138 -0.4826
 5665TIP3    H138486   4.181   1.756   0.390  0.1217  0.7646  1.8905
 5665TIP3    H238487   4.270   1.875   0.417  0.7223  1.3204 -1.9016
 5666TIP3   OH238488   5.294   6.461   5.480  0.1684  0.3562  0.8721
 5666TIP3    H138489   5.246   6.467   5.398 -0.6987 -0.9803  1.2459
 5666TIP3    H238490   5.331   6.372   5.479  1.1031  0.7264  1.4220
 5667TIP3   OH238491   2.255   5.496  14.944  0.0342  0.3889  0.4135
 5667TIP3    H138492   2.190   5.566  14.942  0.2192  0.6479  1.9662
 5667TIP3    H238493   2.208   5.418  14.914 -1.0967  0.5096  1.7695
 5668TIP3   OH238494   5.924   4.978   5.969 -0.2232  0.5550 -0.5126
 5668TIP3    H138495   6.002   4.983   6.025 -0.2957 -0.9189 -0.2422
 5668TIP3    H238496   5.881   4.897   5.995 -2.3115  1.7155 -0.0897
 5669TIP3   OH238497   2.610   0.899  12.986  0.1500  0.5143  0.3393
 5669TIP3    H138498   2.611   0.891  13.082  1.0546  0.4462  0.3326
 5669TIP3    H238499   2.518   0.914  12.965 -0.4175 -1.5114  1.0645
 5670TIP3   OH238500   5.138   2.956   2.075  0.1958 -0.1601  0.3580
 5670TIP3    H138501   5.139   3.050   2.059  2.1731 -0.2212 -0.1298
 5670TIP3    H238502   5.221   2.939   2.121 -0.2309 -1.6279  0.6216
 5671TIP3   OH238503   4.980   0.002   5.824 -0.3286 -0.5085 -0.1696
 5671TIP3    H138504   4.975  -0.016   5.730 -0.0329  0.4590 -0.3746
 5671TIP3    H238505   5.073   0.007   5.843 -0.3848  0.9360 -0.1606
 5672TIP3   OH238506   5.859   3.469  12.316 -0.4419 -0.3983  0.2005
 5672TIP3    H138507   5.839   3.480  12.409  0.9540  3.3266  0.2458
 5672TIP3    H238508   5.946   3.430  12.314 -0.9959 -1.6835  0.3746
 5673TIP3   OH238509   0.476   1.226   0.797 -0.4979  0.4619  0.5956
 5673TIP3    H138510   0.470   1.319   0.818 -0.7045  0.8462 -1.0063
 5673TIP3    H238511   0.562   1.200   0.827  0.1543  1.5482 -0.2544
 5674TIP3   OH238512   1.393   4.922   2.476 -0.4683  0.0994  0.3129
 5674TIP3    H138513   1.345   5.002   2.499 -0.0622  1.4698 -2.9584
 5674TIP3    H238514   1.373   4.908   2.383  0.8786 -2.6344  0.3293
 5675TIP3   OH238515   4.704   2.829  12.007 -0.5773  0.0624  0.1725
 5675TIP3    H138516   4.707   2.923  12.028  0.8070  0.1190 -0.2058
 5675TIP3    H238517   4.714   2.785  12.092  0.4234  0.2688  0.1669
 5676TIP3   OH238518   4.682   5.599  11.074  0.1142  0.1454  0.3282
 5676TIP3    H138519   4.658   5.652  10.998 -1.2151  0.5278  0.9723
 5676TIP3    H238520   4.690   5.510  11.040  1.5858  0.6125 -0.6232
 5677TIP3   OH238521   3.321   3.326  15.879  0.1406  0.1950 -0.3897
 5677TIP3    H138522   3.366   3.270  15.816 -1.4553 -1.4760 -0.1256
 5677TIP3    H238523   3.342   3.415  15.851 -0.3870 -0.4662 -3.2331
 5678TIP3   OH238524   1.805   1.830   3.254 -0.9445 -0.9255  0.0786
 5678TIP3    H138525   1.728   1.863   3.208 -1.0500 -0.7904  0.3468
 5678TIP3    H238526   1.845   1.909   3.291 -1.0237 -1.0657  0.4619
 5679TIP3   OH238527   5.667   3.139  12.547 -0.4386  0.3667 -0.2593
 5679TIP3    H138528   5.721   3.115  12.472 -0.6428 -1.7081  0.1933
 5679TIP3    H238529   5.585   3.091  12.535 -0.4590 -0.0652  1.3069
 5680TIP3   OH238530   5.124   6.794  15.244  0.0721 -0.3545  0.2634
 5680TIP3    H138531   5.127   6.699  15.230 -0.3769 -0.1413 -1.5705
 5680TIP3    H238532   5.199   6.812  15.301  0.2114 -1.7965  0.5818
 5681TIP3   OH238533   1.447   4.856   5.923 -0.3698 -0.5146 -0.2623
 5681TIP3    H138534   1.428   4.776   5.972  0.8831  0.0352  1.2015
 5681TIP3    H238535   1.470   4.920   5.991 -0.6501  0.8863 -1.4479
 5682TIP3   OH238536   3.088   1.302   4.961  0.6005 -0.1433  0.0565
 5682TIP3    H138537   3.086   1.309   4.865 -2.3272 -2.2002 -0.1824
 5682TIP3    H238538   3.138   1.222   4.978 -0.4080 -0.7988  0.0605
 5683TIP3   OH238539   0.533   3.441   6.043 -0.0525  0.8934  0.0112
 5683TIP3    H138540   0.520   3.534   6.026 -1.3449  0.7102 -0.0701
 5683TIP3    H238541   0.492   3.426   6.128  1.8422  0.7551  0.9677
 5684TIP3   OH238542   5.796   0.750   2.909 -0.4931  0.1600  0.1521
 5684TIP3    H138543   5.721   0.695   2.933 -0.3062 -0.1568  0.0170
 5684TIP3    H238544   5.837   0.773   2.993 -0.9320  0.6073  0.2462
 5685TIP3   OH238545   0.898   6.730  13.983  0.1081  0.2380  0.3981
 5685TIP3    H138546   0.908   6.734  13.888 -0.2789 -0.7028  0.3010
 5685TIP3    H238547   0.807   6.757  13.999  0.1991  0.4785  0.5065
 5686TIP3   OH238548   4.749   2.873   2.554 -0.0084 -0.3641  0.0130
 5686TIP3    H138549   4.817   2.853   2.490  0.1568  0.0350  0.0608
 5686TIP3    H238550   4.681   2.808   2.537  0.2938 -0.6379 -0.1701
 5687TIP3   OH238551   0.122   1.461  14.871 -0.5260  0.3084 -0.2818
 5687TIP3    H138552   0.075   1.382  14.844  0.3171  0.3018 -1.8928
 5687TIP3    H238553   0.132   1.452  14.966  0.2357 -1.9353 -0.5054
 5688TIP3   OH238554   0.388   3.925   1.982  0.3514 -0.3982  0.1387
 5688TIP3    H138555   0.465   3.921   2.038 -1.1388 -3.4764  2.2689
 5688TIP3    H238556   0.350   4.011   2.000  1.3883 -0.2348  1.7817
 5689TIP3   OH238557   5.164   6.667   3.845 -0.3777 -0.5291 -0.0505
 5689TIP3    H138558   5.138   6.581   3.878  0.2942 -0.4900  0.6067
 5689TIP3    H238559   5.100   6.687   3.776  0.5297 -2.3708 -1.5172
 5690TIP3   OH238560   4.312   5.947  12.090 -0.3650 -0.0451  0.2452
 5690TIP3    H138561   4.366   5.975  12.164 -1.3104 -0.7462  1.2394
 5690TIP3    H238562   4.365   5.967  12.013  0.7067  0.5928  1.1089
 5691TIP3   OH238563   1.994   1.318  16.812 -0.2683  0.3220  0.1273
 5691TIP3    H138564   2.052   1.331  16.736  0.4020  1.4258  0.8020
 5691TIP3    H238565   1.943   1.398  16.817 -0.7989 -0.0313  0.4377
 5692TIP3   OH238566   1.139   4.791   6.526  0.4362  0.3751  0.1855
 5692TIP3    H138567   1.093   4.871   6.552 -1.8847 -0.4944 -0.9987
 5692TIP3    H238568   1.201   4.820   6.458 -0.3367  1.1941 -0.1862
 5693TIP3   OH238569   4.027   2.898  16.688 -0.0352 -0.4112 -0.1109
 5693TIP3    H138570   3.931   2.894  16.685 -0.0709  0.5887 -1.1465
 5693TIP3    H238571   4.050   2.869  16.776 -1.2393 -1.3494 -0.0758
 5694TIP3   OH238572   4.127   0.729  15.036 -0.0187  0.1797 -0.3631
 5694TIP3    H138573   4.172   0.645  15.027 -0.9899 -0.5486  1.2176
 5694TIP3    H238574   4.197   0.794  15.036  0.9258 -0.8052  0.4153
 5695TIP3   OH238575   1.515   0.253   3.790  0.0367  0.0217  0.1335
 5695TIP3    H138576   1.447   0.320   3.790 -0.1756 -0.1121  2.2025
 5695TIP3    H238577   1.470   0.174   3.823  0.9977 -0.2489  0.8413
 5696TIP3   OH238578   5.244   3.254  13.150  0.1929  0.1495 -0.1225
 5696TIP3    H138579   5.245   3.190  13.221 -0.4908  1.9038  1.5265
 5696TIP3    H238580   5.194   3.211  13.080  0.1430 -1.2758  0.7582
 5697TIP3   OH238581   5.171   5.761  15.474  0.5189 -0.1318  0.4192
 5697TIP3    H138582   5.220   5.747  15.393  1.1869  1.3053  0.5362
 5697TIP3    H238583   5.095   5.813  15.447  0.1990 -0.5108  0.5742
 5698TIP3   OH238584   3.951   5.628  13.763 -0.1170 -0.1130  0.2063
 5698TIP3    H138585   3.978   5.585  13.682 -0.9068  0.5453 -0.4276
 5698TIP3    H238586   4.033   5.660  13.802  0.2616 -0.3752 -0.3663
 5699TIP3   OH238587   4.391   6.550   2.687 -0.1151  0.0600  0.3354
 5699TIP3    H138588   4.450   6.625   2.679  0.9308 -0.9788 -3.0603
 5699TIP3    H238589   4.305   6.583   2.659  0.0209  0.3027  0.2119
 5700TIP3   OH238590   2.349   1.266  14.096 -0.1890 -0.6954  0.0846
 5700TIP3    H138591   2.442   1.264  14.116 -0.1560 -0.7831 -0.0751
 5700TIP3    H238592   2.340   1.338  14.033 -0.3753 -0.0547  0.8321
 5701TIP3   OH238593   5.569   0.524  13.680  0.4778 -0.1717  0.3419
 5701TIP3    H138594   5.494   0.467  13.695 -0.1871  0.9902  1.6611
 5701TIP3    H238595   5.588   0.515  13.586  0.2048 -2.2749  0.4416
 5702TIP3   OH238596   1.673   5.751   6.604  0.1434  0.2482  0.0520
 5702TIP3    H138597   1.681   5.825   6.544  0.1635  0.0440 -0.1995
 5702TIP3    H238598   1.642   5.789   6.687 -1.0513  0.3769 -0.4312
 5703TIP3   OH238599   6.386   4.839  11.721 -0.3613  0.2952 -0.1337
 5703TIP3    H138600   6.424   4.856  11.635  0.1004  0.2447  0.0575
 5703TIP3    H238601   6.377   4.743  11.725  2.4105 -0.0136  1.0151
 5704TIP3   OH238602   3.758   3.980   4.109 -0.5541  0.4938 -0.0404
 5704TIP3    H138603   3.785   4.010   4.022 -0.2734  0.1357 -0.0811
 5704TIP3    H238604   3.696   4.046   4.139 -0.6857  0.6017 -0.5295
 5705TIP3   OH238605   5.630   6.048  12.448  0.3511  0.2839  0.4549
 5705TIP3    H138606   5.544   6.004  12.446  1.4032 -1.9187 -1.8278
 5705TIP3    H238607   5.616   6.130  12.401 -0.7031  0.4291  0.9841
 5706TIP3   OH238608   5.936   4.486  12.339 -0.4796  0.2822  0.0905
 5706TIP3    H138609   5.958   4.579  12.335  0.2890  0.1059  0.1920
 5706TIP3    H238610   6.005   4.443  12.289 -0.0158 -0.3777  1.2643
 5707TIP3   OH238611   5.447   3.285   5.874 -0.4744  0.3428  0.3393
 5707TIP3    H138612   5.533   3.321   5.852  0.3028 -1.6127  0.0263
 5707TIP3    H238613   5.402   3.357   5.919  1.8134  0.9987  1.7400
 5708TIP3   OH238614   5.591   6.146   0.142 -0.2021 -0.6051  0.4211
 5708TIP3    H138615   5.665   6.205   0.126 -0.1820 -0.6200  0.4606
 5708TIP3    H238616   5.527   6.199   0.189 -0.2181 -0.5909  0.3837
 5709TIP3   OH238617   6.604   0.345  12.380  0.1833  0.0443  0.2739
 5709TIP3    H138618   6.677   0.405  12.367  0.4523 -0.5002 -0.8789
 5709TIP3    H238619   6.636   0.261  12.347 -0.8270 -0.2879  0.1023
 5710TIP3   OH238620   0.832   4.330   4.371  0.6877 -0.3579  0.4517
 5710TIP3    H138621   0.852   4.239   4.394  4.1862  0.3046  0.6737
 5710TIP3    H238622   0.815   4.328   4.277  2.2489 -1.1190  0.1444
 5711TIP3   OH238623   1.500   2.975  10.137  0.4210 -0.4610 -0.6995
 5711TIP3    H138624   1.466   3.062  10.157 -0.2065 -0.9418  0.3819
 5711TIP3    H238625   1.441   2.915  10.182  0.4077 -1.4922 -2.0520
 5712TIP3   OH238626   3.299   3.810   4.217 -0.0660 -0.4516  0.2587
 5712TIP3    H138627   3.204   3.804   4.215 -0.1244  0.1691  0.8151
 5712TIP3    H238628   3.322   3.854   4.135 -0.3545  0.4256  0.6371
 5713TIP3   OH238629   6.199   0.718  16.548 -0.5211 -0.0561  0.5588
 5713TIP3    H138630   6.181   0.812  16.544  0.0886  0.0424  0.1664
 5713TIP3    H238631   6.244   0.706  16.632  0.3532  0.1688  0.1328
 5714TIP3   OH238632   3.373   0.487   4.314  0.2248 -0.5897  0.4411
 5714TIP3    H138633   3.382   0.438   4.395  0.6925  0.5471  1.1036
 5714TIP3    H238634   3.341   0.573   4.341  3.3386  0.9172 -0.1428
 5715TIP3   OH238635   4.060   5.664   5.186  0.6164  0.3760  0.7229
 5715TIP3    H138636   4.013   5.746   5.202  1.3332  1.0210 -0.3554
 5715TIP3    H238637   4.135   5.667   5.247  0.6286  0.5112  0.7022
 5716TIP3   OH238638   4.763   3.054   3.377 -0.0815 -0.2625  0.1346
 5716TIP3    H138639   4.694   2.994   3.348  0.1252  0.4070 -1.9135
 5716TIP3    H238640   4.837   2.997   3.400 -1.2013 -0.9761  2.2064
 5717TIP3   OH238641   5.187   1.482  14.850  0.5057  0.1604 -0.6429
 5717TIP3    H138642   5.098   1.499  14.822  0.0283  1.2443  1.3660
 5717TIP3    H238643   5.235   1.562  14.827  1.3668 -0.9035 -2.9416
 5718TIP3   OH238644   1.053   5.455  12.523  0.0377 -0.2751  0.3250
 5718TIP3    H138645   1.139   5.468  12.482  0.6520  0.4943  1.7800
 5718TIP3    H238646   1.057   5.509  12.603 -2.4073  1.1474 -0.4272
 5719TIP3   OH238647   1.284   4.888  13.219 -0.4055  0.1873 -0.3287
 5719TIP3    H138648   1.196   4.859  13.195 -0.3529 -0.8991  0.6911
 5719TIP3    H238649   1.322   4.919  13.137 -1.3745 -0.3032 -0.9848
 5720TIP3   OH238650   6.578   3.327  16.601  0.1755  0.0614 -0.2835
 5720TIP3    H138651   6.574   3.355  16.509 -0.4253  1.4308  0.1334
 5720TIP3    H238652   6.613   3.238  16.597  0.0813  0.0584 -1.8464
 5721TIP3   OH238653   3.835   4.377   5.123  0.0355 -0.3103 -0.4955
 5721TIP3    H138654   3.823   4.449   5.062  1.1200 -0.5442 -1.0114
 5721TIP3    H238655   3.928   4.380   5.146  0.3338 -2.1238 -1.2975
 5722TIP3   OH238656   3.834   4.532   1.262 -0.3246 -0.4204  0.5787
 5722TIP3    H138657   3.890   4.551   1.337 -0.1652  0.0475  0.3420
 5722TIP3    H238658   3.882   4.565   1.187 -0.7240 -0.4029  0.3266
 5723TIP3   OH238659   1.723   3.282   2.077 -0.1705 -0.4389  0.0942
 5723TIP3    H138660   1.686   3.351   2.023  0.2353  0.6112  1.1159
 5723TIP3    H238661   1.682   3.294   2.162  3.8614  2.1889  1.9887
 5724TIP3   OH238662   1.993   0.324  11.918  0.0948  0.2428  0.4143
 5724TIP3    H138663   1.914   0.295  11.964  0.6163 -0.7998  0.7014
 5724TIP3    H238664   2.047   0.245  11.913  1.6323  1.2139  1.2920
 5725TIP3   OH238665   1.555   4.092   0.775 -0.5125  0.0235  0.3017
 5725TIP3    H138666   1.558   4.102   0.870 -3.1601 -1.8970  0.6893
 5725TIP3    H238667   1.569   4.181   0.742  0.0995  0.8057  2.4776
 5726TIP3   OH238668   2.312   5.281  10.703 -0.4844  0.1493 -0.1013
 5726TIP3    H138669   2.379   5.219  10.674  1.4576  1.5116  1.3056
 5726TIP3    H238670   2.263   5.233  10.770 -0.4557 -0.5976 -0.5951
 5727TIP3   OH238671   6.544   1.693   3.108 -0.7117  0.1650  0.2277
 5727TIP3    H138672   6.454   1.706   3.077 -0.9379 -2.3646 -0.4722
 5727TIP3    H238673   6.543   1.605   3.146  1.4912  0.0388  0.1208
 5728TIP3   OH238674   3.217   5.196   2.366  0.3295  0.2316  0.5201
 5728TIP3    H138675   3.199   5.171   2.275  1.1597 -0.8761  0.6334
 5728TIP3    H238676   3.179   5.283   2.375 -1.5897 -0.4718 -0.2847
 5729TIP3   OH238677   2.168   2.678  11.558  0.0782  0.1979  0.4305
 5729TIP3    H138678   2.264   2.679  11.557  0.1610 -0.1015 -2.6710
 5729TIP3    H238679   2.145   2.585  11.551 -0.4796  0.2402  1.4923
 5730TIP3   OH238680   3.377   3.764  15.034 -0.3369 -0.4580  0.4831
 5730TIP3    H138681   3.331   3.837  14.991 -0.6403  0.1886  1.8331
 5730TIP3    H238682   3.310   3.697  15.044 -0.8700  0.2457  1.8922
 5731TIP3   OH238683   2.847   4.332   0.945  0.1226  0.1007 -0.3916
 5731TIP3    H138684   2.896   4.257   0.911 -1.4197 -0.6076 -1.1307
 5731TIP3    H238685   2.912   4.402   0.949  2.1538 -1.7109  2.2309
 5732TIP3   OH238686   2.532   4.181  15.094 -0.2998 -0.5036 -0.1307
 5732TIP3    H138687   2.449   4.174  15.046 -0.4979 -2.2103  0.4074
 5732TIP3    H238688   2.510   4.233  15.172 -0.9708 -1.2252  0.1795
 5733TIP3   OH238689   4.671   5.415   2.258  0.1925 -0.2663 -0.4053
 5733TIP3    H138690   4.752   5.438   2.212 -0.3456 -0.5238 -1.5182
 5733TIP3    H238691   4.669   5.473   2.334  0.6088  0.9227 -1.2702
 5734TIP3   OH238692   4.090   2.140   0.786 -0.1765  0.1356  0.1721
 5734TIP3    H138693   4.118   2.193   0.861  1.7088 -0.8921  0.2394
 5734TIP3    H238694   3.998   2.164   0.774 -1.0386 -0.7094  3.7423
 5735TIP3   OH238695   1.556   4.477  11.225 -0.0593 -0.4105  0.6615
 5735TIP3    H138696   1.596   4.559  11.196  0.1362  0.4327  3.0933
 5735TIP3    H238697   1.626   4.412  11.217  0.5233  0.1724  0.9394
 5736TIP3   OH238698   2.557   5.994   4.179  0.4526  0.5938  0.4487
 5736TIP3    H138699   2.605   5.936   4.120  0.1269 -0.2907  1.0438
 5736TIP3    H238700   2.492   6.037   4.123  1.2062  0.9918 -0.1475
 5737TIP3   OH238701   2.402   4.422  15.488 -0.0258  0.1498  1.0178
 5737TIP3    H138702   2.445   4.376  15.560  1.3147 -0.7029 -0.2672
 5737TIP3    H238703   2.319   4.377  15.477  1.4053 -2.3243 -0.4405
 5738TIP3   OH238704   2.826   2.751  16.954  0.3019  0.0313  0.2388
 5738TIP3    H138705   2.901   2.743  16.895  0.1612  0.3871  0.0106
 5738TIP3    H238706   2.801   2.661  16.974  0.3998 -0.0896 -0.1806
 5739TIP3   OH238707   3.317   1.335   5.715 -0.5357  0.2651 -0.0360
 5739TIP3    H138708   3.236   1.286   5.725  0.2070 -1.2721 -1.0689
 5739TIP3    H238709   3.301   1.395   5.643 -0.4181 -0.9002 -1.0785
 5740TIP3   OH238710   1.963   3.253  11.951 -0.1746  0.9040  0.3727
 5740TIP3    H138711   2.059   3.259  11.947 -0.1758  0.7081  0.0530
 5740TIP3    H238712   1.946   3.174  12.002 -0.1652  0.1383 -0.7975
 5741TIP3   OH238713   0.940   2.575   2.871  0.2410  0.5668  0.5320
 5741TIP3    H138714   0.939   2.505   2.806 -0.0912  0.6823  0.4097
 5741TIP3    H238715   0.994   2.644   2.831 -0.9053  1.1122 -0.1365
 5742TIP3   OH238716   4.335   5.781  15.999 -0.1491  0.0260  1.0910
 5742TIP3    H138717   4.389   5.822  15.932  1.9107 -0.8966  2.0820
 5742TIP3    H238718   4.246   5.786  15.965  0.5980  1.1425 -0.8750
 5743TIP3   OH238719   3.856   3.909  11.133  0.1978 -0.1729  0.6439
 5743TIP3    H138720   3.814   3.823  11.122  0.1624  0.0302 -1.0617
 5743TIP3    H238721   3.788   3.964  11.170  0.6533 -1.2163  3.2041
 5744TIP3   OH238722   6.305   5.036   0.346  0.1779 -0.3724 -0.2478
 5744TIP3    H138723   6.314   5.115   0.401  0.2756 -0.2667 -0.4162
 5744TIP3    H238724   6.279   5.069   0.260  2.3894 -0.3163 -0.9609
 5745TIP3   OH238725   5.713   5.013   3.229 -0.7715 -0.7008  0.1871
 5745TIP3    H138726   5.632   4.966   3.210 -0.5369 -1.5324  1.1471
 5745TIP3    H238727   5.782   4.947   3.225 -0.4768 -0.5430  1.9039
 5746TIP3   OH238728   6.421   3.828  13.130  0.1904 -0.2999 -0.4166
 5746TIP3    H138729   6.446   3.741  13.101 -0.8021 -0.4013 -1.0204
 5746TIP3    H238730   6.330   3.818  13.159 -0.0517  0.6074 -0.8392
 5747TIP3   OH238731   1.568   6.409  14.170  0.3880  0.0373  0.3534
 5747TIP3    H138732   1.556   6.478  14.105  0.7123  1.0173  1.2971
 5747TIP3    H238733   1.661   6.413  14.192 -0.0114  0.9252  2.1234
 5748TIP3   OH238734   0.246   6.121  15.362  0.3504 -0.6363 -0.4751
 5748TIP3    H138735   0.316   6.063  15.393  0.3636 -1.4111 -1.8526
 5748TIP3    H238736   0.169   6.065  15.360 -0.0662 -0.0839 -0.0256
 5749TIP3   OH238737   3.043   6.139   2.126 -0.6227  0.2089  0.0322
 5749TIP3    H138738   2.983   6.142   2.051  0.3995 -2.5799 -1.0277
 5749TIP3    H238739   3.114   6.198   2.102 -0.6780 -0.0703 -0.8530
 5750TIP3   OH238740   4.249   1.059  13.164  0.1263 -0.0754  0.8465
 5750TIP3    H138741   4.215   0.999  13.231 -0.9157 -2.0334 -1.2683
 5750TIP3    H238742   4.290   1.001  13.099  1.0720  1.7225 -0.2493
 5751TIP3   OH238743   4.360   5.592   4.981 -0.1387 -0.8349  0.6084
 5751TIP3    H138744   4.348   5.673   5.032  0.7423 -0.7759  0.7464
 5751TIP3    H238745   4.274   5.574   4.943 -0.3636  0.1378  0.6293
 5752TIP3   OH238746   4.885   2.416   0.912  0.5766  0.2462  0.5686
 5752TIP3    H138747   4.948   2.348   0.889  0.9205  0.2801  1.4031
 5752TIP3    H238748   4.802   2.370   0.924 -0.6366  0.5756 -4.3801
 5753TIP3   OH238749   5.391   2.462   6.107  0.0636  0.0692 -0.5451
 5753TIP3    H138750   5.426   2.395   6.048  1.2361  0.4294 -0.2655
 5753TIP3    H238751   5.450   2.461   6.183 -1.0233  0.0886  0.3414
 5754TIP3   OH238752   5.201   3.828   5.887  0.6055 -0.2219  0.4547
 5754TIP3    H138753   5.173   3.888   5.818 -1.1137  0.0447  1.3267
 5754TIP3    H238754   5.237   3.753   5.840 -0.5321 -0.0587 -0.7580
 5755TIP3   OH238755   0.845   3.217  13.997 -0.7256  0.2442  0.2280
 5755TIP3    H138756   0.878   3.306  13.997 -0.3339  0.1145  1.1762
 5755TIP3    H238757   0.762   3.222  14.045 -1.2519  0.2816 -0.6752
 5756TIP3   OH238758   3.056   5.057   5.674 -0.3686  0.0340  0.3906
 5756TIP3    H138759   2.969   5.021   5.659  0.1117 -1.8858  1.8375
 5756TIP3    H238760   3.066   5.124   5.607 -2.9967  0.4180  0.2742
 5757TIP3   OH238761   5.168   4.111  12.002  0.2756  0.0727 -0.0875
 5757TIP3    H138762   5.160   4.137  11.910  0.0808  1.1549  0.2241
 5757TIP3    H238763   5.237   4.045  12.002  1.6251  1.4249 -0.7664
 5758TIP3   OH238764   3.880   1.313   0.887  0.4143 -0.0567  1.1116
 5758TIP3    H138765   3.965   1.353   0.869 -0.1259  2.0425  2.7579
 5758TIP3    H238766   3.890   1.221   0.863  2.2651  0.6805 -1.3759
 5759TIP3   OH238767   4.369   5.137   3.158  0.1862 -0.2927 -0.2986
 5759TIP3    H138768   4.363   5.126   3.064  1.3304 -0.0709 -0.4107
 5759TIP3    H238769   4.429   5.068   3.187  0.1120 -0.1483  0.2110
 5760TIP3   OH238770   4.943   3.723  10.480  0.3902  0.1877 -0.0307
 5760TIP3    H138771   5.010   3.701  10.414  1.3543 -0.1689  1.0324
 5760TIP3    H238772   4.933   3.643  10.531 -0.8618  0.2461 -0.1694
 5761TIP3   OH238773   1.379   6.439   2.157  0.2806  1.0059  0.7000
 5761TIP3    H138774   1.345   6.367   2.105  1.7368  1.3244 -0.7986
 5761TIP3    H238775   1.364   6.414   2.248 -1.8963  0.1938  0.1669
 5762TIP3   OH238776   2.924   0.126  13.646  0.2030 -0.3354  0.0029
 5762TIP3    H138777   2.837   0.130  13.685  0.3520 -0.5476  0.3669
 5762TIP3    H238778   2.981   0.169  13.710  0.6348 -1.6918  0.5647
 5763TIP3   OH238779   6.736   3.624   3.817  0.9577 -0.4862  0.2824
 5763TIP3    H138780   6.710   3.659   3.731  0.0344 -0.9948  0.3392
 5763TIP3    H238781   6.658   3.635   3.872  0.4374 -3.0092  0.1692
 5764TIP3   OH238782   0.432   5.520  14.032  0.0104  0.0796  0.1806
 5764TIP3    H138783   0.416   5.535  14.125  0.5928  0.2119  0.2670
 5764TIP3    H238784   0.398   5.432  14.014 -0.4698  0.2141  0.4230
 5765TIP3   OH238785   0.560   1.066   5.732 -0.6725  0.3142  0.5018
 5765TIP3    H138786   0.569   1.157   5.761 -0.6908 -0.0616  1.7162
 5765TIP3    H238787   0.533   1.073   5.640 -0.1240  1.5296  0.4126
 5766TIP3   OH238788   2.744   0.335   5.201  0.1305 -0.1331  0.3490
 5766TIP3    H138789   2.833   0.355   5.230  0.1851 -3.1559  2.7652
 5766TIP3    H238790   2.756   0.290   5.117  0.8785 -0.2191  0.4946
 5767TIP3   OH238791   2.674   6.532   0.612  0.5472  0.4302  0.1694
 5767TIP3    H138792   2.634   6.555   0.696 -2.4170 -2.5363 -0.2142
 5767TIP3    H238793   2.657   6.608   0.556  2.1228  2.2480  1.9808
 5768TIP3   OH238794   2.325   6.632   3.927 -0.2685  0.1592 -0.3513
 5768TIP3    H138795   2.388   6.672   3.867 -0.3642  1.9339  0.6820
 5768TIP3    H238796   2.348   6.539   3.926  0.1650  0.2281 -2.5882
 5769TIP3   OH238797   3.225   0.811   5.431 -0.0769 -0.3309 -0.3709
 5769TIP3    H138798   3.237   0.901   5.461 -2.8394 -0.4459  1.4838
 5769TIP3    H238799   3.204   0.819   5.338 -0.5194  0.9832 -0.1780
 5770TIP3   OH238800   0.411   0.276   5.609  0.5460 -0.4277  0.5847
 5770TIP3    H138801   0.493   0.274   5.560 -0.3260 -0.3250 -0.9653
 5770TIP3    H238802   0.366   0.354   5.577 -1.1441 -1.7171 -0.3600
 5771TIP3   OH238803   3.312   3.541   2.118 -0.8328 -0.0084 -0.4018
 5771TIP3    H138804   3.266   3.500   2.192 -0.8372  1.2458  0.3205
 5771TIP3    H238805   3.345   3.623   2.153 -2.4690  1.5658 -2.2742
 5772TIP3   OH238806   3.799   4.320  16.385 -1.0454 -0.8151 -0.0750
 5772TIP3    H138807   3.726   4.375  16.412 -0.7308 -1.3464  2.1313
 5772TIP3    H238808   3.771   4.279  16.304 -3.7305 -1.9131  1.2954
 5773TIP3   OH238809   3.308   2.099   1.276  0.1134  0.4510  0.3493
 5773TIP3    H138810   3.390   2.095   1.227  0.6086 -0.6179  1.2221
 5773TIP3    H238811   3.328   2.153   1.353  0.4185 -0.8875  1.2544
 5774TIP3   OH238812   6.676   3.086  12.156 -0.3712 -0.3060  0.5052
 5774TIP3    H138813   6.684   3.001  12.199  2.3725  0.0997  0.9538
 5774TIP3    H238814   6.645   3.145  12.224 -2.2437 -0.8591  0.2041
 5775TIP3   OH238815   0.572   2.503   5.644 -0.1015 -0.0617  0.3695
 5775TIP3    H138816   0.543   2.412   5.639 -0.0678 -0.0711  0.3408
 5775TIP3    H238817   0.580   2.521   5.738 -0.1465 -0.0762  0.3761
 5776TIP3   OH238818   2.334   2.035   0.715 -0.2022 -0.1633 -0.2377
 5776TIP3    H138819   2.359   1.948   0.682 -0.0978 -0.5203  0.7549
 5776TIP3    H238820   2.385   2.046   0.795 -1.6908 -0.0533  0.7435
 5777TIP3   OH238821   5.695   0.703  13.268 -0.1343 -0.0424  0.2355
 5777TIP3    H138822   5.764   0.759  13.303 -1.7642  0.9170  2.1177
 5777TIP3    H238823   5.671   0.646  13.340  1.4417 -3.3167 -1.6172
 5778TIP3   OH238824   4.373   3.397  15.177  0.1124 -0.6320 -0.7563
 5778TIP3    H138825   4.388   3.352  15.260  0.7861 -0.7859 -0.9525
 5778TIP3    H238826   4.365   3.327  15.112 -0.6932 -0.5230 -0.7867
 5779TIP3   OH238827   0.893   3.901  12.529  0.0585  0.1281  0.1573
 5779TIP3    H138828   0.971   3.845  12.534 -0.7236 -0.9299  0.9228
 5779TIP3    H238829   0.928   3.990  12.518  1.3322 -0.4795 -0.9679
 5780TIP3   OH238830   4.558   4.874  15.335 -0.2063  0.3512  0.1873
 5780TIP3    H138831   4.463   4.877  15.330 -0.2528  0.9480  1.1752
 5780TIP3    H238832   4.584   4.816  15.264 -1.4064 -1.0262  0.8236
 5781TIP3   OH238833   6.342   5.931   3.929 -0.5537 -0.2180  0.2926
 5781TIP3    H138834   6.386   6.012   3.955  1.2548 -0.9305 -0.3749
 5781TIP3    H238835   6.370   5.917   3.838 -2.2390 -0.6934 -0.1824
 5782TIP3   OH238836   6.308   0.313   3.809  0.5643 -0.2948 -0.6696
 5782TIP3    H138837   6.343   0.391   3.765 -0.2036  0.2340 -0.3627
 5782TIP3    H238838   6.215   0.332   3.822  0.4423 -1.1194 -0.2756
 5783TIP3   OH238839   3.279   0.917   1.306 -0.1393 -0.4785  0.5187
 5783TIP3    H138840   3.204   0.978   1.307  0.4887  0.3117  1.0671
 5783TIP3    H238841   3.329   0.941   1.384  1.5348  0.0701 -0.6845
 5784TIP3   OH238842   3.842   6.152  11.303  0.4639 -0.2086 -0.1086
 5784TIP3    H138843   3.798   6.235  11.285  1.4871  0.0704 -1.4981
 5784TIP3    H238844   3.924   6.178  11.346  0.7095 -0.5182 -0.3934
 5785TIP3   OH238845   6.602   3.887  10.811  0.1860  0.3458 -0.0364
 5785TIP3    H138846   6.672   3.849  10.759  0.0933  0.2622 -0.1010
 5785TIP3    H238847   6.522   3.858  10.768  0.0229 -2.1139  1.7363
 5786TIP3   OH238848   0.940   6.237   2.453  0.3953 -0.1394 -0.6723
 5786TIP3    H138849   0.928   6.301   2.383  1.2333 -0.6119 -1.2787
 5786TIP3    H238850   1.034   6.220   2.453  0.4612  0.1426  0.8521
 5787TIP3   OH238851   5.658   4.987  12.244  0.4130 -0.1050  0.2260
 5787TIP3    H138852   5.646   4.893  12.260  1.9289 -0.1460  1.3169
 5787TIP3    H238853   5.689   4.993  12.154 -0.5541 -0.5575 -0.1529
 5788TIP3   OH238854   0.484   1.036  14.424 -0.3753 -0.4915 -0.4918
 5788TIP3    H138855   0.394   1.023  14.394 -1.2687  0.3448  1.6298
 5788TIP3    H238856   0.481   1.117  14.474  1.4403 -0.7746  0.1522
 5789TIP3   OH238857   1.246   0.958  12.373 -0.2739  0.2358  0.0256
 5789TIP3    H138858   1.265   1.049  12.396  0.2257  0.1077  0.1158
 5789TIP3    H238859   1.164   0.939  12.419  0.1173  0.3405  0.7788
 5790TIP3   OH238860   6.428   5.324   1.443  0.2051 -0.1651  0.5340
 5790TIP3    H138861   6.357   5.386   1.459 -0.0851 -0.2926 -0.2339
 5790TIP3    H238862   6.397   5.241   1.479  0.8144  0.2247  2.0636
 5791TIP3   OH238863   6.232   6.225  14.655 -0.2695 -0.4334 -0.5539
 5791TIP3    H138864   6.138   6.237  14.668 -0.1963  0.0152 -0.4328
 5791TIP3    H238865   6.244   6.230  14.560 -0.2816  0.1523 -0.5257
 5792TIP3   OH238866   2.615   4.676  13.846  0.0138 -0.0494  0.4820
 5792TIP3    H138867   2.674   4.751  13.859  0.5166 -0.2476 -0.5666
 5792TIP3    H238868   2.661   4.620  13.785 -1.1025 -0.4001 -0.0586
 5793TIP3   OH238869   5.171   2.559  15.629  0.5736 -0.4319 -0.4019
 5793TIP3    H138870   5.256   2.585  15.595 -0.7402  1.7921 -2.3273
 5793TIP3    H238871   5.130   2.641  15.656 -1.3964 -1.2728 -0.6706
 5794TIP3   OH238872   1.129   4.350   1.457  0.1345  0.2257  0.5103
 5794TIP3    H138873   1.206   4.393   1.495  1.0889 -1.0767  0.0993
 5794TIP3    H238874   1.140   4.257   1.477 -0.7129 -0.1384 -0.6161
 5795TIP3   OH238875   6.103   2.053   2.943 -0.3236 -0.3297  0.7107
 5795TIP3    H138876   6.013   2.067   2.914 -0.4242 -1.4798  0.3929
 5795TIP3    H238877   6.102   2.071   3.036 -0.6274  0.7295  0.5148
 5796TIP3   OH238878   1.808   0.222  12.292  0.2181  0.0255  0.2504
 5796TIP3    H138879   1.747   0.228  12.219  0.0375 -0.0264  0.3971
 5796TIP3    H238880   1.855   0.141  12.277 -0.5483 -0.5228  0.7553
 5797TIP3   OH238881   3.091   3.365  13.233  0.0062 -0.3872  0.2484
 5797TIP3    H138882   3.008   3.341  13.193  0.3160 -1.1300  0.0285
 5797TIP3    H238883   3.125   3.435  13.178 -1.1208  0.9301  1.1566
 5798TIP3   OH238884   2.738   3.767   4.151  0.0236 -0.9732  0.1791
 5798TIP3    H138885   2.708   3.809   4.070  1.7165  0.4118  0.2147
 5798TIP3    H238886   2.735   3.673   4.132 -0.2090 -0.7037 -1.2513
 5799TIP3   OH238887   6.331   3.238   6.541  0.4646  0.0472  0.0635
 5799TIP3    H138888   6.339   3.182   6.619 -3.8325  0.5273  1.1198
 5799TIP3    H238889   6.326   3.327   6.576 -0.2649  0.3829 -0.8656
 5800TIP3   OH238890   2.517   0.619  12.806  0.3113 -0.1364  0.4972
 5800TIP3    H138891   2.442   0.656  12.853  0.8875  0.9089  0.6201
 5800TIP3    H238892   2.561   0.694  12.766 -0.3925 -1.0196 -2.1358
 5801TIP3   OH238893   2.995   1.678   4.616  0.3045  0.7185  1.1806
 5801TIP3    H138894   3.005   1.699   4.709  0.1164  1.7360  0.9868
 5801TIP3    H238895   2.918   1.728   4.588 -0.0952 -0.1717  0.6469
 5802TIP3   OH238896   2.822   4.867  16.419  0.7080 -0.2659 -0.1012
 5802TIP3    H138897   2.821   4.835  16.329 -0.0353  0.0595 -0.2122
 5802TIP3    H238898   2.843   4.790  16.472 -1.9909 -1.2155 -0.2681
 5803TIP3   OH238899   6.488   4.518   1.037  0.2973 -0.4147  0.9926
 5803TIP3    H138900   6.546   4.448   1.068 -1.3335 -2.4098 -0.2273
 5803TIP3    H238901   6.402   4.495   1.072 -0.4149  0.5932 -0.0179
 5804TIP3   OH238902   0.074   0.587  12.002 -0.4696 -0.6218  0.1849
 5804TIP3    H138903   0.136   0.633  12.059 -1.8287  0.0697  1.1461
 5804TIP3    H238904   0.100   0.613  11.913 -0.1553  0.6555  0.6313
 5805TIP3   OH238905   1.419   1.634  14.754  0.2523 -0.0564  0.3664
 5805TIP3    H138906   1.405   1.647  14.848 -0.2978 -1.6942  0.5487
 5805TIP3    H238907   1.415   1.539  14.742 -0.8719  0.1747 -1.5025
 5806TIP3   OH238908   1.340   0.278   2.363 -0.1675 -0.5598  0.4274
 5806TIP3    H138909   1.363   0.212   2.428 -4.2638  0.4506  3.2607
 5806TIP3    H238910   1.403   0.349   2.377  0.3821 -1.2778  1.7245
 5807TIP3   OH238911   1.509   1.420  12.840  0.1048 -0.5150 -0.3305
 5807TIP3    H138912   1.508   1.490  12.775 -0.0478 -2.2872 -2.3279
 5807TIP3    H238913   1.440   1.444  12.902 -0.1795  0.8931 -1.1507
 5808TIP3   OH238914   1.879   5.691  15.293 -0.0375  0.2515 -0.0444
 5808TIP3    H138915   1.917   5.770  15.331 -1.7014 -0.4083  3.3838
 5808TIP3    H238916   1.855   5.637  15.368 -1.8158 -2.1566 -2.1508
 5809TIP3   OH238917   6.741   6.246   5.527 -0.1175  0.6407  0.7014
 5809TIP3    H138918   6.699   6.254   5.612 -1.5416 -0.0658  0.0917
 5809TIP3    H238919   6.699   6.312   5.472  0.1893  0.5266  0.3175
 5810TIP3   OH238920   2.738   6.420  12.935 -0.0624 -0.1482 -0.1311
 5810TIP3    H138921   2.811   6.386  12.883  0.3271 -1.5609  1.2681
 5810TIP3    H238922   2.723   6.354  13.002 -2.4581  0.2312 -0.1892
 5811TIP3   OH238923   1.914   5.338   6.023  0.0838 -0.4934 -0.2255
 5811TIP3    H138924   1.870   5.295   6.096 -0.6881  0.3858 -0.1579
 5811TIP3    H238925   1.954   5.416   6.061 -1.7743  0.8942 -1.0216
 5812TIP3   OH238926   4.917   3.146   0.583  0.4815 -0.3239  0.1796
 5812TIP3    H138927   4.831   3.147   0.627  0.0157  2.1642 -0.6124
 5812TIP3    H238928   4.921   3.060   0.541 -1.3275 -0.7820  0.8238
 5813TIP3   OH238929   6.336   6.221  16.837 -0.9128  0.2782 -0.4310
 5813TIP3    H138930   6.409   6.267  16.879  1.8435 -2.3124 -2.0145
 5813TIP3    H238931   6.318   6.147  16.895 -1.5277  0.2555 -0.6457
 5814TIP3   OH238932   0.863   6.209  11.472 -1.0108  0.6510  0.1526
 5814TIP3    H138933   0.895   6.134  11.523  1.1550  0.4464 -1.3954
 5814TIP3    H238934   0.784   6.176  11.430 -0.6071 -0.4644  0.2288
 5815TIP3   OH238935   3.274   6.814   2.339 -0.4870 -0.8829  0.0223
 5815TIP3    H138936   3.282   6.780   2.428 -0.6309 -1.3780 -0.1503
 5815TIP3    H238937   3.181   6.804   2.318 -0.5349 -0.3615 -0.0263
 5816TIP3   OH238938   4.755   0.317  10.621 -0.1753  0.5180 -0.0909
 5816TIP3    H138939   4.759   0.265  10.540  0.8926  0.7514 -0.2030
 5816TIP3    H238940   4.823   0.279  10.677 -0.6595  0.5969  0.5716
 5817TIP3   OH238941   2.462   3.845   3.083 -0.1109  0.9288  0.0763
 5817TIP3    H138942   2.540   3.866   3.134  0.4238  0.0093 -0.3325
 5817TIP3    H238943   2.400   3.811   3.148 -0.0667  1.3923  0.3628
 5818TIP3   OH238944   0.678   5.932   4.732  0.4572  0.9807 -0.3641
 5818TIP3    H138945   0.728   6.000   4.777  1.4788 -0.2509  0.3868
 5818TIP3    H238946   0.737   5.857   4.726  0.4223  1.0376 -3.7898
 5819TIP3   OH238947   6.139   4.542  15.298  0.2455  0.5996  0.4901
 5819TIP3    H138948   6.211   4.545  15.236  0.5985  1.0589  0.9209
 5819TIP3    H238949   6.062   4.525  15.244  0.9723 -2.5652  0.2705
 5820TIP3   OH238950   5.102   4.137  15.953 -0.0376 -0.1755  0.4127
 5820TIP3    H138951   5.156   4.095  16.019 -0.0225 -1.0700 -0.1565
 5820TIP3    H238952   5.108   4.231  15.973  1.3747 -0.2849  0.6182
 5821TIP3   OH238953   3.236   1.066  15.959  0.2796  0.8788  0.3285
 5821TIP3    H138954   3.258   1.105  16.044  0.0494 -2.2739  1.9983
 5821TIP3    H238955   3.152   1.022  15.973  0.4496 -0.0947 -1.3821
 5822TIP3   OH238956   3.489   4.219   5.876 -0.0645 -0.1647  0.3360
 5822TIP3    H138957   3.518   4.198   5.788  1.2229  0.0937  0.6846
 5822TIP3    H238958   3.433   4.296   5.865 -2.7194 -2.0645 -0.6269
 5823TIP3   OH238959   5.484   2.247  16.055  0.1401 -0.1771 -0.9705
 5823TIP3    H138960   5.561   2.304  16.046 -0.1108  0.0611 -1.7130
 5823TIP3    H238961   5.507   2.168  16.006 -0.4991  0.3436 -2.1590
 5824TIP3   OH238962   6.275   3.615  15.870 -0.1272  0.4038 -0.3728
 5824TIP3    H138963   6.322   3.616  15.954 -2.9918  1.0692  1.3690
 5824TIP3    H238964   6.261   3.522  15.852 -0.1434  0.2632  0.3222
 5825TIP3   OH238965   2.321   0.756  16.683 -0.3593 -0.2939  0.1809
 5825TIP3    H138966   2.272   0.834  16.658 -0.9287 -0.4876  0.6691
 5825TIP3    H238967   2.274   0.684  16.642  0.6789 -0.3302 -1.0269
 5826TIP3   OH238968   4.416   5.907   1.014 -0.1239 -0.2403 -0.2724
 5826TIP3    H138969   4.341   5.958   1.043 -0.4486 -0.1811 -1.1790
 5826TIP3    H238970   4.435   5.940   0.926  0.7371 -0.5073 -0.2009
 5827TIP3   OH238971   2.636   1.195  17.032 -0.0745  0.2690  0.2180
 5827TIP3    H138972   2.639   1.100  17.023 -0.4768  0.3564 -1.0360
 5827TIP3    H238973   2.555   1.212  17.079  1.1566 -0.1015  2.6767
 5828TIP3   OH238974   2.741   3.197  16.661 -0.0254 -0.0392 -0.2054
 5828TIP3    H138975   2.792   3.264  16.616 -0.1446  1.0787  1.2534
 5828TIP3    H238976   2.767   3.205  16.753 -0.9685 -1.1675  0.1856
 5829TIP3   OH238977   3.261   1.650  13.132  0.4381 -0.3216 -0.0017
 5829TIP3    H138978   3.290   1.724  13.079  2.6656  0.2353  1.8448
 5829TIP3    H238979   3.334   1.588  13.127  0.2825 -0.6678  1.5950
 5830TIP3   OH238980   1.933   3.028   0.919  0.5613  0.2178  1.1119
 5830TIP3    H138981   1.861   2.978   0.883  0.5863  1.0992 -0.2393
 5830TIP3    H238982   1.935   3.005   1.012 -1.1596 -0.1600  1.0789
 5831TIP3   OH238983   1.406   5.252   5.732  0.3233  0.2537  0.4309
 5831TIP3    H138984   1.335   5.283   5.676 -0.9686 -1.3064  1.1145
 5831TIP3    H238985   1.367   5.252   5.820  1.7154  0.8895  1.0730
 5832TIP3   OH238986   4.049   6.177   1.662 -0.0758  0.1254  0.2463
 5832TIP3    H138987   4.111   6.208   1.727 -0.1474 -1.3334  1.0683
 5832TIP3    H238988   4.097   6.179   1.579  0.4798  0.6914  0.5795
 5833TIP3   OH238989   5.569   0.519   5.633  0.5510  0.0114 -0.0630
 5833TIP3    H138990   5.475   0.539   5.627  0.2612 -1.3648 -0.5006
 5833TIP3    H238991   5.596   0.555   5.717 -0.3793  0.4061  0.0798
 5834TIP3   OH238992   2.895   1.218   2.181 -0.2735  0.2957 -0.3586
 5834TIP3    H138993   2.880   1.304   2.143 -0.1790  0.6236  0.3346
 5834TIP3    H238994   2.807   1.185   2.200 -0.2763  0.6042  0.1717
 5835TIP3   OH238995   3.591   0.407   2.440  0.4703  0.2042 -0.7312
 5835TIP3    H138996   3.523   0.341   2.432 -0.4272  1.0030  0.0349
 5835TIP3    H238997   3.570   0.472   2.372 -0.8832  1.5667  0.8845
 5836TIP3   OH238998   2.876   4.101   4.193 -0.1647 -0.2767  0.2303
 5836TIP3    H138999   2.812   4.121   4.261  0.4447  0.5152  0.5808
 5836TIP3    H239000   2.854   4.160   4.121 -1.0903 -1.4181 -0.4782
 5837TIP3   OH239001   3.273   0.878  16.760 -0.0216  0.1519 -0.2404
 5837TIP3    H139002   3.344   0.907  16.817 -0.6714  0.5028  0.4046
 5837TIP3    H239003   3.251   0.791  16.793  0.4599 -0.1862 -0.7860
 5838TIP3   OH239004   5.897   6.491  16.489 -0.2737 -0.1279  0.5527
 5838TIP3    H139005   5.943   6.407  16.486 -0.9475 -0.4890  0.0250
 5838TIP3    H239006   5.804   6.468  16.481 -0.4592  0.6719  0.3201
 5839TIP3   OH239007   0.960   0.228   1.966 -0.2737  0.0701 -0.0573
 5839TIP3    H139008   0.927   0.276   2.043 -1.4645 -2.0309  0.8080
 5839TIP3    H239009   1.016   0.160   2.002  0.0170 -0.2794 -1.1297
 5840TIP3   OH239010   1.334   0.407  11.170 -0.5811 -0.1763  0.2180
 5840TIP3    H139011   1.394   0.427  11.098  0.9759 -0.2068  1.4241
 5840TIP3    H239012   1.306   0.494  11.202  0.4990 -0.0616  0.9341
 5841TIP3   OH239013   5.792   1.878   0.081 -0.0961 -0.5276 -0.1568
 5841TIP3    H139014   5.845   1.809   0.122 -0.8444  0.1123  2.0211
 5841TIP3    H239015   5.702   1.858   0.106 -0.4983  0.3662 -0.8356
 5842TIP3   OH239016   0.929   6.461  11.474 -0.0380  0.3086 -0.1064
 5842TIP3    H139017   0.849   6.509  11.491  0.6902  1.3717  0.4282
 5842TIP3    H239018   0.906   6.369  11.489 -1.0494  0.6335  0.4168
 5843TIP3   OH239019   5.279   6.286  13.937  0.3478  0.3066 -0.4400
 5843TIP3    H139020   5.326   6.359  13.896  0.0946  0.0189 -1.2667
 5843TIP3    H239021   5.196   6.283  13.890 -0.8841  1.3474  1.5552
 5844TIP3   OH239022   1.945   1.290   3.562  0.4318 -0.5508 -0.3787
 5844TIP3    H139023   2.023   1.333   3.597  0.4550  0.4123 -1.5419
 5844TIP3    H239024   1.887   1.362   3.537 -0.8491 -1.2524  0.4776
 5845TIP3   OH239025   4.213   3.868   6.020 -0.1902  0.1145 -0.8623
 5845TIP3    H139026   4.220   3.775   6.001 -1.0784 -0.0185 -0.5818
 5845TIP3    H239027   4.143   3.874   6.085  1.3692  0.7490  0.8584
 5846TIP3   OH239028   4.891   0.125  14.300  1.1279 -0.5428 -0.1690
 5846TIP3    H139029   4.910   0.213  14.333 -1.1453  1.0255 -2.5555
 5846TIP3    H239030   4.805   0.104  14.335  0.1181 -0.2228 -2.2522
 5847TIP3   OH239031   1.226   4.394   4.038 -0.5188 -0.4875 -0.4686
 5847TIP3    H139032   1.280   4.385   4.117 -0.0152 -0.3857 -0.7945
 5847TIP3    H239033   1.226   4.488   4.019 -0.6838 -0.5046 -0.5564
 5848TIP3   OH239034   6.485   5.562  12.738 -0.2098  0.5439  0.0853
 5848TIP3    H139035   6.518   5.541  12.651  0.0779  1.9570 -0.1682
 5848TIP3    H239036   6.479   5.657  12.739 -2.7656  0.4347  0.6905
 5849TIP3   OH239037   5.102   2.985   2.544 -0.7330 -0.1304  0.5141
 5849TIP3    H139038   5.047   3.036   2.484  0.0494 -0.2663 -0.3356
 5849TIP3    H239039   5.063   2.897   2.544 -0.8198 -0.0908  0.3309
 5850TIP3   OH239040   3.851   0.515  14.105 -0.4005 -0.0506  0.2838
 5850TIP3    H139041   3.945   0.515  14.089 -0.0775  1.3219  1.8653
 5850TIP3    H239042   3.833   0.429  14.144  0.6241  0.4145  1.8967
 5851TIP3   OH239043   1.928   3.259  12.960  0.3326  0.0609 -0.6497
 5851TIP3    H139044   1.982   3.196  12.912  0.9771 -0.4737  0.7243
 5851TIP3    H239045   1.939   3.234  13.052 -3.2818 -0.9257 -0.3345
 5852TIP3   OH239046   4.709   6.589   6.132  0.1897  0.4170 -0.1246
 5852TIP3    H139047   4.658   6.669   6.118  0.4658  0.4082 -1.2987
 5852TIP3    H239048   4.800   6.616   6.121  0.4185  0.2993  1.3102
 5853TIP3   OH239049   0.112   3.435  16.498  0.1638  0.1833 -0.3375
 5853TIP3    H139050   0.145   3.413  16.585 -1.2979  1.7164  0.6549
 5853TIP3    H239051   0.166   3.383  16.438  2.0373  0.0133  1.3876
 5854TIP3   OH239052   0.486   5.319   2.038 -0.3162  0.4916  0.0769
 5854TIP3    H139053   0.485   5.276   2.124 -0.5743  1.5678  0.6244
 5854TIP3    H239054   0.436   5.260   1.982 -2.5553  1.0751  1.3341
 5855TIP3   OH239055   5.700   3.970   3.364  0.4153  0.3467 -0.9333
 5855TIP3    H139056   5.789   4.005   3.373  0.9992 -1.0317 -1.0252
 5855TIP3    H239057   5.711   3.875   3.369 -0.8587  0.0715 -2.5015
 5856TIP3   OH239058   4.935   3.720   5.354  0.3962 -0.0570 -0.0873
 5856TIP3    H139059   4.891   3.760   5.430  0.6257  0.3753 -0.1777
 5856TIP3    H239060   5.027   3.719   5.378  0.5429  0.6141 -0.5878
 5857TIP3   OH239061   1.868   3.463  12.468 -0.0634 -0.4583 -0.4058
 5857TIP3    H139062   1.955   3.492  12.496 -0.3906  2.1187 -1.8373
 5857TIP3    H239063   1.862   3.490  12.377 -3.0056  1.0813  0.1331
 5858TIP3   OH239064   1.145   2.566  10.686  0.1569 -0.3649  0.2773
 5858TIP3    H139065   1.143   2.627  10.759 -0.0979  0.6856 -0.5793
 5858TIP3    H239066   1.195   2.611  10.618  0.5448 -1.3935 -0.1435
 5859TIP3   OH239067   3.834   4.581   2.159  0.3675 -0.6155 -0.6124
 5859TIP3    H139068   3.896   4.654   2.153 -1.1978  1.0072  1.6415
 5859TIP3    H239069   3.760   4.609   2.106  0.3285 -1.2285 -0.8868
 5860TIP3   OH239070   5.231   5.795   3.803 -0.7449  0.6975 -0.0653
 5860TIP3    H139071   5.266   5.812   3.715  0.5881  2.3246  0.7214
 5860TIP3    H239072   5.144   5.835   3.802 -1.7981 -1.4639 -1.3627
 5861TIP3   OH239073   2.029   4.806  15.139  0.0514  0.1161 -0.4235
 5861TIP3    H139074   1.967   4.877  15.124  0.4658  1.2822  2.7711
 5861TIP3    H239075   2.108   4.832  15.092 -0.2218  1.1353 -0.3286
 5862TIP3   OH239076   2.880   3.979  11.320 -0.2013 -0.0515 -0.1940
 5862TIP3    H139077   2.847   3.916  11.385 -0.1212  0.1174  0.0087
 5862TIP3    H239078   2.819   4.053  11.325  0.4169  0.4172  0.4353
 5863TIP3   OH239079   0.481   2.040  11.080 -0.3162 -0.0122 -0.8037
 5863TIP3    H139080   0.557   1.983  11.071 -1.8323 -2.3463  0.1392
 5863TIP3    H239081   0.412   1.996  11.029 -1.3656  1.3333 -0.5987
 5864TIP3   OH239082   1.972   5.402   5.065  0.5044  0.4215  0.1017
 5864TIP3    H139083   2.034   5.367   5.129  0.0693  1.6315  1.2220
 5864TIP3    H239084   2.020   5.398   4.982 -0.1969 -4.6914 -0.3886
 5865TIP3   OH239085   3.681   4.667   0.775 -0.2493  0.3434  0.2229
 5865TIP3    H139086   3.633   4.585   0.785 -1.0532  0.9614  1.6515
 5865TIP3    H239087   3.714   4.664   0.685 -1.5572 -0.8466 -0.2570
 5866TIP3   OH239088   5.500   4.229   0.172 -0.1287  0.2297 -0.6961
 5866TIP3    H139089   5.469   4.171   0.241  0.5608  0.8327  0.1409
 5866TIP3    H239090   5.457   4.197   0.093 -1.3299 -0.1706  0.0852
 5867TIP3   OH239091   5.700   3.507  13.228 -0.6784  0.0115 -0.5013
 5867TIP3    H139092   5.617   3.476  13.265 -0.7952  1.1065  0.2127
 5867TIP3    H239093   5.710   3.459  13.146 -1.1092 -1.4793  0.2754
 5868TIP3   OH239094   3.387   4.331  15.441  0.4072  0.0168 -0.2454
 5868TIP3    H139095   3.441   4.252  15.444  1.8542  0.9517  2.4550
 5868TIP3    H239096   3.336   4.327  15.522 -1.0398  0.8822 -1.0813
 5869TIP3   OH239097   6.350   5.105  16.096 -0.7852  0.0350 -0.0878
 5869TIP3    H139098   6.290   5.159  16.148  0.8795  1.0618  0.8302
 5869TIP3    H239099   6.384   5.040  16.158  0.0990  0.3363 -0.2549
 5870TIP3   OH239100   2.598   3.378   0.212  0.5963  0.2977 -0.3326
 5870TIP3    H139101   2.603   3.292   0.253  0.1058  0.9658  1.1625
 5870TIP3    H239102   2.505   3.391   0.193  0.6505  0.5654 -0.4251
 5871TIP3   OH239103   4.161   1.570   1.057 -0.5885 -0.1900  0.4601
 5871TIP3    H139104   4.078   1.538   1.094 -0.7048 -0.9411 -0.4362
 5871TIP3    H239105   4.175   1.518   0.979  0.2896  0.5472  0.1038
 5872TIP3   OH239106   1.072   4.078   3.307 -0.0507  0.3055  0.2804
 5872TIP3    H139107   1.085   4.014   3.378 -1.2189  1.2711  1.4122
 5872TIP3    H239108   1.046   4.158   3.352 -1.5223  0.7576 -1.2756
 5873TIP3   OH239109   1.775   0.151   6.134 -0.0347 -0.3914  0.7461
 5873TIP3    H139110   1.870   0.156   6.143 -0.0777 -0.5343  1.3006
 5873TIP3    H239111   1.742   0.233   6.172 -0.0552  0.3589 -0.8193
 5874TIP3   OH239112   3.944   5.838  17.195 -0.3619  0.1666 -0.4583
 5874TIP3    H139113   3.858   5.880  17.195  0.2889  1.5910  0.7434
 5874TIP3    H239114   3.991   5.881  17.266  0.7088 -1.9239  0.1679
 5875TIP3   OH239115   3.743   5.019  15.148  0.0105  0.1848 -0.3533
 5875TIP3    H139116   3.789   4.942  15.181  0.2695  0.5584  0.1834
 5875TIP3    H239117   3.813   5.079  15.121 -0.1919  0.1136 -1.0521
 5876TIP3   OH239118   2.430   6.576   1.255  0.0762  0.1933 -0.4093
 5876TIP3    H139119   2.395   6.664   1.241  0.8004  0.5453 -0.1036
 5876TIP3    H239120   2.524   6.586   1.240  0.4951 -0.0307  1.7009
 5877TIP3   OH239121   2.287   5.299  15.774  0.2693 -0.6885  0.4338
 5877TIP3    H139122   2.263   5.385  15.809  1.2757 -0.4317  0.5296
 5877TIP3    H239123   2.217   5.278  15.713  0.8780  1.0272 -0.9414
 5878TIP3   OH239124   3.066   1.813  16.031  1.0985 -0.0026 -0.7116
 5878TIP3    H139125   3.135   1.761  16.071 -0.1075  0.2006  1.8385
 5878TIP3    H239126   2.985   1.769  16.057  0.1390  1.8831 -0.3074
 5879TIP3   OH239127   1.182   6.529  11.524  0.1767  0.2158 -0.3415
 5879TIP3    H139128   1.097   6.487  11.506  1.2559 -1.7003 -1.2579
 5879TIP3    H239129   1.219   6.476  11.595  1.8497 -0.8901 -1.9546
 5880TIP3   OH239130   5.252   2.254  12.260  0.3910 -0.6291  0.0206
 5880TIP3    H139131   5.252   2.342  12.299 -4.2973 -0.1885 -0.3308
 5880TIP3    H239132   5.249   2.195  12.335  2.5599 -0.5323  0.2455
 5881TIP3   OH239133   6.320   5.732   2.243  0.0605 -0.1757 -0.3162
 5881TIP3    H139134   6.396   5.674   2.240  0.8971  0.8721  0.0318
 5881TIP3    H239135   6.330   5.780   2.326 -0.8939  0.0964 -0.3492
 5882TIP3   OH239136   1.505   0.843  14.883  0.8038 -0.6675  0.0998
 5882TIP3    H139137   1.528   0.752  14.903 -0.8089 -1.3841 -0.9952
 5882TIP3    H239138   1.588   0.884  14.859  1.4647 -2.0683 -0.1386
 5883TIP3   OH239139   5.538   4.144   4.353 -0.5101 -0.1070  0.0322
 5883TIP3    H139140   5.524   4.091   4.274  0.2715  0.1104 -0.2609
 5883TIP3    H239141   5.517   4.233   4.326 -0.9876 -0.1388  0.2881
 5884TIP3   OH239142   0.781   6.589   4.904  0.2538 -0.0502  0.6982
 5884TIP3    H139143   0.738   6.563   4.986 -0.6626 -0.9140 -0.0364
 5884TIP3    H239144   0.812   6.508   4.866  0.7737  0.3603  0.2348
 5885TIP3   OH239145   4.429   0.045   2.725 -0.0859 -0.0827  0.0354
 5885TIP3    H139146   4.444   0.082   2.638  0.1894  3.0591  1.2567
 5885TIP3    H239147   4.361   0.101   2.763  0.0717 -1.1240  1.9620
 5886TIP3   OH239148   1.390   3.437   0.686  0.4856 -0.0529 -0.4186
 5886TIP3    H139149   1.304   3.418   0.649  0.2614  0.7402 -0.3252
 5886TIP3    H239150   1.372   3.494   0.761  0.9223 -1.7215  1.0222
 5887TIP3   OH239151   0.736   3.786  11.320 -0.0330 -0.0127  0.5934
 5887TIP3    H139152   0.811   3.794  11.378  0.1800  0.6557  0.2369
 5887TIP3    H239153   0.700   3.875  11.314  0.9745  0.3211 -1.6237
 5888TIP3   OH239154   4.930   1.443   6.379 -0.0016 -0.0506  0.6128
 5888TIP3    H139155   4.887   1.426   6.463 -0.1020 -0.9576  0.3967
 5888TIP3    H239156   4.863   1.488   6.327 -0.9080 -1.8656  0.1200
 5889TIP3   OH239157   2.970   1.586  13.250  0.1073  0.2687  0.1673
 5889TIP3    H139158   2.947   1.675  13.277  0.1751  0.7547 -1.2455
 5889TIP3    H239159   3.065   1.589  13.238 -0.1120  0.6824 -1.9712
 5890TIP3   OH239160   6.190   2.356  16.308 -0.0880 -0.0730 -0.0382
 5890TIP3    H139161   6.155   2.401  16.385  0.8673 -0.5750  0.7224
 5890TIP3    H239162   6.256   2.297  16.344  2.0480  1.3176 -1.4087
 5891TIP3   OH239163   1.034   5.333  10.500 -0.7180  0.2504  0.0970
 5891TIP3    H139164   1.050   5.253  10.449  0.8900  0.4454  0.2771
 5891TIP3    H239165   0.963   5.377  10.452  0.2311  0.0545 -1.5733
 5892TIP3   OH239166   0.833   2.695   4.661  0.1618 -0.2173  0.2598
 5892TIP3    H139167   0.794   2.770   4.705  0.0407 -0.7658  1.0970
 5892TIP3    H239168   0.878   2.733   4.586 -0.4102  0.6247  0.3275
 5893TIP3   OH239169   4.139   1.062  14.144  0.3371  0.0747  0.2982
 5893TIP3    H139170   4.058   1.104  14.115  0.5647  0.8926  0.8023
 5893TIP3    H239171   4.138   1.071  14.239  1.4534  0.9635  0.2614
 5894TIP3   OH239172   4.367   6.097   2.860  0.0042 -0.0656 -0.0191
 5894TIP3    H139173   4.424   6.035   2.905  1.2227  0.0001 -1.4198
 5894TIP3    H239174   4.426   6.152   2.809 -1.2987  0.2093 -1.2955
 5895TIP3   OH239175   1.979   5.792   0.573 -0.2081  0.3352  0.0507
 5895TIP3    H139176   1.940   5.862   0.520  0.9513  1.6022  0.7742
 5895TIP3    H239177   1.962   5.818   0.664  1.0992  0.2363  0.3506
 5896TIP3   OH239178   3.909   4.762  12.553  0.1143  0.4743 -0.1877
 5896TIP3    H139179   3.875   4.689  12.502  0.0146  2.0663 -2.5601
 5896TIP3    H239180   3.832   4.801  12.595 -0.2594  0.9205 -1.2652
 5897TIP3   OH239181   2.908   0.289  15.504 -0.3681  0.1399  0.1479
 5897TIP3    H139182   2.884   0.208  15.549  0.6662  0.1565  0.7541
 5897TIP3    H239183   2.989   0.268  15.457 -0.8475  0.4343 -0.8406
 5898TIP3   OH239184   1.209   2.326  15.711 -0.2240  0.1325 -0.0837
 5898TIP3    H139185   1.295   2.352  15.743 -0.4749  1.1305 -0.1843
 5898TIP3    H239186   1.176   2.264  15.776  0.7271 -0.5598 -0.2509
 5899TIP3   OH239187   1.017   4.819  15.101  0.1898 -0.5214 -0.4219
 5899TIP3    H139188   0.946   4.839  15.162 -1.1613 -0.7909 -1.8220
 5899TIP3    H239189   1.038   4.902  15.059 -0.8211 -0.7779 -1.5124
 5900TIP3   OH239190   4.522   6.084   5.924 -0.8181 -0.0072 -0.2332
 5900TIP3    H139191   4.582   6.120   5.990  0.2452 -0.6042 -0.8370
 5900TIP3    H239192   4.436   6.087   5.965 -0.3986  1.0252  0.6093
 5901TIP3   OH239193   4.463   5.892   0.719 -0.0029  0.6620  0.0847
 5901TIP3    H139194   4.423   5.809   0.693  0.9911 -0.5058  2.0469
 5901TIP3    H239195   4.500   5.927   0.638  0.4748 -1.3454 -0.6233
 5902TIP3   OH239196   1.682   5.228   1.747  0.3562 -0.1060 -0.4670
 5902TIP3    H139197   1.666   5.134   1.733  0.2228 -0.0242 -0.8854
 5902TIP3    H239198   1.684   5.265   1.659 -2.1978  0.7187 -0.2717
 5903TIP3   OH239199   2.627   3.289  15.278 -0.1134  0.0021  0.4084
 5903TIP3    H139200   2.622   3.196  15.255  1.1066  0.0597 -0.1973
 5903TIP3    H239201   2.551   3.329  15.237 -1.1508 -0.8677  1.4372
 5904TIP3   OH239202   3.318   5.479   3.199  0.2325  0.6206 -0.3690
 5904TIP3    H139203   3.260   5.423   3.251  1.0091  1.3050  1.3312
 5904TIP3    H239204   3.269   5.561   3.188  0.0222  0.4366 -0.8537
 5905TIP3   OH239205   4.681   6.114   3.104 -0.7216  0.0445 -0.4943
 5905TIP3    H139206   4.661   6.197   3.061 -0.7144 -0.5325 -1.6372
 5905TIP3    H239207   4.737   6.139   3.178 -3.3338  1.3999  1.1698
 5906TIP3   OH239208   5.865   5.267   6.528  0.1974 -0.0244 -0.2916
 5906TIP3    H139209   5.935   5.324   6.560  0.5630  0.6862 -2.2563
 5906TIP3    H239210   5.786   5.297   6.574  0.8999  0.0655  0.9096
 5907TIP3   OH239211   4.639   4.215   5.799 -0.3379 -0.1042  0.7559
 5907TIP3    H139212   4.558   4.167   5.780  0.1889 -0.5357 -0.4584
 5907TIP3    H239213   4.643   4.284   5.733  0.2408 -0.0325  0.8570
 5908TIP3   OH239214   1.613   4.185  13.731 -0.2958  0.2282 -0.1759
 5908TIP3    H139215   1.644   4.275  13.722 -1.9758  0.7497 -1.1224
 5908TIP3    H239216   1.576   4.181  13.819  0.0761  0.3447 -0.0081
 5909TIP3   OH239217   4.199   5.718  15.710 -0.0441  0.0813 -0.3199
 5909TIP3    H139218   4.251   5.797  15.725 -1.4471  1.3672 -1.9433
 5909TIP3    H239219   4.111   5.749  15.690 -1.0384 -1.9679  0.4985
 5910TIP3   OH239220   1.060   1.236  10.785 -0.4574 -0.7870  0.7203
 5910TIP3    H139221   1.053   1.297  10.712 -1.8506 -1.7472  0.0136
 5910TIP3    H239222   1.150   1.203  10.780 -0.5924 -0.9880 -0.6896
 5911TIP3   OH239223   6.366   2.330  12.591  0.9728 -0.5474 -0.0863
 5911TIP3    H139224   6.441   2.297  12.641  0.0336 -1.1588  0.9682
 5911TIP3    H239225   6.293   2.327  12.653  0.0278 -0.1634 -1.1494
 5912TIP3   OH239226   3.530   3.169   0.939  0.3916  0.1070  0.5308
 5912TIP3    H139227   3.525   3.095   0.878  0.0991  1.2642 -0.9048
 5912TIP3    H239228   3.443   3.175   0.978  0.6210 -0.7279  1.1954
 5913TIP3   OH239229   3.932   5.145  13.254  0.4598 -0.7415 -0.0479
 5913TIP3    H139230   3.987   5.097  13.191 -0.6459 -0.8165 -0.9810
 5913TIP3    H239231   3.992   5.206  13.297  0.9519  0.5606 -2.4187
 5914TIP3   OH239232   2.483   6.718   1.665  0.5237 -0.0397 -0.1771
 5914TIP3    H139233   2.443   6.794   1.707  0.8715  0.8013 -1.3255
 5914TIP3    H239234   2.410   6.659   1.648  0.2309  0.0765  0.6007
 5915TIP3   OH239235   3.987   2.822   5.351 -0.2865  0.3776  0.2388
 5915TIP3    H139236   4.076   2.857   5.342 -0.3507  0.4643 -0.0377
 5915TIP3    H239237   3.945   2.838   5.267 -0.0830 -1.0435 -0.1721
 5916TIP3   OH239238   1.309   6.804  12.439 -0.5159 -1.1539 -0.0192
 5916TIP3    H139239   1.232   6.861  12.437 -0.5991 -1.2760 -1.4683
 5916TIP3    H239240   1.275   6.719  12.465 -0.4748 -0.6982  1.6330
 5917TIP3   OH239241   1.259   6.075   4.216 -0.0693 -0.0804  0.6299
 5917TIP3    H139242   1.351   6.084   4.188  0.1914  0.0005  1.4800
 5917TIP3    H239243   1.243   5.981   4.215 -0.0696 -0.0763  0.1928
 5918TIP3   OH239244   3.550   2.000   0.309  0.4162  0.6818  0.2492
 5918TIP3    H139245   3.486   2.060   0.270  0.2638  2.6796  3.2227
 5918TIP3    H239246   3.630   2.051   0.315  0.1398  0.9801  3.3593
 5919TIP3   OH239247   2.909   5.162   2.579  0.3948  0.0741  0.2578
 5919TIP3    H139248   2.926   5.256   2.587  1.4579  0.2579 -2.7714
 5919TIP3    H239249   2.919   5.128   2.668  1.7318  2.5509  1.1534
 5920TIP3   OH239250   5.733   0.012  11.668  0.0710 -0.0925 -0.0061
 5920TIP3    H139251   5.776   0.030  11.585  1.9483 -1.5725  0.5560
 5920TIP3    H239252   5.653  -0.035  11.644  1.2564 -1.7248 -0.9849
 5921TIP3   OH239253   1.734   4.413   1.132  0.4299  0.3829  0.1314
 5921TIP3    H139254   1.774   4.404   1.046  2.1743  1.7346  0.7192
 5921TIP3    H239255   1.757   4.332   1.178  0.1872  0.0080 -0.3947
 5922TIP3   OH239256   4.664   6.660   4.874 -0.1981 -0.0029  0.2904
 5922TIP3    H139257   4.744   6.614   4.901  1.1906  2.6312  0.9444
 5922TIP3    H239258   4.695   6.727   4.812 -1.5354  2.4805  2.1515
 5923TIP3   OH239259   3.516   1.621   4.094  0.0727 -0.2830  0.2934
 5923TIP3    H139260   3.570   1.591   4.167 -0.5070 -1.2055  0.3604
 5923TIP3    H239261   3.483   1.541   4.054  1.1601  0.1688 -1.6016
 5924TIP3   OH239262   1.026   6.369   2.238 -0.0911 -0.4818 -0.3907
 5924TIP3    H139263   1.086   6.404   2.304 -1.0154 -2.3588  1.5705
 5924TIP3    H239264   1.078   6.366   2.158  1.7971 -0.2152  0.7653
 5925TIP3   OH239265   2.517   6.592  15.660 -0.9397  0.1927 -0.5945
 5925TIP3    H139266   2.540   6.625  15.573  2.8397 -2.3839 -0.8247
 5925TIP3    H239267   2.488   6.502  15.645 -1.9830  0.2713  0.7176
 5926TIP3   OH239268   0.013   4.007   3.774 -0.7976  0.3325 -0.0553
 5926TIP3    H139269  -0.026   3.939   3.720  1.5275 -0.3225 -1.0214
 5926TIP3    H239270   0.088   4.038   3.723 -0.3879  1.9278  1.4324
 5927TIP3   OH239271   4.188   2.854   1.568 -0.3335 -0.4479 -0.3882
 5927TIP3    H139272   4.111   2.866   1.512 -0.2541  0.8304 -0.2378
 5927TIP3    H239273   4.234   2.938   1.565  0.2274 -0.6967  0.7805
 5928TIP3   OH239274   6.377   2.641  14.059 -0.3084  0.2765  0.1384
 5928TIP3    H139275   6.296   2.691  14.052 -0.6845 -0.3225  0.1486
 5928TIP3    H239276   6.380   2.611  14.150 -1.0527 -1.2969 -0.3117
 5929TIP3   OH239277   0.773   6.133   1.599  0.7132 -0.1201  0.1222
 5929TIP3    H139278   0.837   6.202   1.580 -0.0016  0.8197  0.9918
 5929TIP3    H239279   0.822   6.051   1.589  1.7396  0.5324 -0.3472
 5930TIP3   OH239280   1.965   5.834   3.663 -0.2206 -0.4437 -0.3539
 5930TIP3    H139281   1.941   5.918   3.624  0.2916  1.5779  3.2591
 5930TIP3    H239282   2.058   5.823   3.643 -0.8213 -1.5379 -2.9467
 5931TIP3   OH239283   4.152   0.573  12.152  0.2672  0.5293 -0.0128
 5931TIP3    H139284   4.219   0.569  12.083  0.9548 -0.7888  0.7009
 5931TIP3    H239285   4.199   0.553  12.233 -0.9671 -0.3439  0.5160
 5932TIP3   OH239286   3.534   1.639   0.062  0.5077 -0.2729 -0.4137
 5932TIP3    H139287   3.475   1.682   0.123  0.9514  0.4194 -0.4612
 5932TIP3    H239288   3.594   1.589   0.119  1.7939  1.4571 -0.1495
 5933TIP3   OH239289   3.274   6.676   0.007  0.4386 -0.4068  0.9870
 5933TIP3    H139290   3.193   6.723  -0.010 -1.0158 -2.2789  2.3260
 5933TIP3    H239291   3.309   6.717   0.086  0.1485 -0.4138  1.1192
 5934TIP3   OH239292   3.288   3.296   5.310 -0.5329  0.2709 -0.7709
 5934TIP3    H139293   3.378   3.325   5.323 -0.9337  1.8419 -1.3191
 5934TIP3    H239294   3.259   3.269   5.398 -0.5406  2.8532  0.1030
 5935TIP3   OH239295   2.695   0.939   0.777  0.5608  0.4710  0.1399
 5935TIP3    H139296   2.706   0.861   0.833  0.1095 -1.0417 -1.7592
 5935TIP3    H239297   2.777   0.987   0.787  0.9916 -0.4128  1.1148
 5936TIP3   OH239298   6.722   0.973  13.598 -0.0193  0.2003 -0.0114
 5936TIP3    H139299   6.782   0.948  13.528  2.3067  3.0692  0.7752
 5936TIP3    H239300   6.769   0.951  13.679 -1.5560 -0.6457  0.7099
 5937TIP3   OH239301   4.760   1.384  16.533  0.0986  0.4250  0.1246
 5937TIP3    H139302   4.773   1.350  16.445  0.5828  1.0186 -0.0430
 5937TIP3    H239303   4.838   1.358  16.581  0.1075  0.6083  0.2112
 5938TIP3   OH239304   5.793   2.301   1.041  0.1358  0.3998  0.4809
 5938TIP3    H139305   5.843   2.252   0.976  0.6698  1.4358  0.0782
 5938TIP3    H239306   5.859   2.350   1.091 -0.3420  0.3781  1.1493
 5939TIP3   OH239307   3.312   3.498  13.645  0.1929 -0.1101 -0.0009
 5939TIP3    H139308   3.344   3.436  13.578 -0.5167 -0.1664 -0.2970
 5939TIP3    H239309   3.352   3.581  13.621 -1.3286  0.2505 -1.5040
 5940TIP3   OH239310   6.712   3.233  11.037  0.3560 -0.1074  0.1154
 5940TIP3    H139311   6.644   3.170  11.014 -1.3957  2.0712 -1.0573
 5940TIP3    H239312   6.750   3.258  10.953  1.8369 -0.4323  0.6677
 5941TIP3   OH239313   0.582   1.137  16.435 -0.7832 -0.0184  0.1437
 5941TIP3    H139314   0.609   1.144  16.527 -0.1255  1.9008 -0.1573
 5941TIP3    H239315   0.496   1.095  16.439 -0.1753 -1.2366  1.5109
 5942TIP3   OH239316   2.339   0.783  16.958  0.1091 -0.5798  0.1465
 5942TIP3    H139317   2.385   0.699  16.968  0.5156 -0.3344  0.3460
 5942TIP3    H239318   2.315   0.786  16.866 -1.7786 -1.8851  0.5402
 5943TIP3   OH239319   5.037   5.586   2.832  0.6606 -0.3968  0.4319
 5943TIP3    H139320   5.130   5.600   2.818  1.2677 -2.5104  1.7628
 5943TIP3    H239321   5.020   5.501   2.791 -0.7161  0.0181  0.1066
 5944TIP3   OH239322   0.989   5.622   0.121  0.0037 -0.7081 -0.4218
 5944TIP3    H139323   0.975   5.620   0.026 -0.5137 -0.0133 -0.3698
 5944TIP3    H239324   0.941   5.546   0.154  0.4063 -1.1037 -0.7396
 5945TIP3   OH239325   2.724   1.578   1.584  0.2249 -0.2158  0.0614
 5945TIP3    H139326   2.718   1.517   1.510  0.5718  1.0490 -1.0601
 5945TIP3    H239327   2.765   1.656   1.547 -0.9097  0.9980  1.2549
 5946TIP3   OH239328   0.077   6.653  15.789 -0.3150  0.1002  0.0653
 5946TIP3    H139329   0.092   6.745  15.811 -0.7721  0.3813 -0.7722
 5946TIP3    H239330  -0.006   6.631  15.831  0.0564 -0.0880  0.7107
 5947TIP3   OH239331   0.076   4.680  10.827  0.2143  0.2962  0.1924
 5947TIP3    H139332   0.072   4.585  10.811 -0.6745  0.3833 -0.1760
 5947TIP3    H239333   0.167   4.704  10.807  0.3580 -0.4219 -0.0554
 5948TIP3   OH239334   5.928   6.619   3.607 -0.2317 -0.1632 -0.4379
 5948TIP3    H139335   5.837   6.647   3.617 -0.9233 -1.0170 -3.3836
 5948TIP3    H239336   5.977   6.677   3.666 -2.3809  2.1550 -0.7284
 5949TIP3   OH239337   4.175   6.742  11.548 -0.6344 -0.1162 -0.4363
 5949TIP3    H139338   4.245   6.807  11.541 -0.9611  0.3156  0.1356
 5949TIP3    H239339   4.165   6.707  11.460  0.1054  0.0224 -0.5799
 5950TIP3   OH239340   3.268   6.758  16.662  0.3374 -0.5394 -0.2865
 5950TIP3    H139341   3.304   6.790  16.579  1.4141 -0.1035  0.3448
 5950TIP3    H239342   3.303   6.669  16.670  1.8666  0.1194  0.6530
 5951TIP3   OH239343   2.258   4.707   1.798 -0.2994  0.4458 -0.3017
 5951TIP3    H139344   2.234   4.673   1.712  1.1001 -0.0787 -0.5087
 5951TIP3    H239345   2.186   4.681   1.855  0.1337 -1.9171 -0.6967
 5952TIP3   OH239346   2.418   3.612   2.264 -0.4203  0.1233  0.3281
 5952TIP3    H139347   2.511   3.632   2.275 -0.7638  1.4444  1.1242
 5952TIP3    H239348   2.412   3.569   2.179  0.8229  0.7179 -0.0830
 5953TIP3   OH239349   6.215   3.874  14.265 -0.8093  0.3187  0.6429
 5953TIP3    H139350   6.192   3.931  14.338  0.7458  0.7791  0.8071
 5953TIP3    H239351   6.290   3.824  14.297 -1.1475 -0.6787 -0.0737
 5954TIP3   OH239352   1.446   5.190  14.525  0.3454 -0.2974 -0.0457
 5954TIP3    H139353   1.375   5.127  14.535  1.7989 -1.8783  0.7560
 5954TIP3    H239354   1.453   5.233  14.610  0.5178 -0.3302 -0.0416
 5955TIP3   OH239355   6.401   1.232  13.046  0.0068 -0.6917  0.1281
 5955TIP3    H139356   6.461   1.305  13.033 -0.6750  0.3101  2.1467
 5955TIP3    H239357   6.316   1.266  13.017  0.0025 -1.3411 -0.6505
 5956TIP3   OH239358   4.978   1.514   2.122  0.1900 -0.6389 -0.4408
 5956TIP3    H139359   4.996   1.607   2.109 -1.2766 -0.0866  1.0269
 5956TIP3    H239360   4.963   1.479   2.034  3.0172 -0.0512 -1.2435
 5957TIP3   OH239361   1.657   1.183   3.467 -0.6913  0.0666 -0.7165
 5957TIP3    H139362   1.673   1.276   3.484 -3.1960  0.2553  1.0947
 5957TIP3    H239363   1.625   1.148   3.550 -1.1171 -2.1182 -1.7290
 5958TIP3   OH239364   1.924   2.226   4.875 -0.1479  0.0159  0.4275
 5958TIP3    H139365   1.914   2.320   4.865 -1.3690 -0.2156 -0.9181
 5958TIP3    H239366   1.949   2.213   4.967 -0.1148  1.6229  0.6594
 5959TIP3   OH239367   0.227   2.337   2.633  0.3437 -0.2150 -0.1927
 5959TIP3    H139368   0.187   2.275   2.693 -0.0481 -0.1579 -0.3943
 5959TIP3    H239369   0.192   2.314   2.547 -0.7220  0.9986 -0.1195
 5960TIP3   OH239370   6.091   2.374   2.545 -0.2770  0.6201 -0.6316
 5960TIP3    H139371   6.054   2.439   2.605 -0.1547 -0.1075  0.2550
 5960TIP3    H239372   6.105   2.422   2.463  0.3045  1.8474  0.1599
 5961TIP3   OH239373   4.013   0.023  10.675  0.5527 -0.3444 -0.8787
 5961TIP3    H139374   3.921   0.003  10.657 -0.0124  0.7779  0.5444
 5961TIP3    H239375   4.038   0.083  10.604  0.0164 -0.2030 -0.9543
 5962TIP3   OH239376   2.173   4.253  16.866 -0.1801 -0.1513  0.1962
 5962TIP3    H139377   2.192   4.159  16.863  0.8851  0.0482  0.2627
 5962TIP3    H239378   2.177   4.275  16.959  1.2560  0.2661  0.0603
 5963TIP3   OH239379   1.205   3.286  13.950  0.2423  0.5718  0.3616
 5963TIP3    H139380   1.289   3.261  13.912  0.6133  1.2147  0.7457
 5963TIP3    H239381   1.142   3.274  13.879  0.5256 -0.6598  0.2942
 5964TIP3   OH239382   6.606   5.241  12.445  0.6262 -0.1456  0.5072
 5964TIP3    H139383   6.671   5.200  12.388  0.9442 -0.6552  1.2251
 5964TIP3    H239384   6.574   5.170  12.500 -0.2739  0.1814  0.4167
 5965TIP3   OH239385   2.174   2.828   1.550  0.4310 -0.1930  0.0285
 5965TIP3    H139386   2.250   2.829   1.491  0.3995  0.0326 -0.0096
 5965TIP3    H239387   2.211   2.811   1.636  0.6101  0.6522  0.1251
 5966TIP3   OH239388   4.577   5.415   1.301 -0.1091 -0.1324 -0.0769
 5966TIP3    H139389   4.607   5.364   1.375 -0.5692 -1.3592 -0.7077
 5966TIP3    H239390   4.488   5.441   1.324 -0.1244 -0.2117 -0.0470
 5967TIP3   OH239391   1.319   4.386  15.427  0.2770 -0.0627  0.0271
 5967TIP3    H139392   1.403   4.357  15.390 -0.3358 -0.1974 -1.3166
 5967TIP3    H239393   1.261   4.394  15.351 -1.1599 -0.7515  1.0069
 5968TIP3   OH239394   2.021   2.287  11.381  0.2083 -0.0864  0.3112
 5968TIP3    H139395   1.938   2.318  11.344 -0.3448 -0.1739  1.4291
 5968TIP3    H239396   2.008   2.193  11.393  0.1464  0.0354  1.2699
 5969TIP3   OH239397   3.580   5.293   2.877 -0.3594 -0.0233  0.0135
 5969TIP3    H139398   3.515   5.357   2.906 -0.3816 -0.1056  0.1434
 5969TIP3    H239399   3.530   5.212   2.865  0.1447 -0.8079  2.6213
 5970TIP3   OH239400   2.324   4.078   5.748 -0.1924 -0.3573  0.0699
 5970TIP3    H139401   2.353   4.076   5.839  0.1562  0.0578 -0.0274
 5970TIP3    H239402   2.230   4.093   5.753  0.2769  3.4243  0.3637
 5971TIP3   OH239403   3.920   1.556   3.609 -0.1234  0.0330 -0.0161
 5971TIP3    H139404   3.971   1.556   3.690 -1.5601  1.1419  0.9289
 5971TIP3    H239405   3.978   1.597   3.545  1.4082 -1.7298  0.1436
 5972TIP3   OH239406   0.272   5.391   1.789 -0.1032 -0.2199 -0.1292
 5972TIP3    H139407   0.340   5.449   1.756 -0.4906  0.9760  1.1123
 5972TIP3    H239408   0.256   5.330   1.716 -0.7336  2.1050 -2.0859
 5973TIP3   OH239409   2.141   0.382  16.741 -0.3504  0.3536 -0.8859
 5973TIP3    H139410   2.091   0.316  16.790  0.0401  0.8411  0.2000
 5973TIP3    H239411   2.228   0.344  16.730 -0.4037  0.2932 -1.1138
 5974TIP3   OH239412   2.700   6.301  11.096 -0.0051  0.1410 -0.0034
 5974TIP3    H139413   2.725   6.247  11.021 -0.7597  0.7752 -0.7263
 5974TIP3    H239414   2.777   6.299  11.153  0.5084 -0.5095 -0.6979
 5975TIP3   OH239415   4.713   3.200  14.726 -0.3816 -0.2967 -0.0624
 5975TIP3    H139416   4.744   3.289  14.706  0.5940 -0.9252 -1.5325
 5975TIP3    H239417   4.738   3.149  14.649  0.9515 -2.3100  1.6170
 5976TIP3   OH239418   5.768   5.473  11.574  0.1639 -0.5545 -0.0705
 5976TIP3    H139419   5.843   5.421  11.544  0.4755 -1.8391  2.6266
 5976TIP3    H239420   5.701   5.408  11.595  0.1583  0.1170  2.3370
 5977TIP3   OH239421   0.797   2.944  14.658  0.3470  0.1703  1.0981
 5977TIP3    H139422   0.863   2.874  14.651  0.5816  0.5355 -1.9608
 5977TIP3    H239423   0.834   3.017  14.609 -2.1901  0.4540 -0.6083
 5978TIP3   OH239424   2.962   3.796  15.373  0.0097 -0.1681  0.3828
 5978TIP3    H139425   3.037   3.795  15.314 -0.4375 -0.7121 -0.1957
 5978TIP3    H239426   2.908   3.722  15.344  0.6094 -1.5682  2.5546
 5979TIP3   OH239427   6.009   5.977  15.884 -0.2883 -0.0637  0.5093
 5979TIP3    H139428   6.090   6.009  15.923 -0.1774  0.9301 -0.4926
 5979TIP3    H239429   6.002   6.023  15.801 -2.1045  0.1930  0.7610
 5980TIP3   OH239430   5.972   1.463  13.460 -0.5025 -0.0622 -0.1636
 5980TIP3    H139431   6.032   1.389  13.456 -1.1734 -0.5938 -0.5136
 5980TIP3    H239432   6.018   1.533  13.413  0.4077 -0.0471  0.7274
 5981TIP3   OH239433   0.249   0.209   3.230 -0.4565 -0.4517  0.3270
 5981TIP3    H139434   0.233   0.226   3.323  0.7016 -0.8702  0.6269
 5981TIP3    H239435   0.201   0.128   3.211 -3.3758  1.2837 -0.3030
 5982TIP3   OH239436   6.139   0.980   3.632  0.0068  0.1762 -0.5419
 5982TIP3    H139437   6.131   1.071   3.661 -0.7293  0.1351 -0.6048
 5982TIP3    H239438   6.128   0.984   3.537 -1.6522 -0.1495 -0.3963
 5983TIP3   OH239439   6.753   0.777   2.874  0.2257 -0.0483 -0.6340
 5983TIP3    H139440   6.777   0.854   2.822 -1.6686  0.7635 -0.4048
 5983TIP3    H239441   6.682   0.808   2.931 -0.7351 -1.9934 -0.6863
 5984TIP3   OH239442   0.708   3.863   5.189  0.0870  0.0778 -0.0737
 5984TIP3    H139443   0.719   3.790   5.129 -0.1785 -0.7176  0.8279
 5984TIP3    H239444   0.780   3.854   5.251 -1.8195 -1.4393  2.0563
 5985TIP3   OH239445   1.394   4.069   1.823 -0.6496  0.7284  0.4432
 5985TIP3    H139446   1.344   3.988   1.827 -1.5899  1.2745  0.0189
 5985TIP3    H239447   1.377   4.112   1.907  2.0436 -0.7293  1.8678
 5986TIP3   OH239448   1.991   4.087   0.242  0.0418  0.2084  0.3847
 5986TIP3    H139449   1.933   4.116   0.172 -0.0032  0.3383  0.4727
 5986TIP3    H239450   2.061   4.153   0.244  0.2017  0.0423  0.2672
 5987TIP3   OH239451   6.173   1.494   0.946 -0.2889  0.2738  0.2538
 5987TIP3    H139452   6.225   1.468   1.022  0.1419  2.1650  0.6398
 5987TIP3    H239453   6.091   1.526   0.983 -0.5680  0.0659 -0.1754
 5988TIP3   OH239454   4.401   0.457  13.761 -0.0302 -1.1078  0.5123
 5988TIP3    H139455   4.410   0.495  13.848  1.1262  0.8073 -0.3791
 5988TIP3    H239456   4.491   0.446  13.730 -0.4129  0.3855 -1.2948
 5989TIP3   OH239457   5.395   1.867   1.419 -0.3895  0.1085  0.7811
 5989TIP3    H139458   5.305   1.845   1.443  0.3930  0.1241  4.3160
 5989TIP3    H239459   5.409   1.955   1.454  0.6347  0.7342 -1.0257
 5990TIP3   OH239460   4.851   3.869  13.950  0.0789 -0.5092  0.3767
 5990TIP3    H139461   4.846   3.950  14.001 -1.7125 -0.1145 -0.3326
 5990TIP3    H239462   4.861   3.800  14.015 -0.3102  0.1321  1.1324
 5991TIP3   OH239463   4.929   6.778   6.396  0.0679  0.1055 -0.2268
 5991TIP3    H139464   4.942   6.728   6.315 -0.4022  1.4306 -1.1482
 5991TIP3    H239465   4.836   6.802   6.394 -0.4559 -1.5019  1.7160
 5992TIP3   OH239466   3.987   6.656   1.385 -0.2667  0.2574 -0.0709
 5992TIP3    H139467   4.026   6.616   1.463 -0.0944 -0.1182 -0.3537
 5992TIP3    H239468   3.978   6.749   1.409  1.1843  0.4410 -0.1526
 5993TIP3   OH239469   5.754   5.635   2.929  0.0500 -0.0477 -0.3107
 5993TIP3    H139470   5.671   5.653   2.972 -0.2453 -1.7993 -0.0548
 5993TIP3    H239471   5.820   5.668   2.988 -0.4401  0.2168  0.0937
 5994TIP3   OH239472   3.419   5.578  15.567  0.3975 -0.7588 -0.0010
 5994TIP3    H139473   3.483   5.515  15.532  0.5326 -0.2338 -0.7387
 5994TIP3    H239474   3.336   5.552  15.526  0.7181  0.3969 -1.4789
 5995TIP3   OH239475   5.116   6.576  14.210  0.5080  0.3468  0.1832
 5995TIP3    H139476   5.120   6.652  14.269 -1.1346  0.1875  0.5700
 5995TIP3    H239477   5.138   6.611  14.124  1.7005  0.8484  0.6844
 5996TIP3   OH239478   5.526   5.247   4.980  0.6345 -0.2090 -0.1961
 5996TIP3    H139479   5.487   5.298   4.909  0.6939  0.1462  0.0229
 5996TIP3    H239480   5.462   5.179   4.999  0.0648  0.4282  0.2263
 5997TIP3   OH239481   3.012   6.395  12.381  0.1774  0.0418  0.3658
 5997TIP3    H139482   3.033   6.322  12.439 -1.3402 -0.1745  0.6929
 5997TIP3    H239483   2.940   6.440  12.425 -0.1619  0.6269 -0.7489
 5998TIP3   OH239484   5.705   4.453   6.031  0.2155 -0.5370 -0.0320
 5998TIP3    H139485   5.708   4.370   6.078 -1.1882  0.5577  2.1316
 5998TIP3    H239486   5.683   4.518   6.097 -1.6545  1.1705 -2.1603
 5999TIP3   OH239487   6.331   5.144  17.068  0.3613  0.0540  0.3209
 5999TIP3    H139488   6.310   5.105  16.983  0.0743 -1.6251  1.1064
 5999TIP3    H239489   6.266   5.212  17.080  0.0626 -0.0550 -0.5643
 6000TIP3   OH239490   0.134   6.212  12.474 -0.6004 -0.0154 -0.6987
 6000TIP3    H139491   0.058   6.245  12.522 -0.0013 -0.1594  0.3875
 6000TIP3    H239492   0.176   6.290  12.438 -0.7844  0.1343 -0.5866
 6001TIP3   OH239493   1.420   2.572  17.205  0.0406  0.0864  0.2042
 6001TIP3    H139494   1.328   2.562  17.227 -0.0308  0.9938  0.3440
 6001TIP3    H239495   1.464   2.580  17.290  0.1075  0.8041  0.1044
 6002TIP3   OH239496   6.749   1.524   3.352 -0.0452  0.0970 -0.2392
 6002TIP3    H139497   6.821   1.464   3.370  0.2570 -0.0213 -1.7561
 6002TIP3    H239498   6.684   1.471   3.306 -1.2599  0.1336  1.3240
 6003TIP3   OH239499   3.349   5.735  10.910 -0.1965  0.0129 -0.3128
 6003TIP3    H139500   3.331   5.737  10.816 -1.1971  0.7518 -0.1164
 6003TIP3    H239501   3.417   5.801  10.923  1.2927 -1.3646 -0.7572
 6004TIP3   OH239502   1.083   0.148  12.396  0.4565  0.1036  0.5839
 6004TIP3    H139503   1.068   0.228  12.345  1.1217 -0.2172 -0.1419
 6004TIP3    H239504   1.004   0.139  12.450 -0.0591  0.7218 -0.0346
 6005TIP3   OH239505   2.275   4.578   1.575 -0.2398 -0.6219  1.1556
 6005TIP3    H139506   2.362   4.616   1.564 -0.9657  1.8915  3.1202
 6005TIP3    H239507   2.234   4.589   1.490  0.5490  0.4988  0.8916
 6006TIP3   OH239508   2.681   1.578   4.536 -0.1809  0.0887  0.6874
 6006TIP3    H139509   2.702   1.603   4.446 -1.8481 -0.8155  0.0075
 6006TIP3    H239510   2.667   1.662   4.581  1.1185  0.5625  0.2551
 6007TIP3   OH239511   5.813   4.264  15.761 -0.4653 -0.2060  0.4354
 6007TIP3    H139512   5.829   4.201  15.832  1.2213  0.2460  0.4755
 6007TIP3    H239513   5.843   4.347  15.795 -1.3650  0.3855 -0.1559
 6008TIP3   OH239514   6.129   3.855  11.724  0.1976 -0.0578 -0.2529
 6008TIP3    H139515   6.146   3.922  11.658 -3.4293  1.3041 -0.0071
 6008TIP3    H239516   6.106   3.777  11.673  0.1333  0.1822 -0.5980
 6009TIP3   OH239517   2.622   3.931  15.949 -0.4078  0.6758 -0.4706
 6009TIP3    H139518   2.684   3.971  15.888  1.0229  1.7359  1.5763
 6009TIP3    H239519   2.537   3.968  15.923  0.4388  2.6691 -0.6166
 6010TIP3   OH239520   3.617   6.316  12.883  0.3576  0.3161 -0.7315
 6010TIP3    H139521   3.543   6.270  12.844  0.3527  0.5567 -1.0151
 6010TIP3    H239522   3.694   6.282  12.837  0.5418 -0.7240  0.3068
 6011TIP3   OH239523   3.883   3.296  12.784  0.0499 -0.4064  0.1989
 6011TIP3    H139524   3.898   3.385  12.816  0.2910 -0.2158 -0.4257
 6011TIP3    H239525   3.887   3.242  12.863 -1.1752  0.2495  0.7408
 6012TIP3   OH239526   4.412   2.531   0.083  0.5474  0.0914  0.2223
 6012TIP3    H139527   4.410   2.623   0.109  0.2464  0.4660 -1.0611
 6012TIP3    H239528   4.434   2.484   0.163 -3.9698  0.7992  2.1921
 6013TIP3   OH239529   0.926   5.340  14.077  0.0457  0.3619 -0.0046
 6013TIP3    H139530   0.859   5.408  14.066  0.3975  0.3468 -3.5568
 6013TIP3    H239531   0.997   5.383  14.124 -0.8825  1.5704  0.3462
 6014TIP3   OH239532   2.567   4.473   1.493  0.0810 -0.4361  0.8043
 6014TIP3    H139533   2.528   4.386   1.482 -0.8926 -0.0883  1.2937
 6014TIP3    H239534   2.560   4.489   1.587  3.3966 -1.2171  1.2980
 6015TIP3   OH239535   5.316   0.231  16.027 -0.3300 -0.0008 -0.1214
 6015TIP3    H139536   5.300   0.162  15.962  3.5071 -1.9773  0.7786
 6015TIP3    H239537   5.371   0.294  15.981 -1.3569  0.9824 -0.0431
 6016TIP3   OH239538   5.128   2.761  14.723  0.2256 -0.0093 -0.1168
 6016TIP3    H139539   5.202   2.822  14.722  0.8531 -0.6204  2.4403
 6016TIP3    H239540   5.138   2.710  14.643  2.9020 -0.4205  0.3854
 6017TIP3   OH239541   2.008   1.980  15.010 -0.0368 -0.2242 -0.1669
 6017TIP3    H139542   2.080   1.931  14.971 -1.1805 -2.1291 -0.0203
 6017TIP3    H239543   1.972   2.033  14.939  1.9644  1.3992 -0.0469
 6018TIP3   OH239544   2.050   5.502   0.815 -1.0311 -0.0242 -0.2865
 6018TIP3    H139545   2.055   5.417   0.771 -0.6391 -0.4732  0.6151
 6018TIP3    H239546   2.141   5.531   0.823 -1.1019  0.0752  0.1887
 6019TIP3   OH239547   0.616   0.039   4.054 -0.1281 -0.1096  0.0051
 6019TIP3    H139548   0.565   0.090   3.991  1.5499  1.1008 -0.4343
 6019TIP3    H239549   0.697   0.016   4.008  0.0707 -1.3748  0.9104
 6020TIP3   OH239550   5.826   6.768  14.483  1.0242  0.5734 -0.1539
 6020TIP3    H139551   5.880   6.731  14.553  0.4351  0.9745  0.5365
 6020TIP3    H239552   5.773   6.695  14.452  1.4569  0.3396 -0.3377
 6021TIP3   OH239553   1.198   6.081  14.681  0.1391  0.1643 -0.2349
 6021TIP3    H139554   1.154   6.166  14.670 -0.4605 -0.0420  0.4708
 6021TIP3    H239555   1.208   6.071  14.775 -1.8465 -1.5312 -0.1204
 6022TIP3   OH239556   3.632   6.627   3.362 -0.2330  0.3168  0.5380
 6022TIP3    H139557   3.544   6.632   3.399 -0.4736  0.7842 -0.0846
 6022TIP3    H239558   3.681   6.694   3.409 -0.6440  1.1929 -0.2477
 6023TIP3   OH239559   2.063   5.891   1.434  0.0714  0.2702  0.2579
 6023TIP3    H139560   2.102   5.978   1.437  1.7426 -0.4480  2.4505
 6023TIP3    H239561   2.138   5.831   1.439 -1.0459 -1.3091 -0.9063
 6024TIP3   OH239562   3.701   0.864  16.557  0.3753 -0.1360  0.2513
 6024TIP3    H139563   3.723   0.950  16.593  0.8137 -0.2501  0.2607
 6024TIP3    H239564   3.669   0.814  16.632  2.2372 -0.7026  0.7273
 6025TIP3   OH239565   2.826   5.280   0.534  0.0814 -0.5439 -0.1196
 6025TIP3    H139566   2.894   5.225   0.573  0.3350  0.7820  1.3647
 6025TIP3    H239567   2.750   5.222   0.528  0.8862 -1.6053 -0.3863
 6026TIP3   OH239568   5.256   5.908  12.152  0.0583  0.3853 -0.1685
 6026TIP3    H139569   5.167   5.943  12.160  0.1268  0.1552  2.1719
 6026TIP3    H239570   5.313   5.985  12.162  0.1372  0.3152 -0.0745
 6027TIP3   OH239571   0.730   4.705   4.552 -0.9383 -0.1512  0.1721
 6027TIP3    H139572   0.820   4.682   4.530 -1.0639 -1.3447  0.8607
 6027TIP3    H239573   0.677   4.656   4.489 -1.1086  1.0217 -0.6323
 6028TIP3   OH239574   5.881   4.591   5.551  0.3387  0.1900  0.4014
 6028TIP3    H139575   5.809   4.547   5.595 -3.0068  3.0352 -1.6616
 6028TIP3    H239576   5.910   4.530   5.484 -1.6164 -0.2852 -0.0535
 6029TIP3   OH239577   3.189   4.778  11.025 -0.2250 -0.4304 -0.3350
 6029TIP3    H139578   3.125   4.834  10.979 -0.1876 -1.6428 -1.9731
 6029TIP3    H239579   3.259   4.765  10.961  0.2661 -1.4938  0.3940
 6030TIP3   OH239580   1.977   6.082  14.791 -0.1202 -0.6276  0.2588
 6030TIP3    H139581   1.976   5.993  14.755  1.9285 -0.0390 -1.5368
 6030TIP3    H239582   2.068   6.096  14.817 -0.7372  0.4324  2.0279
 6031TIP3   OH239583   2.151   2.724  12.183  0.0677  0.5438 -0.0676
 6031TIP3    H139584   2.239   2.703  12.151  1.0815 -2.6651  3.8819
 6031TIP3    H239585   2.167   2.791  12.250 -0.4064 -0.1729  0.7800
 6032TIP3   OH239586   0.136   6.251  15.674 -0.0860  0.0774 -0.3647
 6032TIP3    H139587   0.111   6.283  15.761  1.2718  0.4455 -0.0806
 6032TIP3    H239588   0.158   6.330  15.625 -0.8742 -0.1264 -1.0663
 6033TIP3   OH239589   1.526   2.576  12.772  0.4184  0.5526  0.3200
 6033TIP3    H139590   1.431   2.569  12.766  0.2397  2.9496 -0.9138
 6033TIP3    H239591   1.556   2.574  12.681  1.4325  0.9917  0.6316
 6034TIP3   OH239592   6.513   3.001   5.274 -0.2327 -0.3835  0.1285
 6034TIP3    H139593   6.518   3.001   5.178 -0.8161 -1.0472  0.0866
 6034TIP3    H239594   6.435   3.053   5.293 -0.7606 -1.1823  0.1879
 6035TIP3   OH239595   4.863   1.944  12.532  0.2391 -0.7289 -0.2315
 6035TIP3    H139596   4.788   2.001  12.513 -0.4715 -2.2182 -2.2495
 6035TIP3    H239597   4.923   2.000  12.582 -1.9609  0.6597  1.0147
 6036TIP3   OH239598   3.876   5.825   4.475 -0.9594 -0.7552  0.0950
 6036TIP3    H139599   3.880   5.920   4.484  1.8069 -0.6687 -0.9397
 6036TIP3    H239600   3.957   5.794   4.514 -0.1198 -2.3200 -2.6228
 6037TIP3   OH239601   0.449   2.154   0.845 -0.3337 -0.0096  0.5682
 6037TIP3    H139602   0.458   2.147   0.750 -0.2178  0.3528  0.5533
 6037TIP3    H239603   0.355   2.147   0.861 -0.3395 -0.2456  0.4431
 6038TIP3   OH239604   4.907   3.390  16.804 -0.3301 -0.3900  0.4237
 6038TIP3    H139605   4.814   3.412  16.805 -0.1665  0.7845 -2.0029
 6038TIP3    H239606   4.923   3.362  16.714  1.9595  0.9320  0.3512
 6039TIP3   OH239607   4.895   1.704  12.965 -0.8046 -0.7391 -0.0462
 6039TIP3    H139608   4.820   1.667  12.919 -1.0875 -0.4271  0.1550
 6039TIP3    H239609   4.857   1.771  13.022 -0.7627 -2.5793  2.3013
 6040TIP3   OH239610   4.935   1.153   1.455  0.2484  0.6485 -0.0931
 6040TIP3    H139611   4.887   1.193   1.528  2.2862  1.0342  1.1414
 6040TIP3    H239612   5.026   1.180   1.469  0.7093  0.9185 -2.9342
 6041TIP3   OH239613   1.794   4.712   2.295 -0.0857  0.0664  0.3313
 6041TIP3    H139614   1.869   4.732   2.351 -0.0129  0.4772  0.0939
 6041TIP3    H239615   1.790   4.786   2.234  0.6527 -1.0185 -1.0836
 6042TIP3   OH239616   3.765   2.053  16.041  0.4389  0.2495  0.6673
 6042TIP3    H139617   3.830   1.998  16.084  0.3301  0.9001  1.6990
 6042TIP3    H239618   3.816   2.119  15.995  0.5504 -0.3323 -0.0544
 6043TIP3   OH239619   3.540   2.463  12.725  0.0839 -0.1450 -0.0739
 6043TIP3    H139620   3.462   2.454  12.779 -0.2004  1.5976 -0.1189
 6043TIP3    H239621   3.587   2.538  12.762  0.5275  0.3011 -1.4524
 6044TIP3   OH239622   6.539   1.108   0.382  0.3770  0.5552 -0.1941
 6044TIP3    H139623   6.509   1.063   0.461 -0.0021 -0.6036 -0.9694
 6044TIP3    H239624   6.518   1.200   0.397  0.9531  0.4640  1.3330
 6045TIP3   OH239625   2.219   3.305   2.431  0.0566  0.3949 -0.4027
 6045TIP3    H139626   2.200   3.325   2.522 -2.3734  1.2912 -1.0059
 6045TIP3    H239627   2.213   3.389   2.386 -0.1059 -0.1985 -1.5485
 6046TIP3   OH239628   4.950   1.196   3.263  0.3151 -0.2519 -0.0769
 6046TIP3    H139629   4.916   1.283   3.285  1.9553  0.6506 -0.8964
 6046TIP3    H239630   4.872   1.144   3.243 -0.6822  1.1407  0.0620
 6047TIP3   OH239631   6.413   5.904  13.067  0.3307 -0.3894  0.0066
 6047TIP3    H139632   6.378   5.962  12.998  0.5458 -0.4146 -0.1259
 6047TIP3    H239633   6.469   5.842  13.020  0.9590 -0.0341  0.2671
 6048TIP3   OH239634   3.977   1.319   2.877  0.0632 -0.2777  0.1438
 6048TIP3    H139635   3.881   1.325   2.871 -0.0896 -2.4313 -0.5282
 6048TIP3    H239636   3.993   1.240   2.929  1.4503 -0.9289 -1.2020
 6049TIP3   OH239637   0.486   2.440   1.034  0.5556 -0.0952 -0.2697
 6049TIP3    H139638   0.443   2.491   0.966  0.7146  0.3658 -0.0268
 6049TIP3    H239639   0.479   2.349   1.004  0.0134  0.0367 -0.5592
 6050TIP3   OH239640   5.111   3.178   1.296 -0.2237 -0.4503 -0.2475
 6050TIP3    H139641   5.158   3.232   1.360 -0.2775  0.7801 -1.2026
 6050TIP3    H239642   5.138   3.088   1.316  1.9669  0.1352 -0.2793
 6051TIP3   OH239643   3.527   3.515  14.665  0.7263 -0.1494  0.3254
 6051TIP3    H139644   3.567   3.593  14.627  0.0752  0.0550  0.0482
 6051TIP3    H239645   3.516   3.455  14.591 -0.0656  0.0484  0.2678
 6052TIP3   OH239646   3.078   5.800  13.904 -0.1663  0.3974 -0.0193
 6052TIP3    H139647   3.169   5.784  13.927 -0.2772 -1.1742 -0.5733
 6052TIP3    H239648   3.030   5.788  13.986  0.0038  0.0230  0.0280
 6053TIP3   OH239649   2.523   2.065  12.438  0.0767 -0.1761  0.1225
 6053TIP3    H139650   2.481   2.018  12.366  0.2254 -1.2510  0.7108
 6053TIP3    H239651   2.450   2.098  12.491 -0.0310  0.2121 -0.2680
 6054TIP3   OH239652   0.463   1.728  15.816  0.1833 -0.8107  0.4535
 6054TIP3    H139653   0.477   1.714  15.722 -1.5926  0.4743 -0.0516
 6054TIP3    H239654   0.550   1.748  15.850  0.9102 -1.6028 -0.8495
 6055TIP3   OH239655   0.472   3.024   3.239  0.1459 -0.3750  0.1171
 6055TIP3    H139656   0.455   2.974   3.318 -0.0742  1.0802  1.0402
 6055TIP3    H239657   0.392   3.014   3.187  0.0614 -0.8685  0.3350
 6056TIP3   OH239658   2.143   1.765   5.404  0.0911  0.3729 -0.2311
 6056TIP3    H139659   2.129   1.676   5.436 -1.2661 -0.2402 -2.2851
 6056TIP3    H239660   2.236   1.782   5.419  0.5717 -1.7158 -0.5336
 6057TIP3   OH239661   5.427   2.883   4.832 -0.6797  0.8488 -0.3259
 6057TIP3    H139662   5.371   2.824   4.883  1.0538 -0.9517 -0.3820
 6057TIP3    H239663   5.430   2.843   4.745  0.2139  1.2454 -0.4807
 6058TIP3   OH239664   2.119   2.180  16.032  0.0388 -1.1113  0.2746
 6058TIP3    H139665   2.208   2.203  16.007 -0.2696 -0.7195 -0.4940
 6058TIP3    H239666   2.081   2.262  16.065  0.2517 -1.4863  1.5104
 6059TIP3   OH239667   4.181   1.822  12.068 -0.3138  0.2874 -0.1024
 6059TIP3    H139668   4.202   1.742  12.020  0.7300  1.2574 -1.3407
 6059TIP3    H239669   4.099   1.853  12.028  0.3225  0.8617 -0.9876
 6060TIP3   OH239670   2.209   3.477  13.666 -0.4336 -0.0785  0.4474
 6060TIP3    H139671   2.166   3.536  13.728 -2.7447 -0.1333 -1.0009
 6060TIP3    H239672   2.252   3.536  13.603 -2.7785  0.1822 -1.0264
 6061TIP3   OH239673   5.885   0.233   2.507 -0.3861 -0.1516 -0.5485
 6061TIP3    H139674   5.946   0.165   2.480  0.4637 -0.3151  1.6233
 6061TIP3    H239675   5.881   0.226   2.602 -1.6692  1.6727 -0.4128
 6062TIP3   OH239676   0.664   0.087  12.907  0.5748  0.0135  0.1240
 6062TIP3    H139677   0.615   0.007  12.891 -0.8735  0.0462  3.4971
 6062TIP3    H239678   0.598   0.157  12.904  1.7265  1.1218 -2.2617
 6063TIP3   OH239679   6.744   5.158  11.616 -0.1251  0.1035  0.2628
 6063TIP3    H139680   6.684   5.212  11.667 -1.3257 -0.2774 -0.7014
 6063TIP3    H239681   6.808   5.220  11.581 -0.8157  0.7332  0.1014
 6064TIP3   OH239682   3.718   5.910  11.265 -0.0071 -0.6630  0.7146
 6064TIP3    H139683   3.752   5.888  11.179  1.1535 -0.1462  1.0178
 6064TIP3    H239684   3.742   6.002  11.278  0.1549 -0.8327  1.7247
 6065TIP3   OH239685   5.242   3.827  10.924  0.1247 -0.1344 -0.2537
 6065TIP3    H139686   5.253   3.816  10.829  0.3011  1.2823 -0.4198
 6065TIP3    H239687   5.305   3.896  10.947  0.4621 -0.8263  0.9933
 6066TIP3   OH239688   2.398   5.333   3.989  0.1794 -0.1309  0.7255
 6066TIP3    H139689   2.329   5.375   3.937 -0.5474 -2.5029 -0.3711
 6066TIP3    H239690   2.391   5.240   3.967  1.8996 -0.8195  2.7721
 6067TIP3   OH239691   0.770   2.200  16.716 -0.6689  0.1086 -0.2353
 6067TIP3    H139692   0.736   2.113  16.692 -1.3796  0.3852 -0.2603
 6067TIP3    H239693   0.773   2.199  16.811  1.3232 -0.6789 -0.2585
 6068TIP3   OH239694   0.625   3.928   4.744  0.2230  0.2320 -0.0538
 6068TIP3    H139695   0.608   3.977   4.824  3.1740  0.9532  0.2364
 6068TIP3    H239696   0.579   3.845   4.756  0.8489  0.1924  2.5543
 6069TIP3   OH239697   6.756   0.047   5.005 -0.6002  0.1944 -0.5769
 6069TIP3    H139698   6.771   0.138   5.031  1.0365 -0.2434  0.1726
 6069TIP3    H239699   6.676   0.022   5.050  0.9322  0.1615  2.3881
 6070TIP3   OH239700   1.983   1.315  11.711  0.0127  1.1110 -0.1379
 6070TIP3    H139701   1.890   1.305  11.690 -0.7197  0.9357  2.8073
 6070TIP3    H239702   1.999   1.409  11.703 -0.6650  1.2689  0.2505
 6071TIP3   OH239703   3.335   3.279   3.292  0.0661 -0.0118  0.0162
 6071TIP3    H139704   3.364   3.226   3.218  1.2758 -0.3827  0.7374
 6071TIP3    H239705   3.311   3.215   3.359  1.4330  0.3244  0.8561
 6072TIP3   OH239706   6.661   4.064  11.706  0.4679 -0.1178 -0.4006
 6072TIP3    H139707   6.666   3.969  11.715 -3.0806 -0.3083  1.3781
 6072TIP3    H239708   6.637   4.095  11.793  1.5566  2.4432 -0.9502
 6073TIP3   OH239709   3.275   6.414   2.538 -0.5445 -0.0601 -0.1866
 6073TIP3    H139710   3.188   6.378   2.522 -0.1859 -0.2732 -1.8080
 6073TIP3    H239711   3.335   6.341   2.523 -0.0624  0.1112  0.8035
 6074TIP3   OH239712   0.025   1.404  16.070  0.1290  0.1127 -0.2343
 6074TIP3    H139713   0.040   1.433  15.980  1.6062  1.4242  0.3956
 6074TIP3    H239714  -0.056   1.447  16.096 -0.5425 -0.6173 -1.0534
 6075TIP3   OH239715   3.736   5.650  11.823  0.1814  0.0128  0.6505
 6075TIP3    H139716   3.650   5.639  11.783  0.7833 -3.6961 -0.0540
 6075TIP3    H239717   3.719   5.696  11.905 -2.1205  1.3205 -0.4663
 6076TIP3   OH239718   1.314   4.933   1.823  0.4621 -0.2265  0.2261
 6076TIP3    H139719   1.251   4.976   1.881  0.0435  1.3717 -1.3280
 6076TIP3    H239720   1.384   4.904   1.882 -0.8414 -0.4456  1.7620
 6077TIP3   OH239721   3.908   5.565   2.581 -0.1795  0.0097 -0.2394
 6077TIP3    H139722   3.816   5.590   2.588  0.5221  2.3582  2.5615
 6077TIP3    H239723   3.930   5.530   2.667  1.8334  0.7966 -0.3871
 6078TIP3   OH239724   4.655   4.126  10.528 -0.7410  0.5638 -0.3781
 6078TIP3    H139725   4.669   4.042  10.485 -0.8397 -0.1370  0.9202
 6078TIP3    H239726   4.631   4.186  10.457  1.7096  0.1138 -1.6857
 6079TIP3   OH239727   6.248   5.176   0.134 -0.9034 -0.6388 -0.2159
 6079TIP3    H139728   6.290   5.261   0.121  0.0069 -1.0193  0.1658
 6079TIP3    H239729   6.190   5.167   0.058 -1.8630  0.8083  0.2944
 6080TIP3   OH239730   5.143   1.958  15.783  0.0021  0.3716  0.7649
 6080TIP3    H139731   5.160   1.877  15.832 -1.2360 -0.4752 -0.1443
 6080TIP3    H239732   5.167   2.028  15.844  0.7316 -0.6645  1.7127
 6081TIP3   OH239733   5.992   4.113   5.259  0.2291  0.1182  0.5440
 6081TIP3    H139734   5.915   4.118   5.203  0.7617  0.0989 -0.2041
 6081TIP3    H239735   6.063   4.150   5.207  1.8575 -4.3020 -0.8051
 6082TIP3   OH239736   4.284   1.460   1.570  0.4775  0.6270  0.5880
 6082TIP3    H139737   4.302   1.544   1.528  2.2264 -0.4982 -1.0748
 6082TIP3    H239738   4.200   1.432   1.531  1.3084  0.3232 -1.0848
 6083TIP3   OH239739   5.886   4.814   5.747 -0.0992  0.3448 -0.0968
 6083TIP3    H139740   5.802   4.781   5.779  0.3776  0.2060  1.0537
 6083TIP3    H239741   5.925   4.859   5.822  0.6265  0.8651 -0.7626
 6084TIP3   OH239742   5.704   0.450  16.033  0.6795  0.0603 -0.0665
 6084TIP3    H139743   5.641   0.450  15.962 -1.2174  1.3645  1.4976
 6084TIP3    H239744   5.717   0.357  16.054 -0.4088 -0.2547 -0.7092
 6085TIP3   OH239745   2.780   1.127   2.797 -0.0915 -0.2093  0.7774
 6085TIP3    H139746   2.720   1.181   2.747  0.6552 -0.6769 -0.6786
 6085TIP3    H239747   2.724   1.073   2.853 -0.9018  0.9497  1.1193
 6086TIP3   OH239748   0.072   1.997   5.588  0.1554  0.1910 -0.6006
 6086TIP3    H139749   0.015   2.011   5.513 -0.7640  0.6313  0.1557
 6086TIP3    H239750   0.116   2.081   5.601  0.4714  0.0541 -0.7631
 6087TIP3   OH239751   1.927   3.247   1.492 -0.0215 -0.0052  0.4245
 6087TIP3    H139752   2.001   3.216   1.544  0.9203 -1.4750 -1.6408
 6087TIP3    H239753   1.908   3.334   1.526  1.4469 -0.3258  2.2245
 6088TIP3   OH239754   3.537   0.467   2.081  0.5345 -0.0299  0.4405
 6088TIP3    H139755   3.457   0.471   2.028  0.6768 -0.1265  0.2205
 6088TIP3    H239756   3.606   0.445   2.019  0.9141  1.0946  0.4354
 6089TIP3   OH239757   4.722   2.704  14.223 -0.9886 -0.5363  0.2832
 6089TIP3    H139758   4.773   2.624  14.213  0.2398  0.3392 -0.9000
 6089TIP3    H239759   4.738   2.732  14.313 -0.6420 -1.1040  0.4027
 6090TIP3   OH239760   6.129   5.566  13.417 -0.2554  0.1599 -0.3282
 6090TIP3    H139761   6.153   5.608  13.499 -2.6347  1.4266 -0.2268
 6090TIP3    H239762   6.164   5.624  13.349  2.3777 -1.2672 -0.3296
 6091TIP3   OH239763   3.030   1.894  17.169  0.1842  0.4707 -0.4315
 6091TIP3    H139764   3.067   1.850  17.093 -0.9777  1.3170 -1.5294
 6091TIP3    H239765   3.105   1.933  17.213  0.9300 -0.4546 -0.8509
 6092TIP3   OH239766   0.632   1.395  15.178 -0.1459 -0.1125 -0.3079
 6092TIP3    H139767   0.578   1.462  15.220 -0.6588  0.5040 -1.8605
 6092TIP3    H239768   0.679   1.353  15.250  0.2334  1.9482  0.7201
 6093TIP3   OH239769   5.532   5.729  15.636 -0.2202  0.3563  0.4835
 6093TIP3    H139770   5.464   5.791  15.609  0.5093  0.7955 -0.3982
 6093TIP3    H239771   5.590   5.779  15.692  0.6846  0.6592 -0.6818
 6094TIP3   OH239772   3.479   1.071  11.288  0.3543 -0.1429  0.7672
 6094TIP3    H139773   3.395   1.035  11.315  1.5430 -3.0483  0.9811
 6094TIP3    H239774   3.520   1.001  11.236  1.6224  2.1247 -1.5446
 6095TIP3   OH239775   0.530   2.309  13.153  0.1100 -0.0012  0.4449
 6095TIP3    H139776   0.462   2.303  13.220  0.9316  0.1490  1.3174
 6095TIP3    H239777   0.483   2.325  13.071 -1.0669 -2.1918  0.6414
 6096TIP3   OH239778   6.032   2.049  11.439 -0.2854  0.0626  0.1866
 6096TIP3    H139779   5.965   2.037  11.372  0.3563  0.7284 -0.5944
 6096TIP3    H239780   5.983   2.061  11.520 -1.0587 -2.6752  0.2271
 6097TIP3   OH239781   1.912   0.730  12.728  0.0238 -0.3321 -0.5275
 6097TIP3    H139782   1.930   0.636  12.737 -0.1178 -0.2611  0.7651
 6097TIP3    H239783   1.866   0.753  12.809 -1.4034  0.5228 -1.5309
 6098TIP3   OH239784   5.755   6.294  15.740 -0.0881  0.1993 -0.1900
 6098TIP3    H139785   5.840   6.324  15.772 -0.8303  0.4634  1.6053
 6098TIP3    H239786   5.692   6.352  15.781 -1.3837 -2.1108  1.3136
 6099TIP3   OH239787   3.978   3.413   5.419 -0.6789 -0.7003 -0.0394
 6099TIP3    H139788   4.054   3.449   5.464  0.0012 -0.0996 -1.6013
 6099TIP3    H239789   3.991   3.318   5.420  1.0190 -0.5491 -1.7781
 6100TIP3   OH239790   0.767   4.357   4.108 -0.0850  0.0615  0.1478
 6100TIP3    H139791   0.809   4.283   4.065  0.4249  0.1635  0.4620
 6100TIP3    H239792   0.712   4.397   4.040  0.2058 -0.1646 -0.2218
 6101TIP3   OH239793   2.364   0.943  12.392  0.1699 -0.2817 -0.5826
 6101TIP3    H139794   2.348   1.020  12.338 -0.4067 -0.5871 -0.8585
 6101TIP3    H239795   2.457   0.924  12.381  0.0838 -0.2715 -1.3752
 6102TIP3   OH239796   4.497   6.471  14.900  0.1330  0.9216 -0.1716
 6102TIP3    H139797   4.575   6.448  14.849  1.1733  0.3491  1.5670
 6102TIP3    H239798   4.524   6.547  14.952  0.0650 -0.1581  1.5221
 6103TIP3   OH239799   0.268   2.788  16.045 -0.2237  0.0635 -0.3454
 6103TIP3    H139800   0.192   2.845  16.038  1.1570  2.1402  0.5375
 6103TIP3    H239801   0.233   2.700  16.033 -2.3760  1.0760 -2.3642
 6104TIP3   OH239802   3.802   2.948   0.206 -0.5725  0.7814 -0.4045
 6104TIP3    H139803   3.713   2.970   0.178 -1.2855  0.9939  1.8057
 6104TIP3    H239804   3.829   3.024   0.258 -0.5580 -0.7289  1.9517
 6105TIP3   OH239805   0.427   2.984  12.248 -0.0252 -0.4100  0.0678
 6105TIP3    H139806   0.415   2.892  12.272  0.4314 -0.5170 -0.1087
 6105TIP3    H239807   0.338   3.020  12.247 -0.1199 -0.5373  1.3413
 6106TIP3   OH239808   4.290   0.467  11.446 -0.3943  0.2266 -0.0428
 6106TIP3    H139809   4.349   0.457  11.520  0.8133 -0.4995 -1.0630
 6106TIP3    H239810   4.239   0.545  11.466 -0.1273  0.0152  1.5591
 6107TIP3   OH239811   1.942   3.678   3.059  0.2763  0.2159 -0.4077
 6107TIP3    H139812   1.919   3.761   3.100 -1.1556 -0.0246 -0.6690
 6107TIP3    H239813   1.879   3.668   2.988 -0.9945 -2.0652  0.9055
 6108TIP3   OH239814   6.337   6.502  11.337 -0.1628  0.2992  0.4935
 6108TIP3    H139815   6.280   6.436  11.297  1.3730  0.6868 -2.6410
 6108TIP3    H239816   6.418   6.455  11.358 -0.0860  0.6013  0.8797
 6109TIP3   OH239817   4.940   3.907  12.891 -0.0710 -0.2043 -0.0602
 6109TIP3    H139818   5.021   3.943  12.853 -0.8707 -0.1162 -1.7707
 6109TIP3    H239819   4.966   3.880  12.979  2.1905 -1.4419 -1.0097
 6110TIP3   OH239820   6.394   2.400   1.777  0.5370 -0.4447  0.2194
 6110TIP3    H139821   6.482   2.390   1.812 -0.3636 -0.0736  2.8228
 6110TIP3    H239822   6.362   2.310   1.765  0.6291 -0.5854  1.0280
 6111TIP3   OH239823   1.405   2.704  15.780  0.0146  0.4876 -0.5971
 6111TIP3    H139824   1.360   2.769  15.725  1.0458  2.1880  0.4792
 6111TIP3    H239825   1.339   2.676  15.844 -1.1885 -1.4863 -2.5577
 6112TIP3   OH239826   0.405   5.174   2.647 -0.1276 -0.1190  0.6337
 6112TIP3    H139827   0.476   5.235   2.666 -1.5601  1.0721  2.5913
 6112TIP3    H239828   0.438   5.088   2.674  0.8923  0.2482  0.5792
 6113TIP3   OH239829   1.999   3.583  14.609  0.5213  0.6582  0.0016
 6113TIP3    H139830   2.048   3.502  14.595  1.9191  1.2787  0.9777
 6113TIP3    H239831   1.949   3.568  14.688  1.7293  1.1117  0.8947
 6114TIP3   OH239832   0.337   0.811   1.410 -0.5918 -0.5126  0.0772
 6114TIP3    H139833   0.356   0.900   1.379 -0.6918 -0.1871  0.9160
 6114TIP3    H239834   0.317   0.822   1.503 -0.9766 -1.3673  0.1076
 6115TIP3   OH239835   3.404   0.775   0.715  0.2106  0.0376 -0.2407
 6115TIP3    H139836   3.442   0.718   0.782 -0.5388  0.3760  0.4880
 6115TIP3    H239837   3.329   0.727   0.682  0.3865  0.0151 -0.6183
 6116TIP3   OH239838   5.041   0.447  11.464  0.4405 -0.4314  0.6448
 6116TIP3    H139839   5.021   0.358  11.491  0.2185 -0.2042  1.2375
 6116TIP3    H239840   5.015   0.450  11.372  1.7236 -1.3759  0.2184
 6117TIP3   OH239841   5.916   1.929   4.142 -0.7208  0.1864 -0.6085
 6117TIP3    H139842   5.955   1.992   4.081 -0.4051 -0.8815 -1.5459
 6117TIP3    H239843   5.988   1.870   4.163 -1.1671 -0.2178 -0.2172
 6118TIP3   OH239844   1.217   3.671   5.076 -0.9648  0.3310  0.1532
 6118TIP3    H139845   1.193   3.594   5.128 -3.9018  1.4903  0.6797
 6118TIP3    H239846   1.311   3.659   5.059 -1.1334 -3.0242  0.7311
 6119TIP3   OH239847   5.751   6.366  12.568 -0.3174 -0.2823  0.0009
 6119TIP3    H139848   5.687   6.366  12.497  0.7200 -1.8759 -1.0109
 6119TIP3    H239849   5.744   6.279  12.606  0.9753 -0.3511  0.1171
 6120TIP3   OH239850   4.766   3.400  13.188  0.4636  0.1557 -0.0367
 6120TIP3    H139851   4.773   3.465  13.257  0.6212  1.6932 -1.4333
 6120TIP3    H239852   4.850   3.402  13.144 -0.0704  0.1707 -1.0927
 6121TIP3   OH239853   0.255   5.158   1.095  0.5258 -0.0545  0.0464
 6121TIP3    H139854   0.296   5.150   1.181  0.5535 -0.5425 -0.0101
 6121TIP3    H239855   0.277   5.076   1.050 -1.7147 -0.9869  0.5402
 6122TIP3   OH239856   2.084   2.809  14.615  0.4594 -0.2630 -0.0252
 6122TIP3    H139857   2.050   2.763  14.693 -0.5200  0.7616  0.1773
 6122TIP3    H239858   2.023   2.881  14.602  1.1166  0.0865 -1.2459
 6123TIP3   OH239859   1.485   2.152  10.412 -0.1223  0.1884  0.0538
 6123TIP3    H139860   1.530   2.173  10.329 -0.5178 -0.1248 -0.2430
 6123TIP3    H239861   1.556   2.127  10.471  0.1956  0.7155 -0.0921
 6124TIP3   OH239862   4.723   1.179   0.446  0.2399  0.1957  0.1092
 6124TIP3    H139863   4.800   1.197   0.393  0.0204 -2.2826 -1.1786
 6124TIP3    H239864   4.657   1.242   0.416  0.8504  0.3744 -0.8818
 6125TIP3   OH239865   3.129   2.137  12.141 -0.4552 -0.6770  0.3582
 6125TIP3    H139866   3.223   2.123  12.150 -0.2233 -0.2128 -1.1301
 6125TIP3    H239867   3.106   2.096  12.058 -1.6840 -1.2376  0.9446
 6126TIP3   OH239868   6.771   4.458  17.057 -0.1949  0.4744  0.2730
 6126TIP3    H139869   6.707   4.470  16.987 -1.6941  0.5006  1.5872
 6126TIP3    H239870   6.808   4.545  17.071 -0.8986  0.7508  0.4341
 6127TIP3   OH239871   2.071   1.494  15.239  0.1116  0.5433 -0.0987
 6127TIP3    H139872   2.070   1.422  15.176  1.0081  0.7576 -0.3721
 6127TIP3    H239873   2.161   1.526  15.237 -0.0522  1.0691  0.7114
 6128TIP3   OH239874   0.416   6.493   4.424  0.1746 -0.1616 -0.5726
 6128TIP3    H139875   0.479   6.552   4.382 -0.9371  0.4798 -1.4026
 6128TIP3    H239876   0.422   6.412   4.374  1.6420 -0.7426  0.5120
 6129TIP3   OH239877   3.459   4.207   0.665  1.0381  0.2925 -0.3226
 6129TIP3    H139878   3.419   4.219   0.579  1.2720 -0.4066 -0.5354
 6129TIP3    H239879   3.398   4.148   0.711  3.0134 -2.9882 -1.5610
 6130TIP3   OH239880   6.439   4.945  17.206 -0.6047 -0.4476 -0.7960
 6130TIP3    H139881   6.429   5.019  17.146  1.8692  0.5285 -0.1383
 6130TIP3    H239882   6.353   4.935  17.247 -0.8917  2.4298 -0.5211
 6131TIP3   OH239883   3.492   0.854   4.719 -0.3448  0.6222 -0.3101
 6131TIP3    H139884   3.509   0.894   4.805 -0.1715 -0.1514  0.0212
 6131TIP3    H239885   3.418   0.795   4.734 -0.6059  0.8236 -0.7984
 6132TIP3   OH239886   4.255   5.362  16.669  1.2052 -0.0378  0.6930
 6132TIP3    H139887   4.296   5.288  16.623  0.8510  0.4533 -0.4426
 6132TIP3    H239888   4.268   5.436  16.610 -2.1204 -0.0238 -0.1884
 6133TIP3   OH239889   0.334   1.959   4.608 -0.4893 -0.2394 -0.2797
 6133TIP3    H139890   0.277   1.989   4.679  0.7403 -1.4784  1.3232
 6133TIP3    H239891   0.357   1.869   4.633  2.0802  0.1803 -0.8846
 6134TIP3   OH239892   1.366   0.061   3.931 -0.1569 -0.1795  0.2184
 6134TIP3    H139893   1.283   0.104   3.954 -1.1037 -0.9783 -1.5320
 6134TIP3    H239894   1.340  -0.014   3.877  1.6337 -1.2970  0.8283
 6135TIP3   OH239895   5.035   4.457  11.432  0.4155  0.2396 -0.0465
 6135TIP3    H139896   5.044   4.471  11.526 -0.4192  0.1867  0.0497
 6135TIP3    H239897   5.074   4.371  11.417  1.3901  0.6431  0.0925
 6136TIP3   OH239898   5.164   4.187   1.708  0.6556 -0.0211  0.2195
 6136TIP3    H139899   5.247   4.140   1.711  1.1628  0.8460  0.2553
 6136TIP3    H239900   5.098   4.123   1.735  1.5142 -0.2836  1.8454
 6137TIP3   OH239901   0.045   6.461  14.642 -0.1391 -0.4620  0.1976
 6137TIP3    H139902   0.067   6.440  14.733 -1.2421 -2.4932  0.0845
 6137TIP3    H239903  -0.012   6.537  14.648  1.6165  0.8422  0.9800
 6138TIP3   OH239904   3.520   2.876   2.946  0.0970 -0.9194  0.0548
 6138TIP3    H139905   3.500   2.884   3.039  0.8805  0.4493  0.1195
 6138TIP3    H239906   3.469   2.800   2.917 -3.6847  1.1639  0.6231
 6139TIP3   OH239907   1.211   3.765  12.291 -0.1096 -0.0765  0.4669
 6139TIP3    H139908   1.193   3.672  12.305  0.3700 -0.2875 -0.2210
 6139TIP3    H239909   1.170   3.785  12.206  0.5605  0.0980  0.1742
 6140TIP3   OH239910   2.340   5.566   3.251  0.1467  0.6249  0.2519
 6140TIP3    H139911   2.348   5.505   3.178 -2.5471  0.7870 -0.2818
 6140TIP3    H239912   2.356   5.512   3.329 -1.3697 -0.6348 -0.2561
 6141TIP3   OH239913   6.813   2.888   5.666 -0.1528 -0.0762 -0.0004
 6141TIP3    H139914   6.832   2.830   5.739 -1.2941 -0.4671  0.0058
 6141TIP3    H239915   6.737   2.939   5.695 -0.4657 -0.0657 -0.8070
 6142TIP3   OH239916   5.778   6.763  15.962  0.5302  0.1206  0.3875
 6142TIP3    H139917   5.822   6.679  15.973 -0.9709 -0.8267 -0.5442
 6142TIP3    H239918   5.848   6.827  15.967  1.7511 -1.1936  0.8521
 6143TIP3   OH239919   5.397   2.421   6.711 -0.0057  0.5885 -0.8307
 6143TIP3    H139920   5.389   2.506   6.755  0.5661  0.8054 -1.1300
 6143TIP3    H239921   5.400   2.357   6.782  1.3165  0.9660 -0.5107
 6144TIP3   OH239922   4.024   5.909   6.522 -0.0301 -0.2821  0.2343
 6144TIP3    H139923   4.071   5.831   6.490 -2.0336 -2.8193  2.8990
 6144TIP3    H239924   3.932   5.885   6.515 -0.7287  1.9900  0.9989
 6145TIP3   OH239925   5.298   6.578   2.879 -0.0200 -0.0329  0.0915
 6145TIP3    H139926   5.348   6.496   2.885  0.2367  0.1860  0.9888
 6145TIP3    H239927   5.212   6.557   2.915  0.0221  0.0737  0.2540
 6146TIP3   OH239928   3.766   3.103  12.178  0.3018 -0.2326 -0.0193
 6146TIP3    H139929   3.720   3.032  12.131  0.1571  0.0787 -0.3578
 6146TIP3    H239930   3.794   3.163  12.109  2.8237 -1.2925 -0.0152
 6147TIP3   OH239931   4.126   0.619  16.504 -0.5386  0.4942 -0.5983
 6147TIP3    H139932   4.171   0.597  16.423 -0.9787 -1.0032 -0.4761
 6147TIP3    H239933   4.109   0.534  16.546 -1.9390  1.1170  0.1786
 6148TIP3   OH239934   1.312   2.444   3.256 -0.1280  0.2362  0.6868
 6148TIP3    H139935   1.290   2.377   3.191  0.2181  0.3911  0.4079
 6148TIP3    H239936   1.247   2.432   3.325 -0.4807  0.0502  0.3261
 6149TIP3   OH239937   4.743   3.536   0.167  0.4387 -0.6428 -0.4044
 6149TIP3    H139938   4.688   3.591   0.112  1.0120 -0.8920 -1.2513
 6149TIP3    H239939   4.752   3.585   0.249  2.1483  1.2648 -1.6453
 6150TIP3   OH239940   2.771   2.413  12.948 -0.5239  0.1941 -0.2345
 6150TIP3    H139941   2.749   2.325  12.917 -0.2509 -0.2563  0.7955
 6150TIP3    H239942   2.809   2.399  13.035  1.6876  1.1447 -0.9837
 6151TIP3   OH239943   4.783   4.913  15.468 -0.0994  0.4868 -0.1043
 6151TIP3    H139944   4.700   4.918  15.422  0.0851  1.0551 -0.3796
 6151TIP3    H239945   4.846   4.886  15.401  0.2401  1.6907 -0.2959
 6152TIP3   OH239946   0.584   4.963  16.972  0.2649 -0.0557  0.3168
 6152TIP3    H139947   0.499   4.935  16.939  0.0669 -0.6588  1.2874
 6152TIP3    H239948   0.641   4.887  16.958  0.7380  0.4573 -0.6268
 6153TIP3   OH239949   1.834   6.194  14.576 -0.0066  0.7242 -0.4409
 6153TIP3    H139950   1.899   6.230  14.515  2.1095 -1.0654  0.6277
 6153TIP3    H239951   1.883   6.178  14.656 -1.7937 -0.6904  0.4402
 6154TIP3   OH239952   0.407   1.316  13.855 -0.0414  0.4102 -0.4071
 6154TIP3    H139953   0.405   1.313  13.760  0.8566  1.5899 -0.4931
 6154TIP3    H239954   0.498   1.299  13.878 -0.1598  0.5858  0.2167
 6155TIP3   OH239955   3.711   4.101   3.870  0.3245  0.2689 -0.1112
 6155TIP3    H139956   3.722   4.087   3.776  0.6552 -1.0011  0.0897
 6155TIP3    H239957   3.632   4.052   3.892  1.3588 -1.1614  0.5973
 6156TIP3   OH239958   4.560   5.295   0.371  0.5815  0.0931  0.7880
 6156TIP3    H139959   4.537   5.282   0.279  0.5069  0.7028  0.7157
 6156TIP3    H239960   4.496   5.358   0.404  1.2263  0.6624  0.9801
 6157TIP3   OH239961   0.287   5.970  13.069  0.1327 -0.1746 -0.4402
 6157TIP3    H139962   0.332   5.887  13.058 -0.2331 -0.4919  0.4375
 6157TIP3    H239963   0.335   6.031  13.013 -0.1527 -1.1699 -1.8150
 6158TIP3   OH239964   2.595   2.177  11.838 -0.2525 -0.2384  0.2442
 6158TIP3    H139965   2.656   2.103  11.830 -0.0149  0.1280 -2.3628
 6158TIP3    H239966   2.575   2.201  11.747 -3.3113  0.4759  0.9867
 6159TIP3   OH239967   6.357   0.524   4.062  0.2449  0.7496 -0.4753
 6159TIP3    H139968   6.406   0.528   4.144 -0.1838 -0.9847 -0.1048
 6159TIP3    H239969   6.325   0.614   4.049 -0.5397  0.8413  1.7799
 6160TIP3   OH239970   3.859   0.570  16.725 -0.0425  0.6190 -0.0538
 6160TIP3    H139971   3.947   0.534  16.729 -0.3769 -0.1457  0.7329
 6160TIP3    H239972   3.864   0.653  16.773  0.1013  0.2646  0.5418
 6161TIP3   OH239973   2.581   6.765  14.344  0.0137  0.4321 -0.4367
 6161TIP3    H139974   2.635   6.696  14.305  0.7209 -0.1529  1.4224
 6161TIP3    H239975   2.491   6.733  14.334  0.3852 -1.6230  1.6924
 6162TIP3   OH239976   3.200   5.585  11.292 -0.5922 -0.3184 -0.4141
 6162TIP3    H139977   3.228   5.612  11.380 -0.5651  0.3274 -0.6235
 6162TIP3    H239978   3.203   5.489  11.295  0.2938 -0.2853  0.0056
 6163TIP3   OH239979   5.693   6.368   1.949 -0.3253  0.2115  0.4129
 6163TIP3    H139980   5.605   6.370   1.912 -0.1583 -0.0541  0.0086
 6163TIP3    H239981   5.751   6.388   1.876 -0.1056  1.2728  0.8574
 6164TIP3   OH239982   5.447   6.465   4.169 -0.2834  0.2493 -0.6255
 6164TIP3    H139983   5.470   6.493   4.081  0.5976  1.2813 -0.0903
 6164TIP3    H239984   5.491   6.528   4.227 -1.3331 -0.0475  0.5400
 6165TIP3   OH239985   5.513   3.188  16.874  0.9232  0.6572 -0.4093
 6165TIP3    H139986   5.494   3.167  16.965  0.6386 -1.1703 -0.8446
 6165TIP3    H239987   5.459   3.265  16.856 -2.0074 -1.1241 -0.0266
 6166TIP3   OH239988   2.212   1.334   2.249  0.4874  0.6866  0.2283
 6166TIP3    H139989   2.285   1.293   2.204 -0.9520 -3.9967  1.6568
 6166TIP3    H239990   2.207   1.289   2.333 -4.3609  0.1697 -0.0527
 6167TIP3   OH239991   5.721   2.692  16.090  0.0276 -0.1368  0.1290
 6167TIP3    H139992   5.791   2.712  16.152 -0.4947  0.3305  0.5730
 6167TIP3    H239993   5.716   2.596  16.089 -0.6474 -0.1364  1.5894
 6168TIP3   OH239994   2.129   5.873   3.961 -0.2514 -0.0702  0.1153
 6168TIP3    H139995   2.156   5.939   3.897 -1.3994 -2.0092 -2.5717
 6168TIP3    H239996   2.185   5.797   3.943 -0.7012 -0.7290  1.3467
 6169TIP3   OH239997   6.733   4.199   3.978  0.4202 -0.4547  0.9469
 6169TIP3    H139998   6.803   4.241   4.029  2.0633  0.1624 -1.6604
 6169TIP3    H239999   6.777   4.128   3.932 -1.0278 -1.0388  0.4171
 6170TIP3   OH240000   6.242   4.963  16.825 -0.0466  0.0300 -0.0909
 6170TIP3    H140001   6.254   5.020  16.748  0.1011 -0.1785 -0.2218
 6170TIP3    H240002   6.148   4.966  16.843 -0.6835 -2.5552 -2.3237
 6171TIP3   OH240003   0.788   2.073  15.211 -1.0033  0.2788  1.1012
 6171TIP3    H140004   0.881   2.056  15.227 -0.7564 -0.1104 -0.6144
 6171TIP3    H240005   0.744   1.994  15.242 -0.6360 -0.0858  0.7035
 6172TIP3   OH240006   3.887   2.238   4.704 -0.9542 -0.1268 -0.5402
 6172TIP3    H140007   3.937   2.161   4.731 -2.2292 -0.7834 -0.0257
 6172TIP3    H240008   3.912   2.251   4.612  0.0908 -0.4795 -0.3241
 6173TIP3   OH240009   6.298   5.706   3.046  0.2142 -0.0250 -0.2130
 6173TIP3    H140010   6.368   5.769   3.025  0.6967  0.0050  1.3626
 6173TIP3    H240011   6.303   5.696   3.141 -0.9527 -1.1906 -0.2545
 6174TIP3   OH240012   0.323   6.283  12.164 -0.0593  0.0092 -0.1120
 6174TIP3    H140013   0.302   6.211  12.224 -1.6034  0.4198 -0.1265
 6174TIP3    H240014   0.419   6.285  12.162  0.0167 -1.5021  0.5360
 6175TIP3   OH240015   3.108   5.890   0.289  0.5844  0.5395  0.0040
 6175TIP3    H140016   3.171   5.945   0.243  0.0955  0.8185 -0.3428
 6175TIP3    H240017   3.156   5.810   0.311  0.9236  0.5501 -0.6831
 6176TIP3   OH240018   5.041   2.485   2.939 -0.5526 -0.2134 -0.1813
 6176TIP3    H140019   5.082   2.424   3.001  0.0739 -0.1470 -0.5226
 6176TIP3    H240020   5.011   2.558   2.992 -2.1962 -1.2433  0.3840
 6177TIP3   OH240021   4.811   6.410  13.723  0.3403 -0.1433 -0.1303
 6177TIP3    H140022   4.725   6.385  13.757  0.2773 -1.2374 -1.0373
 6177TIP3    H240023   4.824   6.500  13.754 -0.7709 -0.2441  0.6871
 6178TIP3   OH240024   2.274   1.792  12.473  0.5462 -0.5595 -0.3349
 6178TIP3    H140025   2.234   1.782  12.387 -2.6404 -3.0375  1.2294
 6178TIP3    H240026   2.331   1.715  12.482 -0.7519 -1.4725  0.4607
 6179TIP3   OH240027   0.605   1.314   5.596  0.5641 -0.3222  0.5161
 6179TIP3    H140028   0.625   1.337   5.505 -1.1716  2.1723  0.6595
 6179TIP3    H240029   0.685   1.334   5.644  1.2997 -1.0879 -0.3673
 6180TIP3   OH240030   6.194   5.499   1.421  0.0894  0.0431 -0.0677
 6180TIP3    H140031   6.172   5.486   1.328 -0.3894  0.0888  0.0379
 6180TIP3    H240032   6.259   5.569   1.420  1.3864 -1.1228 -0.5051
 6181TIP3   OH240033   0.240   0.588  16.307  0.2423  0.4900 -0.0332
 6181TIP3    H140034   0.263   0.655  16.243 -0.7081 -0.4674 -1.4404
 6181TIP3    H240035   0.288   0.613  16.386  1.0138  2.0233 -0.9330
 6182TIP3   OH240036   0.451   3.746  14.186 -0.2098 -0.5122 -0.1029
 6182TIP3    H140037   0.380   3.772  14.126 -0.3992  0.9858  0.7246
 6182TIP3    H240038   0.437   3.800  14.263  0.1781 -2.2386  1.2293
 6183TIP3   OH240039   6.744   1.449  16.937  0.2495 -0.2690 -0.4521
 6183TIP3    H140040   6.665   1.484  16.897 -2.1151 -3.2814  1.1851
 6183TIP3    H240041   6.753   1.361  16.901  2.3090 -0.3574  0.1440
 6184TIP3   OH240042   2.931   5.171   4.482  0.2617 -0.0881 -0.1220
 6184TIP3    H140043   2.959   5.130   4.564  0.1324 -0.3398 -0.2028
 6184TIP3    H240044   2.992   5.136   4.416  0.5594  0.3468 -0.0871
 6185TIP3   OH240045   6.208   4.083  12.075  0.2968  0.0024  0.3133
 6185TIP3    H140046   6.257   4.005  12.050  2.2919  1.2551  0.1067
 6185TIP3    H240047   6.184   4.124  11.992 -1.1587 -0.5883  0.4124
 6186TIP3   OH240048   2.634   5.268   3.274  0.0429  0.2292 -0.2534
 6186TIP3    H140049   2.696   5.271   3.201 -0.2609 -0.0740 -0.5285
 6186TIP3    H240050   2.550   5.295   3.235  0.1121  1.1941  0.2366
 6187TIP3   OH240051   5.227   1.465  14.034 -0.1530  0.3456  0.0278
 6187TIP3    H140052   5.196   1.424  13.953 -0.0402 -1.2477  0.7504
 6187TIP3    H240053   5.244   1.392  14.093 -0.0836  1.4606  1.4540
 6188TIP3   OH240054   2.868   6.068  17.051 -0.3257 -0.4804 -0.4511
 6188TIP3    H140055   2.922   6.067  17.130  1.2577  0.7192 -1.4553
 6188TIP3    H240056   2.794   6.012  17.072  0.3978 -0.7460  1.6341
 6189TIP3   OH240057   6.353   0.858   4.000 -0.2171 -0.0924  0.1187
 6189TIP3    H140058   6.333   0.948   4.023  1.5671  0.5042 -0.4818
 6189TIP3    H240059   6.443   0.845   4.031 -0.5647 -1.7965  0.5360
 6190TIP3   OH240060   4.296   3.880   1.322 -0.0732  0.7509  0.3136
 6190TIP3    H140061   4.315   3.895   1.229 -0.1197 -1.6547 -0.1491
 6190TIP3    H240062   4.382   3.870   1.363 -0.0800  0.6399  0.3012
 6191TIP3   OH240063   6.172   5.376  11.710 -0.7958 -0.1986 -0.7419
 6191TIP3    H140064   6.184   5.317  11.785 -1.5996  2.3236  1.5281
 6191TIP3    H240065   6.258   5.414  11.695 -0.4913 -1.1734 -1.5796
 6192TIP3   OH240066   3.232   2.801  10.682  0.2832  0.1039 -0.2051
 6192TIP3    H140067   3.165   2.736  10.659 -0.9053  1.7394 -1.6950
 6192TIP3    H240068   3.315   2.761  10.656 -0.4405 -0.7225 -1.3348
 6193TIP3   OH240069   5.454   5.221   0.183 -0.4843 -0.3571 -0.1458
 6193TIP3    H140070   5.489   5.142   0.142  0.9293  0.3457 -0.3307
 6193TIP3    H240071   5.367   5.231   0.144 -0.2297 -1.1880 -0.9711
 6194TIP3   OH240072   6.803   6.363   4.766 -0.0521  0.1652  0.8756
 6194TIP3    H140073   6.818   6.431   4.700  1.0113 -0.3044  0.6048
 6194TIP3    H240074   6.708   6.364   4.780 -0.3729 -0.0173 -0.9880
 6195TIP3   OH240075   5.692   3.564   1.301  0.1558 -0.3458  0.2414
 6195TIP3    H140076   5.651   3.651   1.300 -2.3928 -1.4541  0.9256
 6195TIP3    H240077   5.702   3.543   1.208 -0.4832  0.1464  0.0424
 6196TIP3   OH240078   3.356   4.375   6.540 -0.5405 -0.0517  0.2830
 6196TIP3    H140079   3.383   4.378   6.448 -0.4090 -0.8133  0.2888
 6196TIP3    H240080   3.307   4.456   6.553 -1.2064 -0.2821 -0.6626
 6197TIP3   OH240081   2.300   3.379   5.547  0.6135 -0.2048 -0.2999
 6197TIP3    H140082   2.344   3.364   5.631  0.2226 -0.4621 -0.1361
 6197TIP3    H240083   2.251   3.461   5.559 -0.1788 -0.7094  0.0440
 6198TIP3   OH240084   2.283   1.050  13.957  0.0000  0.2138 -0.2489
 6198TIP3    H140085   2.293   1.117  14.025  0.6372  1.0909 -1.1788
 6198TIP3    H240086   2.194   1.017  13.969  0.4211 -0.3505  1.6185
 6199TIP3   OH240087   0.691   3.193  13.633 -0.6381  0.6311 -0.3647
 6199TIP3    H140088   0.650   3.146  13.706 -0.3491  0.3363 -0.3922
 6199TIP3    H240089   0.621   3.201  13.568 -0.6997  0.2713 -0.3460
 6200TIP3   OH240090   6.831   4.318  12.266  0.0519 -0.1429 -0.3322
 6200TIP3    H140091   6.845   4.350  12.355 -0.4049  0.6991 -0.5488
 6200TIP3    H240092   6.886   4.240  12.259 -0.1510 -0.4073  0.7908
 6201TIP3   OH240093   5.316   4.810   1.190  0.0800 -0.2015 -0.0069
 6201TIP3    H140094   5.361   4.729   1.212  0.3512  0.2651  1.2442
 6201TIP3    H240095   5.243   4.783   1.134  0.7776 -1.1776 -0.4639
 6202TIP3   OH240096   3.501   4.525  12.619 -0.0764  0.3068 -0.2618
 6202TIP3    H140097   3.488   4.620  12.613  1.6687  0.4840 -2.4654
 6202TIP3    H240098   3.419   4.488  12.587  0.4442  1.1898 -2.8715
 6203TIP3   OH240099   2.876   5.966  12.651  0.3282 -0.3160 -0.3565
 6203TIP3    H140100   2.787   5.977  12.684  0.1621 -1.6744 -0.2704
 6203TIP3    H240101   2.932   6.000  12.720 -0.1283  1.5611 -0.8657
 6204TIP3   OH240102   2.700   3.972  16.374  0.2605  0.5329  0.3834
 6204TIP3    H140103   2.693   3.881  16.403 -2.5226  0.9498  1.2872
 6204TIP3    H240104   2.646   4.022  16.436  1.6321  2.8208 -0.1313
 6205TIP3   OH240105   6.532   3.928   3.699  0.0164  0.6860  0.3192
 6205TIP3    H140106   6.482   3.862   3.747 -1.5755  0.6736 -1.2656
 6205TIP3    H240107   6.536   4.003   3.758 -0.5075  0.1280  1.0790
 6206TIP3   OH240108   5.761   5.551  16.766 -0.8629  0.1451 -0.3092
 6206TIP3    H140109   5.751   5.481  16.702 -1.3545  0.4305 -0.5552
 6206TIP3    H240110   5.673   5.562  16.803 -0.4031 -0.6522  1.1086
 6207TIP3   OH240111   3.933   2.311  17.186 -0.6088 -0.4122  0.0401
 6207TIP3    H140112   3.914   2.245  17.252  0.1224 -2.3870 -1.6180
 6207TIP3    H240113   3.963   2.387  17.236 -0.3821 -1.7129  1.9710
 6208TIP3   OH240114   0.034   4.297  13.667  0.1891  0.2049  0.5267
 6208TIP3    H140115   0.038   4.278  13.761  0.1975 -0.0968  0.4650
 6208TIP3    H240116   0.123   4.281  13.636  0.3469  0.9390  0.5870
 6209TIP3   OH240117   4.877   0.197  16.663  0.4867  0.3567  0.3767
 6209TIP3    H140118   4.877   0.283  16.620 -1.0132  0.3743  0.3639
 6209TIP3    H240119   4.812   0.205  16.733 -0.4517 -1.0663 -0.2735
 6210TIP3   OH240120   2.570   5.426  12.955  0.2672 -0.3153  0.3206
 6210TIP3    H140121   2.618   5.504  12.927  0.9805 -1.0713 -0.6467
 6210TIP3    H240122   2.507   5.458  13.019  0.0029  1.1833 -0.6384
 6211TIP3   OH240123   1.876   4.670   0.579  0.1570 -0.1886  0.0913
 6211TIP3    H140124   1.807   4.735   0.566 -0.7128 -1.1225 -0.1421
 6211TIP3    H240125   1.911   4.689   0.666 -0.6853  0.0512  0.3885
 6212TIP3   OH240126   1.264   3.771   3.336 -0.2954 -0.2665 -0.3641
 6212TIP3    H140127   1.206   3.750   3.409  0.5949  0.1945  0.4962
 6212TIP3    H240128   1.286   3.686   3.297  0.1281 -0.6226  0.6238
 6213TIP3   OH240129   2.413   3.505  10.141  0.1158  0.1325 -0.3431
 6213TIP3    H140130   2.426   3.410  10.147  0.3170  0.2106  0.7792
 6213TIP3    H240131   2.321   3.518  10.164 -1.1348 -0.0877 -4.4686
 6214TIP3   OH240132   1.379   5.046   1.284  0.3650  0.2373  0.6191
 6214TIP3    H140133   1.388   4.958   1.247  1.8416  0.5748  0.1005
 6214TIP3    H240134   1.421   5.040   1.370  2.3562  0.9072 -0.2566
 6215TIP3   OH240135   4.578   3.742   0.630  0.2893  0.6824  0.3628
 6215TIP3    H140136   4.524   3.706   0.559  0.1180 -0.8063  1.1974
 6215TIP3    H240137   4.517   3.794   0.683  0.1956  0.9435  0.0030
 6216TIP3   OH240138   2.514   6.610   5.426 -0.3849 -0.2118 -0.0209
 6216TIP3    H140139   2.565   6.687   5.451 -0.0700  0.2026 -1.7744
 6216TIP3    H240140   2.492   6.626   5.334  0.4036 -2.6180 -0.6805
 6217TIP3   OH240141   4.251   0.487  15.117  0.2424 -0.0754 -0.3131
 6217TIP3    H140142   4.214   0.455  15.200  1.1153  0.4557  0.2939
 6217TIP3    H240143   4.345   0.492  15.133  0.2749  1.4105 -0.8627
 6218TIP3   OH240144   4.714   1.550   1.454 -0.1893  0.3191  0.0764
 6218TIP3    H140145   4.716   1.470   1.507 -1.7157 -1.2912 -2.1212
 6218TIP3    H240146   4.629   1.548   1.411 -0.5069  3.4671  0.3192
 6219TIP3   OH240147   1.225   2.161  12.389 -0.4860 -0.3409  0.0306
 6219TIP3    H140148   1.318   2.179  12.380 -0.4732  0.2854  1.1654
 6219TIP3    H240149   1.213   2.074  12.351  1.1087 -1.7021  2.3735
 6220TIP3   OH240150   2.963   1.193   5.270 -0.0361  0.2649  0.6355
 6220TIP3    H140151   2.940   1.129   5.202  1.3668  1.2873 -0.9015
 6220TIP3    H240152   2.890   1.256   5.270  0.1318  0.4758 -0.2458
 6221TIP3   OH240153   5.157   5.946  11.484 -0.3311 -0.0008  0.2020
 6221TIP3    H140154   5.116   5.894  11.415 -1.8233 -0.5415  1.4622
 6221TIP3    H240155   5.225   5.996  11.438 -0.3759 -1.3361 -1.4217
 6222TIP3   OH240156   2.095   0.681   2.436 -0.3826  0.4981  0.1230
 6222TIP3    H140157   2.063   0.651   2.351 -2.0242 -0.6750  1.0927
 6222TIP3    H240158   2.054   0.622   2.499  0.1174  1.8578  1.8013
 6223TIP3   OH240159   3.616   6.217   4.116 -0.4600 -0.0477 -0.1945
 6223TIP3    H140160   3.709   6.210   4.139 -0.5863  1.8123  1.1091
 6223TIP3    H240161   3.616   6.258   4.029 -0.0691 -0.8999 -0.6061
 6224TIP3   OH240162   3.641   0.571   3.900  0.0478  0.4222  0.1784
 6224TIP3    H140163   3.690   0.542   3.977 -0.0260 -1.6014 -0.4917
 6224TIP3    H240164   3.549   0.558   3.923  0.0591 -1.3933 -0.6539
 6225TIP3   OH240165   1.643   4.082   3.165  0.5544 -0.1860  0.3703
 6225TIP3    H140166   1.559   4.072   3.211  1.1499  0.3398  1.6274
 6225TIP3    H240167   1.678   3.993   3.161  0.1929 -0.3308  0.3381
 6226TIP3   OH240168   3.134   5.765   1.242  0.7007  0.6056  0.8298
 6226TIP3    H140169   3.221   5.767   1.282  0.1789 -0.7473  2.1304
 6226TIP3    H240170   3.078   5.726   1.309 -0.2402 -1.7677 -1.1844
 6227TIP3   OH240171   5.110   0.846   2.885  0.6308  0.0155  0.4143
 6227TIP3    H140172   5.097   0.891   2.802  1.3927 -0.3290  0.1010
 6227TIP3    H240173   5.085   0.911   2.951  1.0374  0.6582 -0.0505
 6228TIP3   OH240174   1.559   1.354   5.515 -0.3027  0.0035 -0.2246
 6228TIP3    H140175   1.467   1.374   5.527 -0.2750 -0.4685  0.9213
 6228TIP3    H240176   1.565   1.321   5.426 -1.3621 -0.5827 -0.0963
 6229TIP3   OH240177   6.345   0.400   5.273 -0.2433  0.0124  0.1621
 6229TIP3    H140178   6.330   0.413   5.179  1.4007  0.0185 -0.1297
 6229TIP3    H240179   6.440   0.393   5.281 -0.2921  0.8351  1.9325
 6230TIP3   OH240180   2.531   2.534  14.156  0.3741  0.3721 -0.7104
 6230TIP3    H140181   2.502   2.455  14.110 -1.3418 -0.0673  0.9882
 6230TIP3    H240182   2.493   2.606  14.105 -1.6488 -0.1081  0.0402
 6231TIP3   OH240183   4.410   2.187   6.233 -0.2348 -0.0656 -0.0893
 6231TIP3    H140184   4.327   2.186   6.281 -0.8183 -2.6433 -0.9671
 6231TIP3    H240185   4.477   2.172   6.299 -0.8126 -1.3393  0.2283
 6232TIP3   OH240186   2.249   2.756   4.591 -0.3132 -0.4956  0.4104
 6232TIP3    H140187   2.209   2.812   4.658  1.0996  0.7254  0.2855
 6232TIP3    H240188   2.317   2.707   4.637 -0.2333 -0.6508  0.1274
 6233TIP3   OH240189   2.822   0.241  14.411  0.7540 -0.7489 -0.6652
 6233TIP3    H140190   2.838   0.315  14.469  0.5853 -0.6784 -0.7074
 6233TIP3    H240191   2.767   0.277  14.341 -1.4701 -1.4816  0.6300
 6234TIP3   OH240192   3.195   6.072   1.390  0.7117  0.2691  0.2336
 6234TIP3    H140193   3.249   5.998   1.418 -0.4239 -0.5431  0.3544
 6234TIP3    H240194   3.253   6.148   1.395  1.5168 -0.3980  1.4407
 6235TIP3   OH240195   2.890   5.958   1.421 -0.3991  0.3044  0.0625
 6235TIP3    H140196   2.984   5.955   1.400 -0.4179  1.0201 -0.1602
 6235TIP3    H240197   2.847   5.937   1.338 -0.4414 -0.3460  0.2408
 6236TIP3   OH240198   1.207   5.730   2.377  0.2957  0.4465 -0.2320
 6236TIP3    H140199   1.174   5.665   2.440  1.2582  0.9671  0.8364
 6236TIP3    H240200   1.129   5.755   2.327 -0.1990 -1.1333 -0.3201
 6237TIP3   OH240201   2.171   2.304  10.667  0.1289  0.0987 -0.0623
 6237TIP3    H140202   2.173   2.400  10.665 -0.2339  0.1041 -0.3863
 6237TIP3    H240203   2.090   2.282  10.621 -0.0766 -0.3476  0.5143
 6238TIP3   OH240204   0.592   5.463   5.823 -0.2723 -0.3024  0.8023
 6238TIP3    H140205   0.570   5.488   5.733  1.1866 -1.5286  0.0533
 6238TIP3    H240206   0.525   5.399   5.846 -1.3392  0.8721  1.0468
 6239TIP3   OH240207   3.059   0.008   1.032  0.0917  0.7331  0.2827
 6239TIP3    H140208   3.009  -0.001   1.113 -1.3461  0.2976 -0.6217
 6239TIP3    H240209   3.060  -0.080   0.994 -0.4724  1.2099 -0.8692
 6240TIP3   OH240210   1.358   5.232  15.200 -0.1894 -0.1059 -0.3041
 6240TIP3    H140211   1.346   5.306  15.259 -0.9049  0.0123 -0.5847
 6240TIP3    H240212   1.365   5.156  15.258 -2.6430 -0.2261 -0.0797
 6241TIP3   OH240213   4.235   6.536   2.429  0.1943 -0.3966 -0.4034
 6241TIP3    H140214   4.176   6.611   2.422  1.3103  0.4653 -0.9822
 6241TIP3    H240215   4.288   6.541   2.349  2.8612  0.4553  1.3059
 6242TIP3   OH240216   0.985   2.505  13.376  0.0027 -0.1840  0.0317
 6242TIP3    H140217   0.967   2.575  13.439  1.2540  0.1042  0.1068
 6242TIP3    H240218   1.042   2.445  13.423 -0.3201 -0.7853 -0.3327
 6243TIP3   OH240219   5.639   3.328  12.172  0.3832  0.8385 -0.0551
 6243TIP3    H140220   5.715   3.383  12.192  0.3397  2.3764 -3.3637
 6243TIP3    H240221   5.673   3.238  12.174  1.4840  1.2496  1.5596
 6244TIP3   OH240222   5.845   1.050   2.939 -0.3704  0.0792  0.3281
 6244TIP3    H140223   5.771   1.001   2.901  0.3765  0.0028 -1.0999
 6244TIP3    H240224   5.857   1.124   2.880 -0.1294  0.8181  1.2931
 6245TIP3   OH240225   1.180   0.044  16.180  0.4329  0.0602 -0.1426
 6245TIP3    H140226   1.140   0.114  16.232  0.2172  0.0906 -0.3502
 6245TIP3    H240227   1.177   0.075  16.090 -0.7486 -0.7064 -0.3954
 6246TIP3   OH240228   6.781   4.614  14.149  0.1001  0.5444 -0.5966
 6246TIP3    H140229   6.787   4.652  14.061 -0.8455  1.1846 -0.4065
 6246TIP3    H240230   6.862   4.642  14.192 -0.0406  1.3739 -0.8426
 6247TIP3   OH240231   5.963   1.482  16.927 -0.6261  0.6977 -0.1482
 6247TIP3    H140232   5.952   1.576  16.941  0.2405  0.9724 -1.1889
 6247TIP3    H240233   5.986   1.448  17.013  0.4618  1.6674 -0.0344
 6248TIP3   OH240234   1.453   6.776  14.903  0.1296  0.4957  0.1878
 6248TIP3    H140235   1.497   6.709  14.850 -0.0610 -0.4182  1.1588
 6248TIP3    H240236   1.512   6.790  14.977 -0.9285 -0.3693  1.2421
 6249TIP3   OH240237   6.600   6.244   5.769 -0.0604  0.3755 -0.1178
 6249TIP3    H140238   6.509   6.261   5.747 -1.0709 -1.4939  2.2079
 6249TIP3    H240239   6.598   6.213   5.859  2.8742  0.0295 -0.0598
 6250TIP3   OH240240   0.632   5.163   0.539 -0.7507  0.2437  0.0516
 6250TIP3    H140241   0.656   5.152   0.631  1.8616 -0.4832 -0.6344
 6250TIP3    H240242   0.645   5.076   0.501 -2.2112  0.4311 -0.9735
 6251TIP3   OH240243   1.798   1.587   4.737  0.1181  0.3277 -0.0892
 6251TIP3    H140244   1.850   1.665   4.717 -0.1908 -0.3774 -4.5323
 6251TIP3    H240245   1.858   1.514   4.721 -0.7460 -0.4097  0.0050
 6252TIP3   OH240246   6.750   1.361  17.203 -0.1291  0.0934  0.3027
 6252TIP3    H140247   6.741   1.362  17.108 -1.2845 -0.2210  0.3958
 6252TIP3    H240248   6.843   1.345  17.218  0.1078  0.4016 -0.7702
 6253TIP3   OH240249   2.945   2.708   2.012  0.3584 -0.1874  0.5009
 6253TIP3    H140250   3.022   2.656   2.035  1.3261  1.2788  0.7115
 6253TIP3    H240251   2.870   2.654   2.038  1.3489 -0.6471  2.5383
 6254TIP3   OH240252   3.819   4.312   2.701 -0.6348 -0.1499 -0.0227
 6254TIP3    H140253   3.895   4.284   2.753  0.3888 -0.7792 -1.7589
 6254TIP3    H240254   3.746   4.306   2.762  0.2358 -2.4609  0.9431
 6255TIP3   OH240255   1.103   5.075  16.444 -0.8033 -0.2072 -0.1246
 6255TIP3    H140256   1.013   5.073  16.476 -0.9887  0.8079 -0.5234
 6255TIP3    H240257   1.151   5.018  16.503 -1.1947  1.3217  1.7908
 6256TIP3   OH240258   6.210   4.520   4.097 -0.4845 -0.0997 -0.7981
 6256TIP3    H140259   6.279   4.578   4.129  3.2827 -3.9044 -1.1880
 6256TIP3    H240260   6.185   4.467   4.172 -2.5511  0.6664 -0.8691
 6257TIP3   OH240261   5.526   1.404   4.999  0.0923  0.2066 -0.0178
 6257TIP3    H140262   5.432   1.398   5.013  0.0037 -0.8981 -0.9987
 6257TIP3    H240263   5.548   1.327   4.948  1.3107  1.1625 -1.0028
 6258TIP3   OH240264   2.453   1.233  13.041  0.7543 -0.8545 -0.3142
 6258TIP3    H140265   2.455   1.317  13.087 -0.7837 -0.1884 -1.3425
 6258TIP3    H240266   2.531   1.234  12.986  0.5760  0.0978 -0.5828
 6259TIP3   OH240267   6.815   5.822   6.286  0.4738  0.2319  0.1819
 6259TIP3    H140268   6.898   5.867   6.268 -0.3184  2.4168  1.5451
 6259TIP3    H240269   6.754   5.892   6.308 -1.0853 -1.4625  1.6443
 6260TIP3   OH240270   4.845   5.740   5.485  0.4979 -0.4319 -0.4388
 6260TIP3    H140271   4.882   5.726   5.573 -0.8113 -0.9736  0.0494
 6260TIP3    H240272   4.774   5.803   5.499 -0.0339 -0.8975 -1.0264
 6261TIP3   OH240273   6.727   1.466  13.842  0.0452  0.3470 -0.1774
 6261TIP3    H140274   6.678   1.389  13.869  1.9858 -0.6548  0.6591
 6261TIP3    H240275   6.729   1.462  13.747 -0.2789 -0.3610 -0.1577
 6262TIP3   OH240276   6.823   4.219  14.364 -0.1178 -0.4839 -0.9788
 6262TIP3    H140277   6.779   4.298  14.396  0.9929  0.2328 -1.1835
 6262TIP3    H240278   6.846   4.171  14.443 -0.6954 -0.5615 -0.8505
 6263TIP3   OH240279   2.176   4.669  14.184  0.1462  0.3104  1.2326
 6263TIP3    H140280   2.221   4.754  14.186 -1.3362  1.1489  0.3414
 6263TIP3    H240281   2.203   4.626  14.265  1.3918  1.3759  1.4122
 6264TIP3   OH240282   3.495   0.356  12.862 -0.3687  0.7008 -0.4322
 6264TIP3    H140283   3.496   0.335  12.956  1.4398 -0.5903 -0.6755
 6264TIP3    H240284   3.501   0.452  12.859  3.1123  0.6721  0.8834
 6265TIP3   OH240285   5.993   2.519  14.266  0.1574  0.1440  0.1849
 6265TIP3    H140286   5.941   2.524  14.187  0.7052 -2.3871 -0.4527
 6265TIP3    H240287   6.045   2.439  14.255  0.0761 -0.4484  3.1742
 6266TIP3   OH240288   1.724   3.220  12.494 -0.1346  0.3513 -1.0530
 6266TIP3    H140289   1.768   3.304  12.506  2.0037 -0.9562  1.3264
 6266TIP3    H240290   1.661   3.215  12.566  1.3930 -0.9355  0.2888
 6267TIP3   OH240291   3.429   1.518   3.160  0.2437 -0.1368 -0.2590
 6267TIP3    H140292   3.385   1.545   3.080  0.6501 -0.4503 -0.5917
 6267TIP3    H240293   3.466   1.432   3.140 -1.2771 -1.1154  0.8663
 6268TIP3   OH240294   0.584   3.785  13.668  0.1402  0.3414  0.3230
 6268TIP3    H140295   0.555   3.849  13.733 -0.1800  1.3837 -0.8044
 6268TIP3    H240296   0.576   3.831  13.585  0.3564 -1.0290 -0.4762
 6269TIP3   OH240297   5.095   5.516   2.542 -0.1665  0.3540  0.4362
 6269TIP3    H140298   5.179   5.557   2.520 -0.8523  1.6804  0.1536
 6269TIP3    H240299   5.077   5.457   2.469  0.9171 -0.6293  0.9222
 6270TIP3   OH240300   0.182   0.700   0.263 -0.2556 -0.0669 -0.3225
 6270TIP3    H140301   0.143   0.723   0.348  1.3468  0.3071  0.3563
 6270TIP3    H240302   0.224   0.615   0.278  0.1958  0.0883 -0.6717
 6271TIP3   OH240303   3.175   2.757   2.828 -0.0858  0.0609 -0.1932
 6271TIP3    H140304   3.140   2.746   2.916  0.6935 -2.6378 -0.1102
 6271TIP3    H240305   3.099   2.777   2.774 -1.2073 -1.7807  0.5890
 6272TIP3   OH240306   0.010   5.932   0.331  0.0600 -0.1059 -0.2495
 6272TIP3    H140307   0.050   5.961   0.249  2.2682 -1.2709  0.3536
 6272TIP3    H240308   0.024   5.837   0.333 -1.2219 -0.3003  0.8277
 6273TIP3   OH240309   3.700   4.531  13.073 -0.3394 -0.3117  0.1951
 6273TIP3    H140310   3.698   4.463  13.141  0.6749 -1.2789 -0.7121
 6273TIP3    H240311   3.790   4.562  13.073 -1.0596  2.0572  1.5203
 6274TIP3   OH240312   0.999   5.820  14.334  0.0615 -0.2965  0.3715
 6274TIP3    H140313   1.076   5.840  14.388  0.4011  1.7885 -0.7754
 6274TIP3    H240314   1.001   5.886  14.265 -1.5139 -1.6120 -1.0009
 6275TIP3   OH240315   2.506   2.760   4.362 -0.1862  0.4296 -0.3618
 6275TIP3    H140316   2.512   2.795   4.451  0.0168  0.1546 -0.2678
 6275TIP3    H240317   2.575   2.806   4.313  0.8245 -0.6328  0.0279
 6276TIP3   OH240318   5.342   0.547   2.072  0.1775  0.1216  0.3300
 6276TIP3    H140319   5.368   0.639   2.078  0.0427  0.1188  1.0237
 6276TIP3    H240320   5.378   0.507   2.151  0.8152 -0.5729 -0.2974
 6277TIP3   OH240321   6.772   0.931   5.257 -0.4274  0.2852  0.4993
 6277TIP3    H140322   6.827   1.009   5.265 -0.2316  0.3627 -1.2149
 6277TIP3    H240323   6.801   0.874   5.328  0.5101  1.1295  0.8251
 6278TIP3   OH240324   5.592   0.571   1.918 -0.0020  0.2493  0.4128
 6278TIP3    H140325   5.586   0.612   1.832 -0.5671  2.3566  1.3868
 6278TIP3    H240326   5.584   0.644   1.980  0.3302 -1.2046  2.2558
 6279TIP3   OH240327   0.758   4.070  11.303 -0.0757  0.5445  0.4413
 6279TIP3    H140328   0.769   4.052  11.210 -1.2231  1.7730  0.0509
 6279TIP3    H240329   0.830   4.130  11.325 -0.4379  1.1128  0.0880
 6280TIP3   OH240330   4.721   2.862   6.865 -0.6121 -0.2582 -0.2983
 6280TIP3    H140331   4.670   2.825   6.793  0.2927  0.2916 -1.2346
 6280TIP3    H240332   4.706   2.956   6.859 -0.4856 -0.2060  0.2030
 6281TIP3   OH240333   3.403   5.478  12.225  0.2185  0.0352  0.1976
 6281TIP3    H140334   3.382   5.528  12.146  0.0141  2.0071  1.4199
 6281TIP3    H240335   3.377   5.536  12.297 -0.5143 -2.0749  1.7301
 6282TIP3   OH240336   6.646   6.622  15.884  0.4769  0.1056 -0.0769
 6282TIP3    H140337   6.588   6.578  15.945 -1.0330  0.3373 -1.2890
 6282TIP3    H240338   6.638   6.715  15.907  2.1774 -0.0173  1.2250
 6283TIP3   OH240339   6.733   0.970   0.249  0.1136  0.3519  0.2667
 6283TIP3    H140340   6.722   0.885   0.291 -2.5674 -0.2497 -1.3886
 6283TIP3    H240341   6.669   1.027   0.292  0.4544  0.9745 -0.0288
 6284TIP3   OH240342   0.464   2.483   6.017  0.5694  0.5571 -0.0352
 6284TIP3    H140343   0.418   2.411   5.973 -0.0643  1.5107 -0.9859
 6284TIP3    H240344   0.477   2.452   6.106  2.2520 -1.5977 -0.9464
 6285TIP3   OH240345   1.990   1.981  15.865  0.2011 -0.1446 -0.2805
 6285TIP3    H140346   2.069   1.942  15.829 -0.3176 -1.3080 -0.1939
 6285TIP3    H240347   2.022   2.049  15.924  1.0769  1.0557 -2.0590
 6286TIP3   OH240348   4.107   0.989   5.893 -0.3848 -0.2736  0.1258
 6286TIP3    H140349   4.087   0.900   5.922  0.4185 -0.6203 -0.3529
 6286TIP3    H240350   4.052   1.002   5.816 -0.5190 -0.3482  0.2086
 6287TIP3   OH240351   4.897   2.681   0.092 -0.4656 -0.0129  0.1601
 6287TIP3    H140352   4.992   2.683   0.100 -0.5462  3.2647  1.7023
 6287TIP3    H240353   4.867   2.648   0.177 -0.6932  0.9856  0.4834
 6288TIP3   OH240354   1.168   5.335   5.621 -0.4495  0.2168 -0.1826
 6288TIP3    H140355   1.090   5.350   5.674 -1.0680 -2.7045 -0.0954
 6288TIP3    H240356   1.134   5.321   5.532  0.3365  2.2994 -0.8677
 6289TIP3   OH240357   2.016   6.786   5.868 -0.0286 -0.3336 -0.4350
 6289TIP3    H140358   2.065   6.785   5.950  0.8917 -0.3478 -0.9628
 6289TIP3    H240359   1.935   6.739   5.887 -0.4952  0.9263  0.8450
 6290TIP3   OH240360   4.094   3.297   0.257  0.0142 -0.5380 -0.1094
 6290TIP3    H140361   4.183   3.313   0.290 -0.0807 -0.2625  0.0122
 6290TIP3    H240362   4.104   3.295   0.162 -0.1871  1.6591 -0.2248
 6291TIP3   OH240363   6.810   2.859   2.425 -0.0622  0.2069 -1.6426
 6291TIP3    H140364   6.744   2.904   2.478 -1.3841 -0.4818 -2.6608
 6291TIP3    H240365   6.884   2.848   2.485 -0.7198  1.3063 -0.5717
 6292TIP3   OH240366   2.680   5.762   0.564  0.3539 -0.1314  0.2023
 6292TIP3    H140367   2.679   5.803   0.650  0.5862  0.1630  0.0670
 6292TIP3    H240368   2.765   5.787   0.526  0.1340 -0.0205 -0.2243
 6293TIP3   OH240369   0.418   5.119   1.314  0.0952 -0.5785  0.4209
 6293TIP3    H140370   0.502   5.111   1.360 -1.1925 -1.7123  2.7109
 6293TIP3    H240371   0.375   5.194   1.354 -0.2410 -0.3210 -0.3876
 6294TIP3   OH240372   6.075   0.003  11.197  0.4250 -0.5314  0.7320
 6294TIP3    H140373   6.033   0.077  11.153  1.2420 -0.8418 -0.6656
 6294TIP3    H240374   6.007  -0.037  11.250 -0.1199  1.0055  1.2294
 6295TIP3   OH240375   5.097   1.247   5.896  0.1619  0.4725 -0.7440
 6295TIP3    H140376   5.126   1.258   5.805  1.7794  0.1830 -0.3024
 6295TIP3    H240377   5.174   1.213   5.941 -0.3996  1.2652  0.8785
 6296TIP3   OH240378   5.473   2.605   3.809  0.1135  0.2907 -0.2754
 6296TIP3    H140379   5.520   2.572   3.733  1.2479  2.7666 -0.7543
 6296TIP3    H240380   5.400   2.655   3.772 -0.1681  0.3425  0.3348
 6297TIP3   OH240381   5.250   5.336  13.568 -0.5769  0.2344  0.4530
 6297TIP3    H140382   5.310   5.352  13.641  0.5138 -1.6427  0.0563
 6297TIP3    H240383   5.259   5.242  13.551 -0.8154  0.5948 -2.0569
 6298TIP3   OH240384   2.258   5.961  15.592 -0.1017 -0.0942  0.1741
 6298TIP3    H140385   2.258   5.947  15.686 -0.6474 -1.0117  0.0522
 6298TIP3    H240386   2.166   5.962  15.568  0.0196  0.5558 -0.3013
 6299TIP3   OH240387   5.970   1.267  15.201 -0.1859 -0.3805  0.2047
 6299TIP3    H140388   5.929   1.230  15.123  0.5863 -0.2905 -0.2525
 6299TIP3    H240389   6.017   1.344  15.170  0.5571 -0.6391  0.6592
 6300TIP3   OH240390   5.983   0.602   4.773 -0.0357 -0.2938 -0.5854
 6300TIP3    H140391   5.970   0.523   4.824 -0.2091  0.2836  0.2754
 6300TIP3    H240392   5.964   0.674   4.833 -0.6299  0.3947 -1.5634
 6301TIP3   OH240393   1.927   3.380   5.656  0.5825 -0.0323 -0.2091
 6301TIP3    H140394   1.888   3.439   5.721  1.6224  1.0780 -0.5654
 6301TIP3    H240395   1.853   3.330   5.622 -0.4044  1.3415 -0.1797
 6302TIP3   OH240396   3.885   6.452   5.124 -0.4299 -0.5090 -0.5585
 6302TIP3    H140397   3.825   6.527   5.124 -0.2033 -0.3219 -1.2351
 6302TIP3    H240398   3.939   6.465   5.202 -1.0011 -0.4700 -0.1596
 6303TIP3   OH240399   0.364   1.843   3.969  0.0707  0.2308  0.0490
 6303TIP3    H140400   0.345   1.917   4.027  1.5510  0.9523 -0.3354
 6303TIP3    H240401   0.338   1.766   4.019 -2.3719  1.0195  0.1130
 6304TIP3   OH240402   3.898   3.454  11.747  0.3057 -1.1102 -0.0895
 6304TIP3    H140403   3.955   3.377  11.752  0.5705 -0.9703 -0.8108
 6304TIP3    H240404   3.888   3.470  11.653 -2.1608 -2.0323 -0.0431
 6305TIP3   OH240405   2.558   5.062  15.351 -0.7273  0.6943 -0.3423
 6305TIP3    H140406   2.487   5.059  15.415 -0.4886  0.3687 -0.0927
 6305TIP3    H240407   2.613   5.135  15.379  0.2161 -0.3956  0.7192
 6306TIP3   OH240408   3.265   4.084   1.104  0.1532 -0.0070  0.2096
 6306TIP3    H140409   3.246   4.002   1.148 -3.4543  0.5621  0.0081
 6306TIP3    H240410   3.282   4.146   1.175  1.0800 -0.5241  0.4446
 6307TIP3   OH240411   2.033   2.360   4.137  0.4514  0.0236 -0.0189
 6307TIP3    H140412   2.070   2.413   4.066  0.7325 -0.4850 -0.2543
 6307TIP3    H240413   2.031   2.420   4.212  1.2838  0.2192 -0.1321
 6308TIP3   OH240414   0.940   0.905  13.035  0.1408 -0.0308 -0.1805
 6308TIP3    H140415   0.918   0.939  13.122 -2.2906 -1.2039 -0.2442
 6308TIP3    H240416   0.892   0.962  12.974  1.3160  0.3914 -0.7521
 6309TIP3   OH240417   5.511   4.681   4.598  0.6099 -0.0480 -0.0807
 6309TIP3    H140418   5.548   4.755   4.647 -1.7564  0.4240  1.1691
 6309TIP3    H240419   5.437   4.719   4.550 -0.3104 -1.4806  0.1456
 6310TIP3   OH240420   1.921   2.879   0.010 -0.1916 -0.4746  0.2928
 6310TIP3    H140421   1.862   2.870   0.084 -0.6640  1.3302  0.1927
 6310TIP3    H240422   1.995   2.821   0.030 -0.5674 -0.4247  1.9092
 6311TIP3   OH240423   5.189   2.144  13.671  0.6613 -0.2280 -0.2458
 6311TIP3    H140424   5.234   2.139  13.755  0.0115  0.7078  0.1857
 6311TIP3    H240425   5.097   2.125  13.691  0.3334  0.9135 -0.5600
 6312TIP3   OH240426   5.112   3.518   3.833  0.4561  0.2386 -0.4265
 6312TIP3    H140427   5.116   3.515   3.738 -1.4377  0.5184 -0.5635
 6312TIP3    H240428   5.157   3.600   3.856  0.1005  0.6575 -1.1714
 6313TIP3   OH240429   2.173   5.248   0.810  0.1630 -0.4482  0.0590
 6313TIP3    H140430   2.224   5.275   0.734 -0.7751  1.6193  0.0905
 6313TIP3    H240431   2.087   5.225   0.774  0.0238 -0.4246  0.3721
 6314TIP3   OH240432   4.284   6.141   1.808  0.4981 -0.6334 -0.3636
 6314TIP3    H140433   4.265   6.139   1.902 -0.0511 -0.0784 -0.4570
 6314TIP3    H240434   4.311   6.051   1.787  1.5822 -0.5390  0.5119
 6315TIP3   OH240435   3.474   3.096   1.813  0.2135 -0.2422  0.2285
 6315TIP3    H140436   3.512   3.022   1.861 -0.2820  0.3008  1.5031
 6315TIP3    H240437   3.420   3.055   1.746  0.9221 -1.0278  0.1204
 6316TIP3   OH240438   1.589   2.181  16.740  0.6565 -0.5739  0.2398
 6316TIP3    H140439   1.656   2.206  16.676 -0.9262  1.8939 -0.5679
 6316TIP3    H240440   1.526   2.130  16.690  0.5307 -0.5392  0.3621
 6317TIP3   OH240441   4.451   5.218   2.773 -0.4182 -0.1729 -0.5999
 6317TIP3    H140442   4.402   5.248   2.696 -1.0739 -0.5654 -0.3444
 6317TIP3    H240443   4.400   5.144   2.806 -0.5359  0.4374  0.6245
 6318TIP3   OH240444   5.608   4.851  16.379 -0.7916  0.7542  0.3447
 6318TIP3    H140445   5.578   4.874  16.467 -2.3449  0.6898 -0.1350
 6318TIP3    H240446   5.670   4.779  16.393 -0.7083  1.0124  1.3989
 6319TIP3   OH240447   3.375   5.170   0.555 -0.1189 -1.0548 -0.4004
 6319TIP3    H140448   3.440   5.100   0.563  0.4020 -0.5629 -0.2553
 6319TIP3    H240449   3.293   5.125   0.533  0.4857 -1.5962 -1.6188
 6320TIP3   OH240450   1.647   6.055   5.228  0.1320  0.4311 -0.0441
 6320TIP3    H140451   1.573   6.088   5.278  1.8212  5.9428 -0.4985
 6320TIP3    H240452   1.608   6.019   5.148 -2.1312  2.3444  0.1025
 6321TIP3   OH240453   3.825   0.510  12.872 -0.5407  1.0065 -0.0316
 6321TIP3    H140454   3.872   0.465  12.801 -1.1150  0.5781 -0.1537
 6321TIP3    H240455   3.741   0.535  12.832 -0.9498  0.5758  0.5553
 6322TIP3   OH240456   1.787   3.084   3.516  0.3311  0.9948 -0.0134
 6322TIP3    H140457   1.753   3.173   3.502  0.0958  0.5300 -2.9587
 6322TIP3    H240458   1.864   3.079   3.460  0.0001 -0.8243 -0.3760
 6323TIP3   OH240459   2.158   5.313   3.409  0.3867  0.0472  0.1430
 6323TIP3    H140460   2.119   5.226   3.417  1.2064 -0.3405 -0.0250
 6323TIP3    H240461   2.132   5.359   3.489  2.7395 -1.4833  1.9214
 6324TIP3   OH240462   3.024   5.039   0.321  0.2194  0.2854 -0.0611
 6324TIP3    H140463   2.965   4.973   0.286  0.7005  0.9622 -2.3081
 6324TIP3    H240464   3.108   5.022   0.278  1.3543  0.1567  2.0780
 6325TIP3   OH240465   1.771   2.467   1.650  0.2635  0.5690 -0.2029
 6325TIP3    H140466   1.758   2.470   1.555 -0.3759  1.6181 -0.0906
 6325TIP3    H240467   1.863   2.490   1.662  0.5863 -0.4329 -0.6045
 6326TIP3   OH240468   4.519   6.358   1.427 -0.3983 -0.0537  0.2758
 6326TIP3    H140469   4.483   6.281   1.382 -0.8443 -0.0894  0.6840
 6326TIP3    H240470   4.459   6.373   1.500  0.2771  0.0457  0.8164
 6327TIP3   OH240471   4.092   6.441   4.154  0.1528 -0.2891 -0.1026
 6327TIP3    H140472   4.009   6.468   4.194  0.4078  0.3926 -0.0310
 6327TIP3    H240473   4.105   6.351   4.185 -1.7135 -1.2979 -1.9463
 6328TIP3   OH240474   1.267   2.464  14.682 -0.1261 -0.1277 -0.0064
 6328TIP3    H140475   1.253   2.433  14.771 -1.3920  1.7580  0.5002
 6328TIP3    H240476   1.203   2.415  14.629 -0.6003  0.0459  0.4065
 6329TIP3   OH240477   5.839   0.668  14.531  0.4706  0.0338 -0.1752
 6329TIP3    H140478   5.755   0.643  14.493 -0.7071  1.0636  1.6193
 6329TIP3    H240479   5.817   0.733  14.598  2.5144 -0.8327  1.4538
 6330TIP3   OH240480   3.230   5.885  13.230  0.0659 -0.3743 -0.3804
 6330TIP3    H140481   3.183   5.947  13.287  1.1686 -1.3848  1.7652
 6330TIP3    H240482   3.163   5.822  13.204 -0.5880  0.4294 -0.6901
 6331TIP3   OH240483   0.315   3.480   0.721 -0.5674  0.3759 -0.6336
 6331TIP3    H140484   0.308   3.547   0.653  0.2316  1.1736  0.0435
 6331TIP3    H240485   0.233   3.485   0.770 -0.5072  0.8667 -0.5847
 6332TIP3   OH240486   0.032   2.806  11.973  0.1545 -0.0764 -0.2480
 6332TIP3    H140487   0.116   2.795  12.016  0.0866  0.3034 -0.0095
 6332TIP3    H240488  -0.022   2.734  12.007  0.0544  0.3081  0.4314
 6333TIP3   OH240489   0.812   1.051  13.256 -0.3832 -0.3394  0.3196
 6333TIP3    H140490   0.741   1.115  13.260 -0.1045  0.1103 -1.1369
 6333TIP3    H240491   0.787   0.983  13.319 -1.2123  0.6700  1.1065
 6334TIP3   OH240492   6.781   6.673  14.969 -0.2891 -0.2875 -0.3842
 6334TIP3    H140493   6.789   6.766  14.990 -0.6712 -0.2447 -0.4175
 6334TIP3    H240494   6.740   6.635  15.047  0.8710 -0.6243  0.0771
 6335TIP3   OH240495   4.503   1.662  11.983 -0.2416 -0.3365 -1.0089
 6335TIP3    H140496   4.411   1.662  11.954 -0.0692  1.4649 -1.6881
 6335TIP3    H240497   4.539   1.743  11.946  1.0872  0.0043  0.9092
 6336TIP3   OH240498   3.590   0.608  14.657  0.0674 -0.8174 -0.0562
 6336TIP3    H140499   3.533   0.675  14.695 -0.8839 -0.9197 -1.2438
 6336TIP3    H240500   3.679   0.637  14.677 -0.3609  0.2496  0.3459
 6337TIP3   OH240501   0.979   2.145  11.774  0.0964 -0.0033 -0.5370
 6337TIP3    H140502   1.017   2.063  11.805  1.4510 -0.1844 -2.4430
 6337TIP3    H240503   0.984   2.204  11.849  0.8788 -1.1089  0.3195
 6338TIP3   OH240504   1.255   0.009  12.828 -0.5737  0.3042  0.1022
 6338TIP3    H140505   1.340   0.047  12.807  0.1657 -1.1352  0.3948
 6338TIP3    H240506   1.256  -0.077  12.786 -1.6320  0.0125  0.6371
 6339TIP3   OH240507   2.055   2.875   3.086 -0.0794 -0.3198 -0.3274
 6339TIP3    H140508   2.066   2.794   3.036 -0.8442 -0.4936 -0.2256
 6339TIP3    H240509   1.961   2.894   3.080 -0.1850 -0.3416  1.0268
 6340TIP3   OH240510   6.165   5.870  11.449 -0.0480  0.8344 -0.0531
 6340TIP3    H140511   6.171   5.789  11.398  1.1446  0.0972  1.1954
 6340TIP3    H240512   6.107   5.926  11.397 -0.8120 -0.7523 -1.0164
 6341TIP3   OH240513   2.181   1.633   3.458 -0.0887 -0.5944 -0.2481
 6341TIP3    H140514   2.185   1.589   3.373  0.6782  0.9676 -1.0414
 6341TIP3    H240515   2.088   1.652   3.470 -0.2069 -0.8630 -0.7086
 6342TIP3   OH240516   6.823   6.369   1.509 -0.2583  0.4274 -0.0519
 6342TIP3    H140517   6.897   6.412   1.551  0.2304  0.2351 -0.7008
 6342TIP3    H240518   6.859   6.333   1.427 -1.1053  0.4987 -0.4661
 6343TIP3   OH240519   0.758   4.022  13.478  0.1304  0.3176 -0.0561
 6343TIP3    H140520   0.780   3.998  13.568 -0.0066  0.2008 -0.0533
 6343TIP3    H240521   0.693   3.957  13.451 -0.4074  0.8122  0.0210
 6344TIP3   OH240522   3.982   1.605  14.897 -0.4164  0.1580  0.1398
 6344TIP3    H140523   4.018   1.672  14.840 -1.3800 -0.2697 -1.0214
 6344TIP3    H240524   4.039   1.529  14.885 -0.5199  0.1223 -0.1228
 6345TIP3   OH240525   3.886   1.668  13.072  0.3016 -0.7703 -0.1951
 6345TIP3    H140526   3.846   1.614  13.003 -0.6566  0.3331 -0.5442
 6345TIP3    H240527   3.811   1.699  13.124  0.9186 -0.6085  0.6195
 6346TIP3   OH240528   3.700   2.198  15.349 -0.8524 -0.3312  0.3203
 6346TIP3    H140529   3.605   2.186  15.358 -0.9585  0.2377  0.0437
 6346TIP3    H240530   3.708   2.272  15.289 -0.2662  1.1924  2.1981
 6347TIP3   OH240531   6.507   2.832  15.352 -0.2973  0.2077 -0.3768
 6347TIP3    H140532   6.602   2.841  15.345 -0.0675 -1.2677  0.4987
 6347TIP3    H240533   6.475   2.921  15.366  0.8779  0.8164 -1.4099
 6348TIP3   OH240534   1.143   0.704   5.271 -0.6728 -0.0815 -0.3514
 6348TIP3    H140535   1.129   0.723   5.178  1.0230 -1.3568 -0.9301
 6348TIP3    H240536   1.207   0.633   5.271  1.7326  1.9043  1.8600
 6349TIP3   OH240537   0.600   3.102   0.878  0.0890  0.1428 -0.0817
 6349TIP3    H140538   0.512   3.118   0.843 -0.4241 -1.5212  0.3630
 6349TIP3    H240539   0.586   3.086   0.971  0.9774  0.6425  0.1482
 6350TIP3   OH240540   5.685   0.075   4.950 -0.4353 -0.5343 -0.1363
 6350TIP3    H140541   5.672   0.167   4.972 -0.5897 -0.7980  0.9591
 6350TIP3    H240542   5.614   0.029   4.997  1.0789 -1.4429  1.3665
 6351TIP3   OH240543   5.752   1.176   0.640  0.1070  0.0268  0.2265
 6351TIP3    H140544   5.719   1.136   0.560  0.6357 -0.1187  0.0744
 6351TIP3    H240545   5.679   1.171   0.702 -0.4028  0.4012 -0.3322
 6352TIP3   OH240546   2.561   5.054  16.959  0.3281  0.2354  0.2418
 6352TIP3    H140547   2.591   4.998  17.031  0.7590 -0.5961 -0.5572
 6352TIP3    H240548   2.490   5.106  16.996  0.9050  0.2071  1.4112
 6353TIP3   OH240549   4.783   2.108  12.796 -0.6759  0.2321  0.6075
 6353TIP3    H140550   4.795   2.146  12.883  0.8579  1.3254 -0.0368
 6353TIP3    H240551   4.743   2.179  12.745 -1.0598 -0.2173  0.2756
 6354TIP3   OH240552   1.957   2.850   3.359 -0.0438 -0.0306 -0.4634
 6354TIP3    H140553   1.999   2.935   3.349  1.4957 -0.6252  0.5630
 6354TIP3    H240554   2.023   2.787   3.331 -0.3118 -1.0037  0.9632
 6355TIP3   OH240555   5.014   5.076  12.926  0.1050  0.5662  0.1518
 6355TIP3    H140556   5.045   4.988  12.907  0.6769  1.1023 -1.4772
 6355TIP3    H240557   4.981   5.109  12.843 -0.2579  1.8418  0.7732
 6356TIP3   OH240558   4.686   0.621   0.632 -0.7458  0.6172 -0.1707
 6356TIP3    H140559   4.626   0.547   0.627  0.2388 -0.4124  1.9397
 6356TIP3    H240560   4.740   0.613   0.553 -1.1609 -0.4571 -0.3693
 6357TIP3   OH240561   0.747   1.654  11.239 -0.0541 -0.0643  0.0185
 6357TIP3    H140562   0.820   1.682  11.294 -0.1120  0.4567 -0.1634
 6357TIP3    H240563   0.669   1.667  11.293  0.0791 -1.9037  0.7130
 6358TIP3   OH240564   5.886   3.461  13.698 -0.0402  0.2659 -0.7924
 6358TIP3    H140565   5.835   3.474  13.778 -2.6241  0.9010 -2.4117
 6358TIP3    H240566   5.903   3.367  13.695 -0.1460  0.2053  0.3560
 6359TIP3   OH240567   1.799   2.242   2.207  0.4777  0.5409  0.0567
 6359TIP3    H140568   1.830   2.318   2.157  0.5911  0.1309 -0.4961
 6359TIP3    H240569   1.749   2.190   2.144  1.7139 -0.6483  0.0189
 6360TIP3   OH240570   0.238   4.869   0.546  0.2882 -0.1204  0.3440
 6360TIP3    H140571   0.233   4.789   0.494 -0.6585  0.8698 -1.1492
 6360TIP3    H240572   0.306   4.922   0.503 -0.9662  0.9865 -0.3484
 6361TIP3   OH240573   2.340   3.944  16.479  0.5626 -0.3559  0.2850
 6361TIP3    H140574   2.344   3.981  16.390 -3.4010  1.0390  0.4857
 6361TIP3    H240575   2.353   4.020  16.536  0.3309 -0.7334  0.8441
 6362TIP3   OH240576   5.784   6.776   4.563  0.2123  0.2879 -0.1020
 6362TIP3    H140577   5.689   6.779   4.572  0.1570  0.3878 -0.6908
 6362TIP3    H240578   5.799   6.710   4.495  0.5908 -0.0908  0.3416
 6363TIP3   OH240579   0.264   6.450   1.274  0.1417  0.1068  0.2422
 6363TIP3    H140580   0.271   6.372   1.220 -1.0026  1.0650 -1.3766
 6363TIP3    H240581   0.352   6.488   1.273 -0.1223  0.7900 -2.0937
 6364TIP3   OH240582   5.702   1.151   1.507  0.3649 -0.2887  0.1240
 6364TIP3    H140583   5.621   1.197   1.484  0.1014 -1.0364 -0.4911
 6364TIP3    H240584   5.700   1.147   1.602  0.1879  0.5925  0.1725
 6365TIP3   OH240585   0.523   2.879  15.171 -0.8589  0.1225  0.4379
 6365TIP3    H140586   0.526   2.924  15.256  0.4565 -0.2089  0.5956
 6365TIP3    H240587   0.499   2.947  15.109 -1.0893  0.5415  0.9709
 6366TIP3   OH240588   4.042   6.819  16.243  0.1941  0.0295  0.6636
 6366TIP3    H140589   3.974   6.884  16.226  0.5322  0.1747 -0.1954
 6366TIP3    H240590   4.110   6.868  16.290  0.2450  0.1957  0.4253
 6367TIP3   OH240591   5.399   3.508  13.044 -0.5543 -0.2688 -0.2016
 6367TIP3    H140592   5.398   3.442  13.113 -4.3872  0.4654  0.6318
 6367TIP3    H240593   5.410   3.591  13.090 -0.5739  0.0374 -0.7413
 6368TIP3   OH240594   3.645   4.437   6.316  0.2616  0.0077  0.3817
 6368TIP3    H140595   3.554   4.463   6.331  0.3734 -0.6304  2.5993
 6368TIP3    H240596   3.640   4.346   6.287  0.1379  0.6393 -1.7314
 6369TIP3   OH240597   4.733   5.463   3.652 -0.3788 -0.1326 -0.0271
 6369TIP3    H140598   4.640   5.485   3.663 -0.5551 -1.0164  0.2682
 6369TIP3    H240599   4.739   5.370   3.672  0.6820  0.0458  0.5865
 6370TIP3   OH240600   4.369   4.210  14.569  0.1720  0.6886  0.1996
 6370TIP3    H140601   4.277   4.195  14.546 -0.3670  1.6854  1.5702
 6370TIP3    H240602   4.410   4.124  14.557 -1.3825 -0.3161  1.4974
 6371TIP3   OH240603   2.550   4.055   2.250 -0.0036 -0.1284 -0.0495
 6371TIP3    H140604   2.638   4.086   2.229  0.2940 -0.6443  0.3982
 6371TIP3    H240605   2.511   4.125   2.302  0.3692 -0.1559  0.2704
 6372TIP3   OH240606   4.924   4.561   2.128  0.1721  0.3510 -0.0445
 6372TIP3    H140607   4.979   4.483   2.138 -0.2641 -0.0563 -0.7266
 6372TIP3    H240608   4.941   4.591   2.039  0.1164  0.8722  0.1163
 6373TIP3   OH240609   5.362   2.221  13.089 -0.4292  0.5389  0.3303
 6373TIP3    H140610   5.417   2.271  13.028  1.2737  0.0983  1.4453
 6373TIP3    H240611   5.364   2.131  13.054 -0.9719  0.6299  0.0428
 6374TIP3   OH240612   0.906   3.621   1.093  0.3543 -0.5248  0.6333
 6374TIP3    H140613   0.900   3.587   1.182  2.8044 -1.3316  0.5646
 6374TIP3    H240614   0.985   3.580   1.057  1.0563  1.9828 -0.9308
 6375TIP3   OH240615   4.147   4.206  14.041 -0.0769 -0.0759  0.4569
 6375TIP3    H140616   4.235   4.168  14.043  0.5558  1.2808 -0.2041
 6375TIP3    H240617   4.101   4.166  14.115  1.0227 -0.9688  0.6728
 6376TIP3   OH240618   1.864   1.700  11.299 -0.5912  0.5432 -0.2084
 6376TIP3    H140619   1.779   1.739  11.320 -0.6768  0.0203  0.4608
 6376TIP3    H240620   1.886   1.647  11.375 -0.1909 -0.2297 -0.8426
 6377TIP3   OH240621   4.067   2.425  13.429  0.2130 -0.1718  0.6880
 6377TIP3    H140622   4.125   2.434  13.354 -0.6926  1.6588  0.1416
 6377TIP3    H240623   3.996   2.368  13.399  0.0574  0.2369  0.2755
 6378TIP3   OH240624   0.570   0.362   0.036  0.1411  0.0946  0.1455
 6378TIP3    H140625   0.476   0.361   0.018 -0.0043 -0.4155  0.8858
 6378TIP3    H240626   0.578   0.329   0.126  0.9412  1.2134  0.5065
 6379TIP3   OH240627   1.281   3.543  15.499 -0.0720 -0.9279  0.1585
 6379TIP3    H140628   1.311   3.482  15.567  1.9323  0.7518  0.9050
 6379TIP3    H240629   1.309   3.504  15.417  1.2595 -1.0157  0.6321
 6380TIP3   OH240630   0.400   6.235  13.009  0.2823 -0.5351  0.0094
 6380TIP3    H140631   0.411   6.174  12.936  0.1536  1.6887 -1.9648
 6380TIP3    H240632   0.469   6.300  12.997 -1.2393  1.2195  0.4542
 6381TIP3   OH240633   2.458   5.689   4.160  0.2255  0.4545 -0.0268
 6381TIP3    H140634   2.474   5.608   4.209 -0.1541  0.4625  0.1076
 6381TIP3    H240635   2.535   5.743   4.177  2.3627 -1.3201 -3.0989
 6382TIP3   OH240636   2.874   1.308  17.079 -0.7854  0.0757 -0.5017
 6382TIP3    H140637   2.861   1.400  17.102 -2.0303 -0.4612  1.1658
 6382TIP3    H240638   2.786   1.275  17.061 -0.4745 -1.0230 -0.1033
 6383TIP3   OH240639   1.826   1.431  12.052  0.0802 -0.1866  0.4444
 6383TIP3    H140640   1.827   1.504  12.114  0.6892 -1.6735  2.2708
 6383TIP3    H240641   1.735   1.426  12.023 -0.0107  1.1451  0.4211
 6384TIP3   OH240642   2.000   2.235  16.351  0.0553  0.0418  0.2840
 6384TIP3    H140643   2.042   2.151  16.332  0.2675  0.3366 -0.6034
 6384TIP3    H240644   2.071   2.289  16.386  0.1820  0.2025 -0.2113
 6385TIP3   OH240645   2.127   3.837  13.245  0.3109  0.3453 -0.0868
 6385TIP3    H140646   2.131   3.830  13.340  0.8509 -0.5517 -0.1704
 6385TIP3    H240647   2.061   3.905  13.229 -1.3762 -0.9795  0.8776
 6386TIP3   OH240648   0.414   4.461   5.176 -0.2234  0.0759 -0.3203
 6386TIP3    H140649   0.408   4.368   5.199 -0.5182  0.1205 -0.2166
 6386TIP3    H240650   0.495   4.491   5.216  1.2290 -0.7540 -2.4833
 6387TIP3   OH240651   5.094   1.360   3.837 -0.2533 -0.0758 -0.0969
 6387TIP3    H140652   5.118   1.368   3.744 -0.5312  0.7348 -0.1010
 6387TIP3    H240653   5.067   1.268   3.846 -0.5626 -0.0755 -0.9005
 6388TIP3   OH240654   4.739   2.752   1.818  0.3808 -0.2819 -0.1280
 6388TIP3    H140655   4.811   2.764   1.757  0.3846  1.2587  0.1305
 6388TIP3    H240656   4.736   2.834   1.868 -1.0118 -0.6385  0.4351
 6389TIP3   OH240657   3.725   5.304  11.398  0.0002 -0.2142  0.2700
 6389TIP3    H140658   3.778   5.348  11.464 -0.3194 -0.1541  0.4861
 6389TIP3    H240659   3.788   5.274  11.333  0.2662  0.1464  0.3616
 6390TIP3   OH240660   4.312   5.392   5.700  0.7360  0.0753 -0.1344
 6390TIP3    H140661   4.336   5.366   5.789 -1.0579  0.3193  0.4613
 6390TIP3    H240662   4.259   5.471   5.712  1.1156  0.5644 -1.4933
 6391TIP3   OH240663   4.589   6.399   1.915 -0.1209 -0.1628 -0.5786
 6391TIP3    H140664   4.615   6.313   1.947  2.3637  0.7848  0.1922
 6391TIP3    H240665   4.670   6.439   1.883 -0.9846  2.2664  0.0094
 6392TIP3   OH240666   2.859   2.822   3.248  0.3795  0.0162  0.6870
 6392TIP3    H140667   2.792   2.769   3.205  0.1293  1.0851 -0.2921
 6392TIP3    H240668   2.908   2.760   3.303 -0.8278 -0.9370  0.7141
 6393TIP3   OH240669   5.321   6.171  11.737 -0.0966  0.2982 -0.7698
 6393TIP3    H140670   5.244   6.169  11.794  0.4376 -0.6871 -0.0690
 6393TIP3    H240671   5.312   6.093  11.682 -0.3807  1.0055 -1.7503
 6394TIP3   OH240672   6.586   1.261   4.213  0.3047 -0.2013  0.0854
 6394TIP3    H140673   6.651   1.192   4.226 -0.0293 -0.2712  1.6105
 6394TIP3    H240674   6.563   1.290   4.302 -0.5888  0.9089 -0.4716
 6395TIP3   OH240675   0.971   2.872   2.607  0.1698  0.3746 -0.3485
 6395TIP3    H140676   0.977   2.967   2.617 -0.0539  0.3433  0.1245
 6395TIP3    H240677   0.880   2.852   2.631  0.7662 -0.1912  1.5979
 6396TIP3   OH240678   1.593   4.366   2.189 -0.2952 -0.4458  0.5344
 6396TIP3    H140679   1.600   4.427   2.115 -2.5174 -0.5075  0.2042
 6396TIP3    H240680   1.639   4.288   2.159 -1.7059 -0.7171 -1.1314
 6397TIP3   OH240681   1.181   5.172  11.886 -0.1541 -0.0415 -0.1655
 6397TIP3    H140682   1.117   5.174  11.957 -0.8190 -0.1073 -0.7564
 6397TIP3    H240683   1.242   5.103  11.910 -1.3789 -1.2761 -0.5135
 6398TIP3   OH240684   5.688   1.117  16.042 -0.0166  0.3066 -0.2037
 6398TIP3    H140685   5.736   1.093  16.121 -0.7553  1.9092  0.7716
 6398TIP3    H240686   5.710   1.209  16.028 -1.9923  0.7932 -0.3111
 6399TIP3   OH240687   1.263   2.187  16.106  0.0175  0.1880 -0.5356
 6399TIP3    H140688   1.347   2.229  16.089  0.5236 -1.4212 -2.2807
 6399TIP3    H240689   1.280   2.094  16.095 -1.7572 -0.2727  0.2417
 6400TIP3   OH240690   5.967   4.222  17.124 -0.7542 -0.3742 -0.0029
 6400TIP3    H140691   5.875   4.228  17.151 -0.6590  1.2832  0.0652
 6400TIP3    H240692   5.988   4.309  17.091  1.2064 -0.2648  1.3331
 6401TIP3   OH240693   4.497   1.731   5.158 -0.1877  0.0820 -0.1435
 6401TIP3    H140694   4.426   1.685   5.202  1.7187 -2.1568  0.7660
 6401TIP3    H240695   4.530   1.793   5.224  0.5111 -0.9077  0.4614
 6402TIP3   OH240696   2.154   0.020  16.280  0.1737  0.4321  0.2281
 6402TIP3    H140697   2.175  -0.073  16.269  0.5931  0.2730  2.1323
 6402TIP3    H240698   2.063   0.028  16.254  0.4101 -0.3100 -0.8905
 6403TIP3   OH240699   0.356   2.160   1.331  0.3556  0.0427 -0.5367
 6403TIP3    H140700   0.399   2.075   1.323  1.7182  0.7247 -0.8154
 6403TIP3    H240701   0.401   2.202   1.405 -2.0454 -0.4342  1.3330
 6404TIP3   OH240702   2.549   4.440   5.061  0.3588  0.1305 -0.7189
 6404TIP3    H140703   2.604   4.517   5.046 -0.1697  0.3351 -1.7589
 6404TIP3    H240704   2.483   4.469   5.124  0.7125  0.2456 -0.3975
 6405TIP3   OH240705   5.948   6.305   1.011  1.0335  0.6544  0.3624
 6405TIP3    H140706   5.963   6.325   0.918  0.6983  1.8433  0.5518
 6405TIP3    H240707   5.883   6.235   1.010  1.0668  0.6289 -0.3066
 6406TIP3   OH240708   0.883   3.700  16.495 -0.4769 -0.0672  0.2328
 6406TIP3    H140709   0.871   3.792  16.473  3.6463  0.6999  0.4333
 6406TIP3    H240710   0.860   3.694  16.588 -2.2764  0.3332 -0.1532
 6407TIP3   OH240711   1.434   0.339   3.003  0.2329 -0.3650  0.2898
 6407TIP3    H140712   1.400   0.427   2.993  3.7647  1.0069 -1.0369
 6407TIP3    H240713   1.522   0.350   3.039  1.0030 -3.2886 -0.3517
 6408TIP3   OH240714   4.429   2.815  13.140 -0.3492 -0.2684 -0.0831
 6408TIP3    H140715   4.520   2.805  13.114  0.8015  2.9518  2.0619
 6408TIP3    H240716   4.391   2.871  13.072 -1.1335 -2.4010 -1.5104
 6409TIP3   OH240717   5.997   5.854  15.566 -0.4278 -0.6902  0.3979
 6409TIP3    H140718   6.035   5.924  15.620 -2.3413  0.1044  0.8082
 6409TIP3    H240719   5.925   5.896  15.520  0.9607 -1.4265 -2.6505
 6410TIP3   OH240720   4.448   2.313   0.289  0.1007 -0.0226 -0.0210
 6410TIP3    H140721   4.391   2.285   0.361  0.7754  3.3255  2.0519
 6410TIP3    H240722   4.534   2.277   0.310  0.0200 -0.1086  0.1604
 6411TIP3   OH240723   2.794   1.968  14.335  0.4226  0.1447 -0.4764
 6411TIP3    H140724   2.770   1.933  14.420  0.0933 -0.4808 -0.8198
 6411TIP3    H240725   2.805   1.891  14.279  1.1666  0.5153 -0.8642
 6412TIP3   OH240726   0.165   6.007   6.207  0.0220  0.3092  0.5045
 6412TIP3    H140727   0.149   6.101   6.214 -0.0747  0.2788  0.6963
 6412TIP3    H240728   0.215   5.985   6.286  0.7555  0.3473  0.0607
 6413TIP3   OH240729   4.332   1.985   3.344  0.3219 -0.3715 -0.2331
 6413TIP3    H140730   4.256   2.006   3.289  0.4507  0.4726 -0.1116
 6413TIP3    H240731   4.328   2.050   3.415  0.7339 -0.7984  0.1897
 6414TIP3   OH240732   1.268   2.685  10.949 -0.4585  0.1126  0.5001
 6414TIP3    H140733   1.327   2.736  11.004 -0.2394 -0.3667  0.7202
 6414TIP3    H240734   1.226   2.624  11.009  0.8834 -1.4379 -0.0441
 6415TIP3   OH240735   6.801   2.694  15.398  0.4380  0.1244 -0.3697
 6415TIP3    H140736   6.858   2.765  15.426 -0.1227 -0.3446  2.2199
 6415TIP3    H240737   6.850   2.614  15.418 -0.4965 -0.2492  0.5152
 6416TIP3   OH240738   3.214   1.940   0.951  0.0550 -0.7887 -0.0140
 6416TIP3    H140739   3.275   2.003   0.988  0.5383 -0.1217 -1.8125
 6416TIP3    H240740   3.205   1.967   0.859 -0.7616 -2.5649 -0.5001
 6417TIP3   OH240741   5.043   3.229   2.934 -0.2860  0.1470 -0.4249
 6417TIP3    H140742   4.970   3.169   2.950 -1.1628  0.5467 -2.5649
 6417TIP3    H240743   5.036   3.251   2.841  1.7822  1.2567 -0.3777
 6418TIP3   OH240744   0.786   1.227   1.405  0.5786  0.5605  0.5868
 6418TIP3    H140745   0.850   1.291   1.439  1.6849 -1.1415  1.8752
 6418TIP3    H240746   0.829   1.190   1.328  1.3206 -0.7251  1.5648
 6419TIP3   OH240747   6.374   6.119  12.860 -0.4474 -0.7713  0.5765
 6419TIP3    H140748   6.464   6.094  12.839 -0.7831 -0.9849 -0.7296
 6419TIP3    H240749   6.356   6.193  12.802 -0.8683 -0.2191  1.3869
 6420TIP3   OH240750   5.309   1.753   4.136 -0.4959 -0.0571 -0.3594
 6420TIP3    H140751   5.297   1.664   4.103 -0.9260 -0.1783  0.1204
 6420TIP3    H240752   5.222   1.781   4.162 -0.2300  0.2067  0.2479
 6421TIP3   OH240753   3.019   1.827   1.125 -0.3922  0.3866  0.4423
 6421TIP3    H140754   3.082   1.759   1.148 -0.5102  0.4088  0.8386
 6421TIP3    H240755   3.053   1.865   1.044  1.0914  1.6150  1.5811
 6422TIP3   OH240756   6.133   4.608   1.398 -0.8528  0.7897  0.7443
 6422TIP3    H140757   6.116   4.517   1.376  1.2831  0.4000  0.4965
 6422TIP3    H240758   6.121   4.612   1.493 -0.8578  0.2293  0.7710
 6423TIP3   OH240759   1.298   3.680  11.696  0.1500  0.1372 -0.2218
 6423TIP3    H140760   1.297   3.585  11.681 -0.2934  0.2941 -1.2265
 6423TIP3    H240761   1.223   3.696  11.753  1.2525 -0.3282  1.4329
 6424TIP3   OH240762   2.925   1.914  13.399 -0.1492  0.1681  0.0546
 6424TIP3    H140763   2.862   1.927  13.328  0.2380  1.2183 -0.1277
 6424TIP3    H240764   3.009   1.901  13.355 -0.1437 -0.6850  0.3038
 6425TIP3   OH240765   4.797   0.716   4.561 -0.1751  0.1583 -0.2026
 6425TIP3    H140766   4.746   0.791   4.531  1.5310  1.3458 -0.2600
 6425TIP3    H240767   4.782   0.649   4.494  0.1981  1.3021 -1.4795
 6426TIP3   OH240768   1.134   1.282   4.556 -0.5592  0.0017 -0.1171
 6426TIP3    H140769   1.073   1.215   4.528 -0.3572  0.0336 -0.6362
 6426TIP3    H240770   1.142   1.341   4.481  0.7546 -0.4634 -0.3769
 6427TIP3   OH240771   1.735   3.896  13.480  0.1274 -0.0999  0.2478
 6427TIP3    H140772   1.661   3.940  13.521  0.1198  0.1967 -0.0780
 6427TIP3    H240773   1.695   3.838  13.415  0.2217  1.0097 -0.8402
 6428TIP3   OH240774   5.234   4.711   2.694 -0.3903 -0.1129 -0.5829
 6428TIP3    H140775   5.292   4.758   2.754  1.2373 -0.6852 -1.6406
 6428TIP3    H240776   5.168   4.671   2.751 -1.3647  2.7116  0.4219
 6429TIP3   OH240777   0.020   3.842  15.815  0.1865  0.1247  0.2655
 6429TIP3    H140778   0.106   3.882  15.813 -0.3073  1.2234  0.5855
 6429TIP3    H240779  -0.029   3.886  15.745 -0.8691  1.3020  1.6834
 6430TIP3   OH240780   2.603   6.084  15.293  0.6405  0.0129  0.4614
 6430TIP3    H140781   2.570   6.007  15.248  0.1810 -0.3322  1.3623
 6430TIP3    H240782   2.685   6.105  15.249  0.5825 -0.7697 -0.0240
 6431TIP3   OH240783   2.507   2.600   2.644  0.8751 -0.1094  0.3053
 6431TIP3    H140784   2.486   2.568   2.556  0.6054 -0.3774  0.4631
 6431TIP3    H240785   2.533   2.521   2.691  0.3644 -0.0747  0.6556
 6432TIP3   OH240786   6.701   5.745   4.887 -0.3946  0.3201  0.2834
 6432TIP3    H140787   6.722   5.808   4.955 -0.0622 -1.0458  1.5066
 6432TIP3    H240788   6.771   5.753   4.823  0.0598  0.6424  0.8180
 6433TIP3   OH240789   4.057   1.429  16.418  0.1559 -0.2172 -0.2683
 6433TIP3    H140790   4.015   1.351  16.382 -1.4981 -0.5056  2.0048
 6433TIP3    H240791   4.110   1.395  16.490  0.7243  0.6045 -0.2983
 6434TIP3   OH240792   3.740   1.547   4.254  0.2431  0.1441  0.1678
 6434TIP3    H140793   3.788   1.572   4.332 -0.1485 -1.1478  0.8414
 6434TIP3    H240794   3.804   1.554   4.183  1.3293 -1.1693  0.9866
 6435TIP3   OH240795   1.874   1.830  16.081  0.4670  0.8755  0.0834
 6435TIP3    H140796   1.930   1.850  16.006 -0.5649  1.8605 -0.4587
 6435TIP3    H240797   1.897   1.740  16.106  0.7529  0.4947 -1.4819
 6436TIP3   OH240798   4.984   1.287   4.424  0.7443 -0.4006  0.3074
 6436TIP3    H140799   5.075   1.255   4.424  0.3324 -1.6422 -0.6197
 6436TIP3    H240800   4.954   1.273   4.334 -0.2291  0.4188  0.4950
 6437TIP3   OH240801   2.352   6.615  14.401  0.1151  0.2071  0.5488
 6437TIP3    H140802   2.301   6.535  14.415  1.0908 -0.5833 -0.2159
 6437TIP3    H240803   2.384   6.638  14.489 -1.9344  1.0349  1.1330
 6438TIP3   OH240804   1.517   5.857  14.904  0.2544  0.1368  0.3677
 6438TIP3    H140805   1.523   5.761  14.904  0.3920  0.1466  0.7184
 6438TIP3    H240806   1.424   5.875  14.888  0.3205 -0.0487 -0.2368
 6439TIP3   OH240807   2.588   2.956   2.110  0.4901  0.1677  0.5103
 6439TIP3    H140808   2.595   3.029   2.049  0.6689 -1.3549 -1.3671
 6439TIP3    H240809   2.494   2.940   2.117  0.4587  0.4774  0.8011
 6440TIP3   OH240810   3.199   4.644  13.994  0.4234  0.4116  0.1584
 6440TIP3    H140811   3.198   4.563  14.046 -0.8076 -2.4710 -3.8387
 6440TIP3    H240812   3.272   4.633  13.933 -1.6798  0.6255 -2.6009
 6441TIP3   OH240813   3.210   0.134  12.512 -0.1254  0.4239  0.0153
 6441TIP3    H140814   3.253   0.133  12.427 -0.7781 -0.2411 -0.3172
 6441TIP3    H240815   3.248   0.209  12.557  1.6346 -0.3201 -0.1386
 6442TIP3   OH240816   1.074   5.835   4.480  0.0830  0.4490  0.1647
 6442TIP3    H140817   1.070   5.803   4.390  2.6934  1.5293 -0.4320
 6442TIP3    H240818   1.000   5.793   4.524 -0.3711 -1.3025 -2.0879
 6443TIP3   OH240819   2.295   5.406   2.734  0.7043 -0.9454 -0.5909
 6443TIP3    H140820   2.267   5.351   2.807  0.6211  1.6138  1.4528
 6443TIP3    H240821   2.383   5.375   2.714  0.8155 -1.5824  0.7412
 6444TIP3   OH240822   2.344   6.801  11.685 -0.0413  0.2725  0.1770
 6444TIP3    H140823   2.325   6.720  11.638  0.6799 -1.3887  2.5705
 6444TIP3    H240824   2.314   6.870  11.626 -0.1072 -1.6627 -2.2499
 6445TIP3   OH240825   3.486   5.419  11.890 -0.0485 -0.0938  0.2072
 6445TIP3    H140826   3.432   5.477  11.944 -0.7047  0.0752 -0.6056
 6445TIP3    H240827   3.486   5.335  11.937 -2.0898 -0.4779 -0.3788
 6446TIP3   OH240828   1.623   6.591   3.899 -0.1859  0.0210  0.0032
 6446TIP3    H140829   1.573   6.626   3.825 -2.0873 -0.7246  0.8634
 6446TIP3    H240830   1.586   6.636   3.975  2.4972  1.6321  0.4990
 6447TIP3   OH240831   4.732   0.706  13.369  0.1870  0.7932  0.3703
 6447TIP3    H140832   4.688   0.773  13.317  2.3871  0.2071 -2.5036
 6447TIP3    H240833   4.728   0.627  13.315  1.0736 -0.3531  1.9092
 6448TIP3   OH240834   5.756   1.320   3.157  0.4661  0.3498  0.5816
 6448TIP3    H140835   5.763   1.228   3.184  1.5619 -0.4903 -2.2188
 6448TIP3    H240836   5.844   1.356   3.169  0.3953  0.6199  0.3089
 6449TIP3   OH240837   2.400   1.063   2.961 -0.7448 -0.6065  0.2615
 6449TIP3    H140838   2.485   1.025   2.938 -0.4044  0.5710 -0.5197
 6449TIP3    H240839   2.339   0.989   2.957  0.2772 -1.5121  1.0805
 6450TIP3   OH240840   6.791   0.223  14.898  0.0115  0.0095  0.0055
 6450TIP3    H140841   6.706   0.202  14.859  0.5088 -0.2027 -1.0123
 6450TIP3    H240842   6.854   0.201  14.830  0.8838  0.2110  0.7311
 6451TIP3   OH240843   3.121   5.563  16.701 -0.2406 -0.4127  0.1999
 6451TIP3    H140844   3.070   5.642  16.682  0.6853  0.1324 -0.1002
 6451TIP3    H240845   3.203   5.575  16.653  0.2165 -1.2171  0.7469
 6452TIP3   OH240846   0.235   3.521  14.858 -0.3855 -0.6697  0.0550
 6452TIP3    H140847   0.240   3.503  14.765 -1.8560 -0.2856 -0.1216
 6452TIP3    H240848   0.326   3.535  14.885 -0.0641  1.0160 -1.6984
 6453TIP3   OH240849   5.171   0.896   5.258 -0.2118  0.3584  0.1223
 6453TIP3    H140850   5.097   0.900   5.198  0.4315 -1.4473 -0.8697
 6453TIP3    H240851   5.134   0.922   5.343 -1.3029  2.2440 -0.8674
 6454TIP3   OH240852   3.023   6.318  12.836  0.4215 -0.4688 -0.5511
 6454TIP3    H140853   3.009   6.404  12.797  1.6151 -0.8385 -1.8812
 6454TIP3    H240854   3.059   6.337  12.923  1.2422  0.3819 -1.0566
 6455TIP3   OH240855   1.217   3.294  11.520 -0.2754  0.0590  0.4270
 6455TIP3    H140856   1.196   3.379  11.481  1.3777  0.1005 -0.4539
 6455TIP3    H240857   1.177   3.230  11.461 -0.9781  0.1926  0.7452
 6456TIP3   OH240858   5.579   1.462   2.459  0.8237  0.2611 -0.3988
 6456TIP3    H140859   5.594   1.509   2.378 -1.0794 -2.7256 -2.7252
 6456TIP3    H240860   5.592   1.370   2.436 -2.3325 -0.9484  1.8987
 6457TIP3   OH240861   2.355   5.654  10.940 -0.2646 -0.6242  0.8312
 6457TIP3    H140862   2.324   5.734  10.982  0.3029 -1.5424  3.1341
 6457TIP3    H240863   2.285   5.630  10.880 -1.8350 -0.0558  2.3708
 6458TIP3   OH240864   2.338   6.657  14.674  0.2489 -0.0641  0.0022
 6458TIP3    H140865   2.326   6.645  14.769  1.1250 -0.7920  0.0318
 6458TIP3    H240866   2.249   6.649  14.639 -0.0284 -0.2833  0.7143
 6459TIP3   OH240867   2.801   3.314   3.894 -0.1476 -0.4811  0.5788
 6459TIP3    H140868   2.717   3.343   3.859  0.1530  0.5888  0.7231
 6459TIP3    H240869   2.827   3.381   3.957  1.0858 -0.4830  0.1147
 6460TIP3   OH240870   1.259   0.350   1.140  0.5549  0.5925  0.3483
 6460TIP3    H140871   1.330   0.305   1.187  1.5480  0.7042 -0.9764
 6460TIP3    H240872   1.185   0.347   1.200  1.5352  0.0266  1.5843
 6461TIP3   OH240873   0.876   4.677   5.546  0.0869  0.1566 -0.0767
 6461TIP3    H140874   0.957   4.670   5.597 -0.1999 -2.3629  0.1608
 6461TIP3    H240875   0.817   4.612   5.585 -1.3507  0.5327 -1.5046
 6462TIP3   OH240876   0.179   5.901  13.711  0.3217 -0.2342  0.0150
 6462TIP3    H140877   0.131   5.955  13.775 -0.1795 -0.0092 -0.5395
 6462TIP3    H240878   0.240   5.850  13.764 -0.4765 -0.4679  0.7356
 6463TIP3   OH240879   1.721   5.371  15.372  0.3056  0.5659  0.1126
 6463TIP3    H140880   1.696   5.394  15.282  1.2945 -0.9551 -0.5997
 6463TIP3    H240881   1.800   5.318  15.361 -0.4102 -0.9229  1.7850
 6464TIP3   OH240882   1.178   0.530  14.070  0.1096 -0.0161  0.3560
 6464TIP3    H140883   1.212   0.612  14.034  0.8320 -0.7116 -0.6008
 6464TIP3    H240884   1.254   0.489  14.110 -0.2156 -0.3137  0.6752
 6465TIP3   OH240885   3.839   5.198   2.225 -0.3996 -0.3930 -0.2440
 6465TIP3    H140886   3.749   5.199   2.260 -0.5229  1.6268 -0.4516
 6465TIP3    H240887   3.872   5.286   2.243  1.9260 -1.3934  0.6966
 6466TIP3   OH240888   5.995   0.095   3.527 -0.1270  0.3720 -0.0642
 6466TIP3    H140889   5.979   0.095   3.622 -0.9949 -0.3449 -0.1963
 6466TIP3    H240890   5.958   0.178   3.497  0.5641  0.8083  0.2895
 6467TIP3   OH240891   0.672   1.773  12.183  0.3054 -0.6848 -0.0575
 6467TIP3    H140892   0.728   1.703  12.152 -0.8251 -2.9876  2.5973
 6467TIP3    H240893   0.689   1.778  12.277  0.3674  2.7506 -0.1066
 6468TIP3   OH240894   0.269   1.545  11.476 -0.3907 -0.3264 -0.2911
 6468TIP3    H140895   0.289   1.610  11.408  0.0948 -0.6436 -0.4515
 6468TIP3    H240896   0.185   1.574  11.512  0.2908  0.9787  0.3280
 6469TIP3   OH240897   3.305   1.551   1.835  0.2083 -0.3328 -0.2002
 6469TIP3    H140898   3.377   1.611   1.854  0.0560 -0.1588 -0.1737
 6469TIP3    H240899   3.283   1.512   1.919  1.0002 -1.2038 -0.3875
 6470TIP3   OH240900   5.722   1.553  10.995  0.3883  0.4781 -0.2039
 6470TIP3    H140901   5.732   1.515  10.907  0.1788 -1.1099  0.4156
 6470TIP3    H240902   5.801   1.605  11.008 -0.3090  2.1000 -1.9354
 6471TIP3   OH240903   1.975   1.481   0.702 -0.7933 -0.0624 -0.5208
 6471TIP3    H140904   1.964   1.576   0.707 -1.9527 -0.2229  0.5042
 6471TIP3    H240905   2.061   1.469   0.663 -0.6869  1.4094 -0.8009
 6472TIP3   OH240906   6.450   1.572   0.044  0.1230 -0.0463 -0.2170
 6472TIP3    H140907   6.469   1.609   0.130  0.5456  0.1407 -0.3876
 6472TIP3    H240908   6.453   1.478   0.057 -2.0998 -0.0702  0.4835
 6473TIP3   OH240909   5.484   1.511   6.075 -0.5018 -0.1549  0.1193
 6473TIP3    H140910   5.446   1.447   6.136 -0.7604 -0.0116  0.1110
 6473TIP3    H240911   5.578   1.492   6.076 -0.7680 -1.7785 -1.3241
 6474TIP3   OH240912   6.548   1.764  13.279  0.0948 -0.9316 -0.0974
 6474TIP3    H140913   6.463   1.808  13.278  0.7132  0.3121  0.2628
 6474TIP3    H240914   6.610   1.830  13.249  0.7979 -2.1836 -1.5873
 6475TIP3   OH240915   3.762   1.112  14.368  0.0780 -0.5394 -0.5465
 6475TIP3    H140916   3.798   1.170  14.436 -1.7035  0.5359 -0.4391
 6475TIP3    H240917   3.690   1.163  14.330 -1.7313 -2.7704 -0.2872
 6476TIP3   OH240918   4.947   4.232  16.663  0.0283  0.4333 -0.6708
 6476TIP3    H140919   4.881   4.192  16.720 -0.6524  0.7278 -1.2474
 6476TIP3    H240920   5.004   4.159  16.638  0.5776  0.3621  0.6903
 6477TIP3   OH240921   2.910   3.070  16.069 -0.2155 -0.6211 -0.2648
 6477TIP3    H140922   2.926   3.129  16.143 -0.5642 -0.8152 -0.0336
 6477TIP3    H240923   2.988   3.015  16.065  0.8214  0.8523 -1.4365
 6478TIP3   OH240924   3.812   4.346  14.154  0.1878  0.1138  0.2647
 6478TIP3    H140925   3.804   4.351  14.249  2.3013  1.7487  0.4515
 6478TIP3    H240926   3.843   4.433  14.128 -0.3949 -0.2699 -1.9364
 6479TIP3   OH240927   3.748   1.800   1.661 -0.0079  0.4250  0.4358
 6479TIP3    H140928   3.809   1.752   1.717 -1.1952 -1.5556  0.1237
 6479TIP3    H240929   3.749   1.753   1.578 -0.5654  1.4978 -0.2051
 6480TIP3   OH240930   6.320   0.084  14.138 -0.5270 -0.2958 -0.4442
 6480TIP3    H140931   6.319   0.013  14.074  0.7417 -0.0187 -0.7980
 6480TIP3    H240932   6.286   0.044  14.219 -1.4500 -0.8324 -1.0802
 6481TIP3   OH240933   1.013   1.444  12.258  0.0006 -0.3432 -0.0895
 6481TIP3    H140934   1.099   1.462  12.297 -0.2090  0.1465  0.1552
 6481TIP3    H240935   0.951   1.459  12.328 -0.2723 -0.9531 -0.1949
 6482TIP3   OH240936   4.894   3.579   2.543  0.1248 -0.4696 -0.3778
 6482TIP3    H140937   4.854   3.499   2.508  3.0308 -2.9368  1.4511
 6482TIP3    H240938   4.983   3.577   2.509  0.8522  0.9506  1.3376
 6483TIP3   OH240939   3.311   5.066  11.639 -0.0441  0.2832  0.3931
 6483TIP3    H140940   3.251   5.075  11.713 -0.0584 -1.2402  0.5910
 6483TIP3    H240941   3.396   5.096  11.673 -0.7299  3.0474 -0.0671
 6484TIP3   OH240942   2.942   6.448  17.147  0.1183 -0.3240 -0.0567
 6484TIP3    H140943   2.943   6.432  17.241 -1.2518  0.2387  0.0868
 6484TIP3    H240944   2.970   6.539  17.138  0.1332 -0.3407 -0.1897
 6485TIP3   OH240945   4.300   0.322  10.994 -0.0109  0.0378 -0.2128
 6485TIP3    H140946   4.261   0.246  10.951  0.7792 -1.3250  1.3967
 6485TIP3    H240947   4.394   0.314  10.978 -0.0982  2.3410 -2.5448
 6486TIP3   OH240948   2.843   2.460  15.282  0.1848 -0.0089  0.3155
 6486TIP3    H140949   2.933   2.437  15.259 -0.5233 -1.2742 -1.4263
 6486TIP3    H240950   2.832   2.550  15.251 -0.0118 -0.8739 -2.3706
 6487TIP3   OH240951   0.343   1.824  15.158 -0.3563 -0.2006 -0.3430
 6487TIP3    H140952   0.377   1.741  15.190 -0.6646  0.7187  2.6800
 6487TIP3    H240953   0.251   1.823  15.181 -0.5523  0.6523 -1.0373
 6488TIP3   OH240954   0.189   3.338  15.047  0.5202  0.5673 -0.3044
 6488TIP3    H140955   0.201   3.389  15.128  2.5911  1.7102 -1.2387
 6488TIP3    H240956   0.192   3.404  14.977  0.2876 -0.5586 -1.4014
 6489TIP3   OH240957   4.918   4.449  12.910  0.2147  0.2595 -0.0166
 6489TIP3    H140958   4.904   4.355  12.904  0.9940  0.1455 -0.1013
 6489TIP3    H240959   5.012   4.460  12.904  0.1123  1.0697 -0.2655
 6490TIP3   OH240960   1.530   0.323   1.024 -0.2585 -0.0994  0.2291
 6490TIP3    H140961   1.510   0.339   1.116  0.4823 -0.7984  0.5268
 6490TIP3    H240962   1.450   0.347   0.978 -1.0555 -0.8420  1.1679
 6491TIP3   OH240963   3.990   2.072   6.319  0.2259 -0.2009  0.2001
 6491TIP3    H140964   4.037   2.133   6.376 -0.9418  0.7460  0.2004
 6491TIP3    H240965   3.943   2.128   6.257  1.2358 -1.1922 -1.5561
 6492TIP3   OH240966   5.645   3.650  12.595  0.3027 -0.7049 -0.2006
 6492TIP3    H140967   5.729   3.697  12.596  1.1156 -2.1080  1.1966
 6492TIP3    H240968   5.580   3.717  12.615  1.3343  0.0183  0.8869
 6493TIP3   OH240969   4.531   4.940   4.363 -0.4672  0.2832 -0.3401
 6493TIP3    H140970   4.496   4.856   4.334  0.2051 -0.5235  1.0845
 6493TIP3    H240971   4.606   4.956   4.306 -0.9394  0.2136 -0.9904
 6494TIP3   OH240972   0.265   2.979   4.638 -0.7629  0.2221  0.0453
 6494TIP3    H140973   0.241   2.889   4.659  1.1021 -0.1845  0.6352
 6494TIP3    H240974   0.357   2.973   4.610 -0.5696  1.9485  0.2088
 6495TIP3   OH240975   0.601   0.415   2.332 -0.0388  0.0191  0.4560
 6495TIP3    H140976   0.623   0.325   2.308  0.2196 -0.1496  1.3058
 6495TIP3    H240977   0.657   0.469   2.275  0.7850 -0.3808  0.8682
 6496TIP3   OH240978   6.034   0.894   0.904  0.1884 -0.0875  0.0963
 6496TIP3    H140979   6.062   0.925   0.990 -0.7982  0.6870  0.1577
 6496TIP3    H240980   6.109   0.911   0.847  0.1188  1.3302  0.3855
 6497TIP3   OH240981   5.618   0.648  14.358  0.4008 -0.9608 -0.2198
 6497TIP3    H140982   5.609   0.726  14.304  0.3767 -0.2414  0.7963
 6497TIP3    H240983   5.544   0.593  14.334 -0.5185  0.0582  0.2129
 6498TIP3   OH240984   2.737   4.258  11.331  0.1625 -0.4025 -0.2037
 6498TIP3    H140985   2.783   4.288  11.253  0.8223  0.2216  0.4085
 6498TIP3    H240986   2.767   4.316  11.401 -0.3510 -0.9961  0.5364
 6499TIP3   OH240987   1.930   4.177   1.240 -0.5585 -0.6375  0.0569
 6499TIP3    H140988   1.858   4.133   1.285 -0.3563  1.1447  2.3363
 6499TIP3    H240989   2.001   4.179   1.305 -0.5573  2.8423  0.1380
 6500TIP3   OH240990   6.175   1.247  13.430  0.1108  0.1715 -0.5288
 6500TIP3    H140991   6.208   1.175  13.483 -2.8192  0.1019  1.4938
 6500TIP3    H240992   6.172   1.213  13.341 -1.9387 -2.6186  0.4678
 6501TIP3   OH240993   4.428   4.311   3.473 -0.2307 -0.0652 -0.1699
 6501TIP3    H140994   4.401   4.400   3.447  1.2365 -0.1992 -2.4840
 6501TIP3    H240995   4.498   4.289   3.412 -1.7675 -3.5420 -0.9205
 6502TIP3   OH240996   0.930   6.576   0.069  0.0468 -0.1976 -0.1344
 6502TIP3    H140997   0.894   6.547  -0.015  0.6728 -1.8672  0.1295
 6502TIP3    H240998   1.024   6.582   0.055  0.2569 -1.3104  0.6455
 6503TIP3   OH240999   4.110   3.915  15.139 -0.3668  0.6198  0.0221
 6503TIP3    H141000   4.059   3.988  15.104  1.1288  2.3967  1.3684
 6503TIP3    H241001   4.086   3.909  15.231 -1.6492 -1.7265 -0.3653
 6504TIP3   OH241002   2.221   1.241  11.832  0.1806  0.5728  0.0048
 6504TIP3    H141003   2.136   1.232  11.791  0.9928 -0.0358 -1.6417
 6504TIP3    H241004   2.271   1.298  11.774  1.7128 -1.1713 -0.5094
 6505TIP3   OH241005   1.841   5.623  11.969 -0.7303  0.4157 -0.0945
 6505TIP3    H141006   1.841   5.542  11.918 -0.3141 -0.6427  1.5082
 6505TIP3    H241007   1.891   5.685  11.915  2.2417 -1.4942  0.2093
 6506TIP3   OH241008   1.974   6.211   2.099  0.1280 -0.2316 -0.1379
 6506TIP3    H141009   1.907   6.236   2.036  0.2959 -0.2086 -0.3077
 6506TIP3    H241010   1.927   6.199   2.181 -0.3773 -1.9892 -0.6479
 6507TIP3   OH241011   3.092   6.680   1.773  0.0440 -0.4448 -0.2280
 6507TIP3    H141012   3.049   6.605   1.813 -0.1599 -0.0895  0.2199
 6507TIP3    H241013   3.051   6.756   1.813  0.7544 -0.0946 -0.1484
 6508TIP3   OH241014   3.808   1.492  12.898 -0.0765 -0.3194 -0.0677
 6508TIP3    H141015   3.768   1.411  12.932 -1.8468  0.4698 -0.1789
 6508TIP3    H241016   3.811   1.479  12.804 -1.6525  0.2523 -0.2284
 6509TIP3   OH241017   5.174   6.376   1.459  0.6232 -0.1496  0.1402
 6509TIP3    H141018   5.172   6.352   1.366 -1.1304  1.1703 -0.2219
 6509TIP3    H241019   5.260   6.416   1.472  0.4554  0.7201 -1.2240
 6510TIP3   OH241020   4.413   1.998  17.004 -0.3933 -0.6357  0.0631
 6510TIP3    H141021   4.491   1.962  16.963  0.8124  1.0151  0.8119
 6510TIP3    H241022   4.373   2.053  16.937 -0.3644 -0.6866  0.0048
 6511TIP3   OH241023   6.150   5.915  15.159  0.0644 -0.5428  0.3184
 6511TIP3    H141024   6.075   5.906  15.217 -0.0146 -1.6487  0.0616
 6511TIP3    H241025   6.125   5.869  15.079 -0.2394  1.8351 -1.0486
 6512TIP3   OH241026   5.682   2.844  11.570  0.2737 -0.1970  0.5244
 6512TIP3    H141027   5.731   2.810  11.495 -0.4885 -0.3789  0.1051
 6512TIP3    H241028   5.626   2.913  11.533  0.9235  0.7030  1.1659
 6513TIP3   OH241029   3.294   4.085   2.388 -0.6472 -0.3186 -0.7086
 6513TIP3    H141030   3.316   4.156   2.448 -1.1917  0.7283 -1.7136
 6513TIP3    H241031   3.343   4.009   2.421  0.5646  0.7142 -0.0672
 6514TIP3   OH241032   0.452   2.241   0.576  0.0360  0.5101 -0.3438
 6514TIP3    H141033   0.422   2.190   0.501 -1.0056 -0.6140  0.7796
 6514TIP3    H241034   0.452   2.331   0.545  1.4766 -0.0710 -2.2436
 6515TIP3   OH241035   0.881   2.879  13.175  0.1409 -0.3321 -0.2019
 6515TIP3    H141036   0.838   2.941  13.234 -0.4351 -0.9848  0.0771
 6515TIP3    H241037   0.820   2.871  13.101 -0.7804 -2.0848  0.6897
 6516TIP3   OH241038   6.513   1.830   2.777 -0.9078  0.2004  0.4402
 6516TIP3    H141039   6.588   1.848   2.719 -0.6888 -1.4540  0.1690
 6516TIP3    H241040   6.553   1.813   2.862 -1.1795  1.8350  0.9265
 6517TIP3   OH241041   2.507   5.590  13.229 -0.5013  0.3181  0.0129
 6517TIP3    H141042   2.578   5.559  13.286 -1.1818 -3.0391 -0.7099
 6517TIP3    H241043   2.428   5.557  13.271 -1.1506 -0.6335 -1.8389
 6518TIP3   OH241044   4.312   4.554   0.456  0.3291 -0.1213  0.2135
 6518TIP3    H141045   4.381   4.609   0.418  1.8366 -1.8718  0.2573
 6518TIP3    H241046   4.316   4.473   0.406  0.8636 -1.6639  2.5573
 6519TIP3   OH241047   5.460   6.631  14.157  0.1867 -0.2270  0.0358
 6519TIP3    H141048   5.533   6.590  14.205 -0.5021 -0.1134  1.2234
 6519TIP3    H241049   5.433   6.564  14.093  0.7843 -0.5929  0.1534
 6520TIP3   OH241050   0.389   4.399   3.830 -0.3942  0.1686 -0.3226
 6520TIP3    H141051   0.427   4.325   3.877  0.3216  0.5260 -0.3425
 6520TIP3    H241052   0.327   4.437   3.892  0.4261  0.5401  0.2819
 6521TIP3   OH241053   6.175   2.834  10.800  0.0876  0.2919  0.3495
 6521TIP3    H141054   6.153   2.767  10.736 -0.2948  1.3119 -0.6118
 6521TIP3    H241055   6.128   2.808  10.880  0.0353 -0.6322  0.0210
 6522TIP3   OH241056   4.299   0.814   0.949 -0.3426  0.4742 -0.0671
 6522TIP3    H141057   4.243   0.804   0.872 -0.8253  1.4378  0.1527
 6522TIP3    H241058   4.251   0.770   1.020  0.4643 -1.1217 -0.4494
 6523TIP3   OH241059   2.653   1.814  13.204 -0.8342  0.0168  0.6100
 6523TIP3    H141060   2.631   1.756  13.277 -2.3327 -0.5170 -0.2166
 6523TIP3    H241061   2.573   1.818  13.151  0.0176  0.8601 -0.6859
 6524TIP3   OH241062   2.697   4.662  14.465  0.5942 -0.3392  0.5243
 6524TIP3    H141063   2.693   4.707  14.550  0.5402  0.0451  0.3190
 6524TIP3    H241064   2.606   4.640  14.445  0.6277 -0.6073  0.6580
 6525TIP3   OH241065   0.011   2.586   2.522  0.1925  0.5674 -0.3723
 6525TIP3    H141066  -0.044   2.520   2.480  2.1372 -0.7193 -1.0491
 6525TIP3    H241067   0.040   2.642   2.451  0.6937  0.4989 -0.2292
 6526TIP3   OH241068   3.141   5.641   1.484  0.1357 -0.2673  0.0764
 6526TIP3    H141069   3.229   5.609   1.505  0.4735  0.5301 -0.0631
 6526TIP3    H241070   3.101   5.661   1.569  0.0691 -0.6899  0.1431
 6527TIP3   OH241071   3.021   1.352  14.572  0.3053  0.2863  0.0705
 6527TIP3    H141072   2.941   1.399  14.548 -0.4631 -0.3538  1.2853
 6527TIP3    H241073   3.088   1.387  14.513 -1.3681 -0.9960 -2.7499
 6528TIP3   OH241074   0.347   2.708  11.900 -0.0651  0.4303 -0.0511
 6528TIP3    H141075   0.376   2.778  11.841  0.5659  0.8471  0.7402
 6528TIP3    H241076   0.306   2.643  11.842 -1.1841  1.7045 -0.7319
 6529TIP3   OH241077   2.603   0.674  12.130 -0.4884 -0.0896 -0.3807
 6529TIP3    H141078   2.564   0.756  12.099  3.0791  2.2596  0.7086
 6529TIP3    H241079   2.579   0.669  12.222  0.9480  0.9206  0.0812
 6530TIP3   OH241080   6.151   0.567  16.818 -0.1433  0.2764  0.2209
 6530TIP3    H141081   6.215   0.564  16.890 -0.1560  1.2569  0.2820
 6530TIP3    H241082   6.160   0.482  16.775  1.6994  0.6447 -0.1956
 6531TIP3   OH241083   5.540   2.109   5.722  0.2596  0.2070  0.5970
 6531TIP3    H141084   5.633   2.094   5.704  0.3722  0.8998  0.6002
 6531TIP3    H241085   5.532   2.094   5.816 -0.0233 -1.8051  0.3144
 6532TIP3   OH241086   6.455   4.609  13.950  0.3403 -0.1884  0.5372
 6532TIP3    H141087   6.404   4.686  13.927  2.6173  0.9976 -1.0156
 6532TIP3    H241088   6.498   4.584  13.868  0.7991 -2.2264  1.3385
 6533TIP3   OH241089   4.847   2.927   0.415 -0.0493  0.9723 -0.3148
 6533TIP3    H141090   4.801   2.848   0.445  0.9092 -0.1776 -1.7331
 6533TIP3    H241091   4.813   2.941   0.326 -0.2734  2.2431 -0.0491
 6534TIP3   OH241092   2.991   4.278  13.619  0.6459  0.7363  0.7321
 6534TIP3    H141093   2.936   4.356  13.620 -0.5220 -0.0472  0.3668
 6534TIP3    H241094   3.065   4.299  13.677 -0.2997  1.6448  1.6505
 6535TIP3   OH241095   5.888   1.401   4.954 -0.2437  0.1366  0.7820
 6535TIP3    H141096   5.806   1.432   4.914 -0.9680 -1.7419  0.7082
 6535TIP3    H241097   5.899   1.313   4.919  0.5543 -0.5300  2.6286
 6536TIP3   OH241098   0.555   3.458  14.297  0.0645  0.3461  0.2389
 6536TIP3    H141099   0.517   3.528  14.245 -0.6401 -2.1822 -3.0141
 6536TIP3    H241100   0.610   3.502  14.362  0.3607  3.8477 -2.1551
 6537TIP3   OH241101   1.186   5.637  14.631  0.2619 -0.1524  0.5558
 6537TIP3    H141102   1.203   5.714  14.576  0.7855 -0.3174  0.4749
 6537TIP3    H241103   1.258   5.578  14.611  0.3240 -0.3163  1.2365
 6538TIP3   OH241104   1.413   3.156  13.850 -0.0081 -0.1602  0.3030
 6538TIP3    H141105   1.500   3.149  13.811 -0.3565  0.0877 -0.5652
 6538TIP3    H241106   1.360   3.094  13.800 -0.7117  0.9322 -0.3502
 6539TIP3   OH241107   4.349   6.576   3.549 -0.4878 -0.2593 -0.3276
 6539TIP3    H141108   4.287   6.505   3.565  0.4412 -1.4033 -1.6737
 6539TIP3    H241109   4.293   6.653   3.534 -1.5687 -1.1683 -1.0984
 6540TIP3   OH241110   1.537   3.643   0.914 -0.2879 -0.3211 -0.0068
 6540TIP3    H141111   1.560   3.710   0.849  0.2135  0.3232  0.8134
 6540TIP3    H241112   1.619   3.595   0.927 -0.5737 -0.9118 -0.3764
 6541TIP3   OH241113   0.352   4.469   5.997  0.5282  0.2190 -0.0587
 6541TIP3    H141114   0.439   4.430   5.982  1.1894  1.3635  0.6466
 6541TIP3    H241115   0.346   4.477   6.092 -0.6597 -0.4873 -0.0619
 6542TIP3   OH241116   6.048   5.537   2.729 -0.0053  0.7448 -0.8376
 6542TIP3    H141117   6.076   5.561   2.817  0.8343  2.8460 -1.5999
 6542TIP3    H241118   5.959   5.502   2.740  0.0013  1.1750  0.8042
 6543TIP3   OH241119   3.805   6.751   5.786  0.1590 -0.3103  0.3570
 6543TIP3    H141120   3.715   6.766   5.815  0.7367 -0.3766  2.3024
 6543TIP3    H241121   3.831   6.833   5.745 -0.3826  0.1356  0.8930
 6544TIP3   OH241122   4.165   5.431  15.999 -0.1974 -0.0597 -0.4782
 6544TIP3    H141123   4.240   5.490  15.998 -0.9655  0.9582  0.4047
 6544TIP3    H241124   4.196   5.353  16.046  0.5261  0.0190 -0.8081
 6545TIP3   OH241125   3.579   0.342   3.183  0.2884 -0.1699 -0.0359
 6545TIP3    H141126   3.584   0.369   3.274  1.6160  0.5688 -0.3126
 6545TIP3    H241127   3.493   0.372   3.154  0.8794  1.9733  0.2522
 6546TIP3   OH241128   0.136   1.922  15.289  0.0795 -0.6145 -0.4064
 6546TIP3    H141129   0.046   1.892  15.296 -0.6969  1.1822 -1.8954
 6546TIP3    H241130   0.152   1.969  15.371 -0.3106 -0.9870 -0.1135
 6547TIP3   OH241131   3.244   5.171   6.525  0.4348 -0.2060 -0.2742
 6547TIP3    H141132   3.185   5.229   6.572  0.5190 -0.4981  0.2001
 6547TIP3    H241133   3.230   5.192   6.433 -2.1039 -1.8064 -0.3643
 6548TIP3   OH241134   1.469   5.163  13.931 -0.1004  0.2146 -0.0059
 6548TIP3    H141135   1.395   5.164  13.992 -0.4024  1.1638 -0.3699
 6548TIP3    H241136   1.540   5.204  13.980  0.3292 -1.0705  0.4913
 6549TIP3   OH241137   1.106   4.040  11.624 -0.3300 -0.1830 -0.4660
 6549TIP3    H141138   1.177   4.103  11.613 -1.1523  0.7616 -0.5416
 6549TIP3    H241139   1.105   3.990  11.542  1.9937 -2.1155  0.5664
 6550TIP3   OH241140   5.019   0.333   1.494  0.0423  0.2407 -0.4389
 6550TIP3    H141141   4.986   0.311   1.581  1.6379  0.0113  0.1397
 6550TIP3    H241142   5.093   0.391   1.510 -0.1256  0.8460 -1.6948
 6551TIP3   OH241143   4.812   4.424   5.349 -0.7624 -0.0474 -0.1143
 6551TIP3    H141144   4.832   4.444   5.257 -1.9341 -1.5469 -0.7459
 6551TIP3    H241145   4.847   4.499   5.398  0.9383  0.2531 -1.6482
 6552TIP3   OH241146   3.270   1.039   5.031 -0.5342 -0.2280 -0.5817
 6552TIP3    H141147   3.254   0.953   4.991  0.9524 -1.3224  1.0266
 6552TIP3    H241148   3.330   1.083   4.970 -1.5450 -0.1538 -1.5716
 6553TIP3   OH241149   6.053   1.400   0.247 -0.2222  0.4694  0.7914
 6553TIP3    H141150   6.113   1.377   0.176 -1.2869  3.0367 -1.1011
 6553TIP3    H241151   5.981   1.338   0.239 -0.1519  0.4995 -0.1580
 6554TIP3   OH241152   1.195   1.924   5.397  0.0811 -0.3162 -0.2816
 6554TIP3    H141153   1.172   1.831   5.408 -2.8856  0.4405  1.1353
 6554TIP3    H241154   1.111   1.967   5.380  1.3383  2.1658 -0.6616
 6555TIP3   OH241155   4.103   5.134  15.414  0.3317 -0.2261  0.0176
 6555TIP3    H141156   4.130   5.063  15.355 -1.1287  1.0958 -2.4411
 6555TIP3    H241157   4.141   5.112  15.498  0.4183 -3.6088 -0.7793
 6556TIP3   OH241158   5.329   2.126  14.794 -0.3229  0.3454  0.0139
 6556TIP3    H141159   5.300   2.139  14.704 -1.1927  2.0763  0.5023
 6556TIP3    H241160   5.352   2.214  14.825  1.9014 -0.4672  0.8685
 6557TIP3   OH241161   4.575   2.827  12.392  0.0200 -0.4055  1.1041
 6557TIP3    H141162   4.639   2.756  12.389 -1.4207 -1.8826  2.8647
 6557TIP3    H241163   4.627   2.905  12.416  1.2407 -1.4758  2.1224
 6558TIP3   OH241164   4.418   4.255  11.875 -0.1260  0.0744 -0.4125
 6558TIP3    H141165   4.336   4.206  11.874  0.9843 -1.8860 -2.0345
 6558TIP3    H241166   4.432   4.280  11.784  1.1025  0.3541 -0.1648
 6559TIP3   OH241167   5.581   4.178   1.246 -0.3326  0.2241  0.2109
 6559TIP3    H141168   5.592   4.215   1.334 -1.1208  0.4721  0.2097
 6559TIP3    H241169   5.570   4.084   1.261  2.1666 -0.1393  0.1800
 6560TIP3   OH241170   0.866   3.371   4.054 -0.8468 -0.4231  0.3167
 6560TIP3    H141171   0.808   3.341   4.123 -3.3373  0.1942 -1.3695
 6560TIP3    H241172   0.869   3.298   3.992  3.0104 -1.8193  1.8058
 6561TIP3   OH241173   6.265   6.144   0.189  0.2205 -0.2944 -0.4925
 6561TIP3    H141174   6.342   6.174   0.141 -0.3137  0.5703 -0.8450
 6561TIP3    H241175   6.216   6.225   0.207 -1.6589 -0.9723 -2.1222
 6562TIP3   OH241176   5.362   0.701  13.003  0.0543  0.1932 -0.0521
 6562TIP3    H141177   5.421   0.628  13.019 -1.2132 -0.1969  3.9312
 6562TIP3    H241178   5.282   0.659  12.970 -0.2157 -0.0980  0.9418
 6563TIP3   OH241179   1.698   1.604   6.208 -0.7348 -0.3493  0.1285
 6563TIP3    H141180   1.755   1.681   6.211  0.1036 -0.9440  0.0053
 6563TIP3    H241181   1.641   1.619   6.133  0.6061 -0.6199 -1.0014
 6564TIP3   OH241182   6.043   2.388   6.084  0.7363 -0.0441  0.2392
 6564TIP3    H141183   6.108   2.349   6.142  1.4852  1.0173  0.1557
 6564TIP3    H241184   6.057   2.482   6.093  0.8862  0.1450 -1.6734
 6565TIP3   OH241185   2.154   6.537   3.288 -0.2465 -0.1903 -0.4300
 6565TIP3    H141186   2.204   6.562   3.210 -0.0175  0.4892 -0.0812
 6565TIP3    H241187   2.202   6.578   3.360  0.0329 -1.5262  0.1683
 6566TIP3   OH241188   6.448   2.847  14.944  0.1036  0.1410 -0.1258
 6566TIP3    H141189   6.477   2.930  14.983 -1.0585  0.6138 -0.2374
 6566TIP3    H241190   6.470   2.855  14.852 -0.1401  0.3881 -0.1626
 6567TIP3   OH241191   0.507   5.351   0.382  0.3081  0.1720 -0.5034
 6567TIP3    H141192   0.559   5.296   0.441 -0.5239  0.5673  0.6289
 6567TIP3    H241193   0.571   5.408   0.340  0.7543  1.1233  1.3693
 6568TIP3   OH241194   6.015   0.339  16.654  0.3047  0.6983  0.1594
 6568TIP3    H141195   5.946   0.334  16.589  1.2126  1.0002 -0.8545
 6568TIP3    H241196   6.051   0.250  16.658 -1.5303 -0.0545  2.3194
 6569TIP3   OH241197   3.233   3.285  13.463 -0.0639 -0.0006  0.0985
 6569TIP3    H141198   3.184   3.320  13.389 -1.3012 -2.5622 -0.3992
 6569TIP3    H241199   3.273   3.204  13.429 -0.2941 -1.0088  2.0832
 6570TIP3   OH241200   2.392   6.437   3.653 -0.7450  0.0918 -0.1790
 6570TIP3    H141201   2.451   6.488   3.709 -0.9595 -0.4029  0.5189
 6570TIP3    H241202   2.348   6.502   3.599 -1.0959  0.6803  0.7782
 6571TIP3   OH241203   4.502   5.536   0.727 -0.5601 -0.3817  0.2336
 6571TIP3    H141204   4.444   5.585   0.668 -0.3687 -1.3707 -0.8116
 6571TIP3    H241205   4.500   5.586   0.809  0.3936  1.9520 -1.0467
 6572TIP3   OH241206   1.313   6.828  13.416  0.3068 -0.4119  0.2503
 6572TIP3    H141207   1.322   6.908  13.364 -1.2061 -0.6012 -0.3249
 6572TIP3    H241208   1.234   6.786  13.384  2.4732 -3.6097 -1.3891
 6573TIP3   OH241209   3.746   6.492  13.406  0.1820  0.0561 -0.8272
 6573TIP3    H141210   3.830   6.537  13.400 -0.4134  1.3882  0.2337
 6573TIP3    H241211   3.729   6.484  13.500 -0.3146 -1.3156 -1.0124
 6574TIP3   OH241212   1.098   3.770  14.168  0.6094  0.6836  0.2798
 6574TIP3    H141213   1.164   3.731  14.225 -0.4266 -0.3115  0.8256
 6574TIP3    H241214   1.016   3.759  14.215  0.0796  2.2209 -0.2362
 6575TIP3   OH241215   4.285   2.802   0.146  0.2426 -0.1062  0.2417
 6575TIP3    H141216   4.320   2.871   0.089  0.7932 -2.7739 -2.9314
 6575TIP3    H241217   4.259   2.848   0.226  0.9857  3.6592 -1.4744
 6576TIP3   OH241218   3.935   1.937  12.796  0.2749 -0.2099  0.1036
 6576TIP3    H141219   3.918   1.942  12.890 -0.0729  1.1411 -0.0215
 6576TIP3    H241220   3.879   1.865  12.766  1.6787 -1.8615  1.1806
 6577TIP3   OH241221   5.978   5.158   4.986  0.1538 -0.0839  0.5194
 6577TIP3    H141222   5.936   5.228   4.936  1.9460 -0.4546 -1.6551
 6577TIP3    H241223   5.928   5.079   4.963  1.9068 -0.5576 -2.2111
 6578TIP3   OH241224   5.427   2.888   1.096 -0.2822 -0.9393  0.1241
 6578TIP3    H141225   5.418   2.954   1.027 -0.9777  0.1436  1.2196
 6578TIP3    H241226   5.461   2.936   1.171  1.2828 -2.2723  0.3273
 6579TIP3   OH241227   5.266   4.082  16.458 -0.1094 -0.1795  0.0353
 6579TIP3    H141228   5.197   4.045  16.513 -1.6092  0.9140 -1.0194
 6579TIP3    H241229   5.319   4.135  16.518 -0.7833 -0.2324  0.6940
 6580TIP3   OH241230   2.906   2.650  11.277  0.0904 -0.0513  0.0391
 6580TIP3    H141231   2.921   2.672  11.186  1.2531  2.7622  0.8056
 6580TIP3    H241232   2.971   2.582  11.296  0.9072  0.4490 -0.8519
 6581TIP3   OH241233   6.491   0.459   2.076  0.5188 -0.1114 -0.4832
 6581TIP3    H141234   6.531   0.380   2.040  1.9612  1.5146 -2.6971
 6581TIP3    H241235   6.433   0.490   2.006 -0.2465  0.6629  0.4689
 6582TIP3   OH241236   4.503   1.407   1.729 -0.0829  0.2344 -0.3028
 6582TIP3    H141237   4.433   1.369   1.676  1.2107 -0.3886 -1.6389
 6582TIP3    H241238   4.504   1.499   1.705  0.2994  0.0130 -1.1753
 6583TIP3   OH241239   6.485   5.475   5.693  0.4621 -0.9853  0.1121
 6583TIP3    H141240   6.550   5.448   5.757 -0.2848  1.1591  1.9043
 6583TIP3    H241241   6.525   5.549   5.648  0.1441 -1.1010 -0.3706
 6584TIP3   OH241242   5.087   6.301   5.601 -0.5802  0.4340  0.1638
 6584TIP3    H141243   5.107   6.277   5.691 -1.6030  0.6962  0.4787
 6584TIP3    H241244   5.131   6.386   5.589  0.4544 -0.1022  0.0500
 6585TIP3   OH241245   2.498   2.947   2.888 -0.0421  0.5278 -0.5449
 6585TIP3    H141246   2.567   2.951   2.822 -0.3321 -1.1123 -1.0004
 6585TIP3    H241247   2.461   3.035   2.890 -0.1238  0.5855 -2.6890
 6586TIP3   OH241248   2.096   1.623  14.652 -0.0776 -0.4443 -0.5396
 6586TIP3    H141249   2.146   1.598  14.575  1.0215  1.6179 -0.5791
 6586TIP3    H241250   2.099   1.546  14.709  1.7191 -0.9816 -1.2846
 6587TIP3   OH241251   2.352   4.660  15.796  0.4707 -0.4335 -0.1274
 6587TIP3    H141252   2.302   4.701  15.866  1.8661  0.4108  0.4186
 6587TIP3    H241253   2.406   4.594  15.840  0.0341 -1.1718 -0.6717
 6588TIP3   OH241254   1.946   0.573  14.338  0.4014  0.3254  0.2711
 6588TIP3    H141255   1.996   0.644  14.299 -0.6829  0.4719 -0.9004
 6588TIP3    H241256   1.860   0.611  14.357 -0.1862 -0.6408 -0.3522
 6589TIP3   OH241257   6.349   3.412  13.092  0.1985  0.1448 -0.5278
 6589TIP3    H141258   6.368   3.321  13.115 -0.0255 -0.2199 -1.7298
 6589TIP3    H241259   6.308   3.407  13.006  1.3972  1.4938 -1.2141
 6590TIP3   OH241260   6.125   0.427  14.038  0.3535  0.2668 -0.3961
 6590TIP3    H141261   6.098   0.517  14.021 -0.8552 -0.2003 -1.0890
 6590TIP3    H241262   6.048   0.375  14.016  1.6321 -1.0992 -1.9066
 6591TIP3   OH241263   2.321   2.105   0.450 -0.2537 -0.3263 -0.2449
 6591TIP3    H141264   2.346   2.092   0.541  1.0472  1.8153 -0.2416
 6591TIP3    H241265   2.356   2.028   0.405 -1.5526 -1.7807  1.1239
 6592TIP3   OH241266   0.185   6.237   0.810  0.2328  0.3092  0.3025
 6592TIP3    H141267   0.259   6.181   0.787  0.1021 -0.4903  1.7197
 6592TIP3    H241268   0.181   6.301   0.739  1.8818 -0.0114 -0.1299
 6593TIP3   OH241269   5.009   2.321  13.338  0.7285  0.6050 -0.0227
 6593TIP3    H141270   5.073   2.392  13.343  0.5889  0.7382 -0.1296
 6593TIP3    H241271   4.963   2.324  13.422  1.3294  0.0647  0.3386
 6594TIP3   OH241272   4.533   2.359  15.586 -0.0252 -0.1461 -0.3924
 6594TIP3    H141273   4.626   2.379  15.588 -0.0960  0.5056 -1.8951
 6594TIP3    H241274   4.501   2.380  15.674  1.2358 -0.4165  0.1479
 6595TIP3   OH241275   1.236   3.411   5.797 -0.2090  0.6297 -0.1136
 6595TIP3    H141276   1.280   3.335   5.759  0.0872 -0.1975  1.7710
 6595TIP3    H241277   1.192   3.378   5.875 -1.8469  2.0097 -0.3912
 6596TIP3   OH241278   6.666   2.277   6.319 -0.1108 -0.9261  1.2023
 6596TIP3    H141279   6.646   2.362   6.358  1.6831  0.1004  0.0120
 6596TIP3    H241280   6.647   2.288   6.226  0.8461 -1.5613  0.9101
 6597TIP3   OH241281   2.267   3.425   4.892  0.3604 -0.0196  0.3219
 6597TIP3    H141282   2.352   3.468   4.889  0.2904  0.1257  0.4104
 6597TIP3    H241283   2.254   3.405   4.985  0.2184  0.1216  0.3333
 6598TIP3   OH241284   2.198   2.375   1.228 -0.4529  0.0652  0.0936
 6598TIP3    H141285   2.252   2.442   1.269 -0.4684  0.2602 -0.2051
 6598TIP3    H241286   2.123   2.365   1.287  0.3049 -0.8037  0.9478
 6599TIP3   OH241287   1.607   1.295   5.246  0.3619  0.4637 -0.2848
 6599TIP3    H141288   1.648   1.235   5.183  2.0707  0.5724  0.6373
 6599TIP3    H241289   1.589   1.374   5.196  1.1431  0.3383 -0.7901
 6600TIP3   OH241290   6.790   6.317  13.897  0.1992 -0.2075 -0.2023
 6600TIP3    H141291   6.872   6.351  13.932 -1.1195  3.4145 -0.2426
 6600TIP3    H241292   6.763   6.250  13.960  1.8432  0.4651  1.3027
 6601TIP3   OH241293   0.876   6.579  12.119  0.2510 -0.3256  0.0958
 6601TIP3    H141294   0.970   6.591  12.124  0.2641 -0.4260  0.1050
 6601TIP3    H241295   0.846   6.644  12.056  0.6327 -1.8686 -1.7666
 6602TIP3   OH241296   6.134   1.474   4.172  0.1888  0.4010  0.5873
 6602TIP3    H141297   6.109   1.521   4.093 -0.1278 -1.7797 -0.7093
 6602TIP3    H241298   6.062   1.412   4.186  1.2846 -0.7826  1.2312
 6603TIP3   OH241299   1.364   1.660  13.548 -0.4471  0.8012 -0.5180
 6603TIP3    H141300   1.322   1.574  13.554  2.0759 -0.6979 -2.1228
 6603TIP3    H241301   1.354   1.698  13.635  1.4187 -2.7510  1.4950
 6604TIP3   OH241302   6.578   2.580  11.306  0.8662  0.3118 -0.2523
 6604TIP3    H141303   6.617   2.552  11.223  2.7415 -0.8416  0.9474
 6604TIP3    H241304   6.631   2.655  11.334  0.8773  0.0728  0.3766
 6605TIP3   OH241305   5.777   5.907   2.039  0.5853 -0.9465 -0.2511
 6605TIP3    H141306   5.735   5.991   2.056  0.4543 -1.2161  0.8086
 6605TIP3    H241307   5.853   5.929   1.985  1.3727  0.0398  1.2066
 6606TIP3   OH241308   3.181   2.529  14.938 -0.1203  0.2651 -0.1171
 6606TIP3    H141309   3.219   2.602  14.889  1.2628 -0.9605 -0.9444
 6606TIP3    H241310   3.223   2.451  14.901 -0.8761 -0.8877  1.3697
 6607TIP3   OH241311   4.875   2.488  13.828 -0.0774 -0.2086 -0.0416
 6607TIP3    H141312   4.787   2.527  13.823 -0.5027 -0.9543  1.1581
 6607TIP3    H241313   4.860   2.401  13.865  1.0651 -0.7758 -0.8608
 6608TIP3   OH241314   6.087   6.309  11.684 -0.4800 -0.0315  0.0798
 6608TIP3    H141315   6.149   6.381  11.682 -1.2917  0.8087  2.1933
 6608TIP3    H241316   6.113   6.256  11.760 -0.4489 -1.4860 -0.9012
 6609TIP3   OH241317   2.139   6.057  11.872  0.0420 -0.1807 -0.2184
 6609TIP3    H141318   2.210   6.065  11.935  0.3173 -1.0366 -0.4021
 6609TIP3    H241319   2.173   5.997  11.805 -0.1869  0.8297 -1.2683
 6610TIP3   OH241320   6.527   1.428   3.174  0.4666 -0.2351  0.3204
 6610TIP3    H141321   6.568   1.342   3.165  0.4094 -0.2331  0.0228
 6610TIP3    H241322   6.436   1.409   3.196  0.7809 -0.2323  1.6974
 6611TIP3   OH241323   3.311   0.023   4.524  0.4731  0.0266  0.4143
 6611TIP3    H141324   3.344  -0.046   4.466 -1.6513 -1.1579  0.5040
 6611TIP3    H241325   3.299  -0.021   4.609 -2.3246  0.0018  0.1011
 6612TIP3   OH241326   0.715   3.956   1.367 -0.0583 -0.7316 -0.2885
 6612TIP3    H141327   0.629   3.995   1.352 -0.4813 -1.7421 -0.5366
 6612TIP3    H241328   0.755   3.953   1.280  0.1442 -0.4776 -0.2067
 6613TIP3   OH241329   0.786   4.877  15.244 -0.6383 -0.2579 -0.4652
 6613TIP3    H141330   0.726   4.837  15.307  1.5127 -0.2963  1.7069
 6613TIP3    H241331   0.788   4.970  15.269  0.5264 -0.3435 -0.1954
 6614TIP3   OH241332   3.506   0.108   2.539 -0.1183  0.0199 -0.4568
 6614TIP3    H141333   3.511   0.020   2.578  1.0566  0.7215  1.0446
 6614TIP3    H241334   3.540   0.097   2.451 -0.3876 -1.1075 -0.4414
 6615TIP3   OH241335   5.423   3.067  11.768  0.0432  0.1097  0.5962
 6615TIP3    H141336   5.504   3.070  11.717 -1.2271 -0.0031 -1.5497
 6615TIP3    H241337   5.358   3.028  11.709 -1.5789  0.0911  2.2688
 6616TIP3   OH241338   6.751   1.932  13.196 -0.1252 -0.0997  0.7022
 6616TIP3    H141339   6.831   1.980  13.220  2.0847 -3.1481  0.1136
 6616TIP3    H241340   6.769   1.899  13.108 -1.3130 -2.2017  1.1765
 6617TIP3   OH241341   1.944   3.822   0.969 -0.3291  0.2603 -0.7427
 6617TIP3    H141342   1.963   3.731   0.948  0.1972  0.6540 -2.1041
 6617TIP3    H241343   1.931   3.864   0.884 -0.7460  1.4188 -0.1313
 6618TIP3   OH241344   2.663   2.202   3.363  0.0915 -0.4420 -0.2152
 6618TIP3    H141345   2.691   2.167   3.448 -0.3014 -3.3010 -1.1687
 6618TIP3    H241346   2.743   2.238   3.325  0.4956 -0.1287  0.8622
 6619TIP3   OH241347   4.548   2.930   5.592 -0.1653  0.8310  0.0131
 6619TIP3    H141348   4.581   2.959   5.677 -1.4320  0.0098  0.8254
 6619TIP3    H241349   4.580   2.995   5.530  0.9011  1.3719  1.0919
 6620TIP3   OH241350   3.937   2.538   5.794 -0.3959  0.0170 -0.1999
 6620TIP3    H141351   4.023   2.566   5.825 -0.1379 -1.0642  0.1140
 6620TIP3    H241352   3.942   2.547   5.699 -0.8258  2.3389 -0.0520
 6621TIP3   OH241353   6.539   2.219  17.184  0.0642  0.2005  0.7383
 6621TIP3    H141354   6.554   2.125  17.174  0.3567  0.4759 -2.7477
 6621TIP3    H241355   6.453   2.233  17.143  0.9265  1.6334 -0.7302
 6622TIP3   OH241356   1.129   3.483   0.997  0.4049 -0.3443  0.2877
 6622TIP3    H141357   1.141   3.396   1.036  0.7094 -1.1174 -1.4320
 6622TIP3    H241358   1.216   3.505   0.963  0.3343  0.6544  0.7517
 6623TIP3   OH241359   6.574   2.787  12.131  0.5525 -0.2432 -0.1212
 6623TIP3    H141360   6.559   2.763  12.039  2.2255  0.9026 -0.7213
 6623TIP3    H241361   6.486   2.809  12.163 -0.1182 -0.9930 -1.3189
 6624TIP3   OH241362   0.289   3.649   0.496 -0.1933 -0.6284 -0.2877
 6624TIP3    H141363   0.339   3.676   0.418 -0.3372  1.4130  0.2598
 6624TIP3    H241364   0.201   3.681   0.481 -0.2292 -0.2180  0.6910
 6625TIP3   OH241365   5.895   3.540   4.056 -0.0655  0.5904 -0.4575
 6625TIP3    H141366   5.931   3.485   3.987 -0.8692  1.4586 -1.6088
 6625TIP3    H241367   5.848   3.479   4.113  1.4582 -0.2730 -0.0822
 6626TIP3   OH241368   1.457   1.087  13.174  0.0234 -0.0673  0.2511
 6626TIP3    H141369   1.470   1.173  13.213  0.8440 -0.2323  0.3604
 6626TIP3    H241370   1.482   1.098  13.082  1.5622 -0.5332  0.5977
 6627TIP3   OH241371   2.339   2.908   2.121 -0.0654  0.1487  0.5872
 6627TIP3    H141372   2.279   2.869   2.057  0.9924  0.8637 -0.8870
 6627TIP3    H241373   2.283   2.966   2.173 -0.8852 -0.1237  0.0423
 6628TIP3   OH241374   3.982   2.593  13.650 -0.2603  0.3224 -0.3304
 6628TIP3    H141375   4.036   2.667  13.676  0.0477 -0.0856  0.2153
 6628TIP3    H241376   4.043   2.533  13.607 -0.4715  0.3019 -0.6044
 6629TIP3   OH241377   1.994   1.067   3.071  0.6455 -0.0537 -0.0868
 6629TIP3    H141378   2.072   1.012   3.084 -0.2047 -1.1760  0.4124
 6629TIP3    H241379   1.985   1.116   3.153  0.3996 -0.4773  0.1388
 6630TIP3   OH241380   3.684   3.606   4.567 -0.0576 -0.4817 -0.2078
 6630TIP3    H141381   3.593   3.633   4.561  0.2924  0.7459 -0.3399
 6630TIP3    H241382   3.718   3.614   4.478  0.6851  1.0526  0.1744
 6631TIP3   OH241383   4.276   2.660  14.612 -0.1960  0.4218  0.6298
 6631TIP3    H141384   4.273   2.578  14.562  2.0432  0.3882  0.4837
 6631TIP3    H241385   4.185   2.691  14.612 -1.3573 -2.6592  1.7520
 6632TIP3   OH241386   6.478   4.798   4.868  0.2268 -0.4788  0.2739
 6632TIP3    H141387   6.478   4.835   4.779  0.5087 -1.0533  0.0325
 6632TIP3    H241388   6.404   4.738   4.868  0.4746 -0.7850  0.2973
 6633TIP3   OH241389   1.866   0.570   3.407 -0.2535 -0.5064 -0.5180
 6633TIP3    H141390   1.889   0.658   3.377 -1.5615  0.0846  0.1516
 6633TIP3    H241391   1.919   0.557   3.485  0.6477 -0.7095 -1.1447
 6634TIP3   OH241392   1.770   5.700  15.824  0.3309 -0.1246 -0.8228
 6634TIP3    H141393   1.840   5.650  15.781 -1.4289 -0.2293 -3.9022
 6634TIP3    H241394   1.725   5.744  15.751 -1.5967  1.5055  1.2285
 6635TIP3   OH241395   1.807   2.134  12.871  0.0274  0.8946 -0.3594
 6635TIP3    H141396   1.766   2.087  12.799 -0.3627  0.4793  0.1318
 6635TIP3    H241397   1.796   2.226  12.848 -0.0471  0.7698 -0.8528
 6636TIP3   OH241398   1.711   4.278  10.884 -0.1942  0.1021  0.5791
 6636TIP3    H141399   1.649   4.206  10.886  0.1278 -0.1580  1.5061
 6636TIP3    H241400   1.746   4.283  10.973  0.4568  0.8172  0.2991
 6637TIP3   OH241401   3.814   6.118   2.360 -0.4205  0.5645 -0.2746
 6637TIP3    H141402   3.864   6.196   2.337  0.4020 -0.2645 -1.4327
 6637TIP3    H241403   3.727   6.134   2.322  0.5574 -0.2400 -3.1116
 6638TIP3   OH241404   2.332   4.859  13.576 -0.5101 -0.4863 -0.3154
 6638TIP3    H141405   2.400   4.792  13.579  0.3085  0.3115 -0.2597
 6638TIP3    H241406   2.283   4.840  13.496  0.1817 -0.7159 -0.6965
 6639TIP3   OH241407   0.720   2.126   4.625  0.0763  0.2104 -0.0317
 6639TIP3    H141408   0.738   2.047   4.677  0.8534  0.8791  0.7642
 6639TIP3    H241409   0.800   2.140   4.575 -0.9537 -0.8966 -2.1379
 6640TIP3   OH241410   2.556   4.581  11.592 -0.1730 -0.2870 -0.3374
 6640TIP3    H141411   2.523   4.511  11.647 -0.9644 -1.5349 -2.2689
 6640TIP3    H241412   2.496   4.654  11.606 -0.0878 -0.4126  0.7409
 6641TIP3   OH241413   5.207   1.896   3.865 -0.3361 -0.1140  0.2012
 6641TIP3    H141414   5.155   1.873   3.942  0.5539 -0.8320  0.6058
 6641TIP3    H241415   5.147   1.947   3.810 -0.9043  0.6815  1.4936
 6642TIP3   OH241416   1.118   6.504   3.977 -0.3322  0.1690  0.3900
 6642TIP3    H141417   1.024   6.487   3.972 -0.6571  1.6522  0.9318
 6642TIP3    H241418   1.159   6.421   3.953 -1.7742 -0.7217  0.8922
 6643TIP3   OH241419   1.305   3.410   4.801 -0.2486  0.1414  0.1766
 6643TIP3    H141420   1.343   3.497   4.789 -3.0553  1.8872  2.4179
 6643TIP3    H241421   1.222   3.414   4.754 -0.6612 -1.1102  0.7532
 6644TIP3   OH241422   0.898   2.759   3.092  0.3786 -0.0536 -0.0563
 6644TIP3    H141423   0.857   2.832   3.044 -1.7003 -1.1806 -0.1167
 6644TIP3    H241424   0.951   2.714   3.027  1.3315  1.1182 -0.1245
 6645TIP3   OH241425   3.278   0.886  11.195 -0.3518  0.0340  0.3847
 6645TIP3    H141426   3.357   0.842  11.164  0.7398  1.0392  1.6392
 6645TIP3    H241427   3.273   0.966  11.141 -1.2495 -0.6438 -0.5667
 6646TIP3   OH241428   2.245   6.343   0.454 -0.2165 -0.4133 -0.2966
 6646TIP3    H141429   2.236   6.407   0.524 -3.8153 -0.0277 -0.9212
 6646TIP3    H241430   2.333   6.307   0.466  1.2289  3.1396  1.3068
 6647TIP3   OH241431   0.394   1.073  10.600 -0.5789 -0.1781 -0.0000
 6647TIP3    H141432   0.384   1.166  10.578 -0.1095 -0.2667 -0.6236
 6647TIP3    H241433   0.450   1.038  10.530 -1.8662 -1.2289 -0.5397
 6648TIP3   OH241434   4.624   2.575  13.966  0.2895  0.1949  0.3975
 6648TIP3    H141435   4.620   2.480  13.963  0.2982  0.2150 -0.4970
 6648TIP3    H241436   4.585   2.598  14.050 -0.4801 -0.5586  0.2587
 6649TIP3   OH241437   1.234   5.870  12.149 -0.7209 -0.6343 -0.0333
 6649TIP3    H141438   1.231   5.828  12.063  0.5037 -1.6686  0.4004
 6649TIP3    H241439   1.180   5.813  12.204 -2.4621  0.6544 -0.3379
 6650TIP3   OH241440   4.579   2.662   1.103  0.5559 -0.0516 -0.8014
 6650TIP3    H141441   4.666   2.658   1.142  0.1174 -0.1224  0.1931
 6650TIP3    H241442   4.523   2.699   1.171  0.0966  1.5496 -1.9702
 6651TIP3   OH241443   0.255   6.705   4.155 -0.2434  0.1726  0.4425
 6651TIP3    H141444   0.224   6.794   4.166 -0.4273  0.4844 -2.0644
 6651TIP3    H241445   0.323   6.694   4.222  2.1918  3.3563 -1.2652
 6652TIP3   OH241446   1.751   3.112   4.038 -0.4792  1.0852  0.4021
 6652TIP3    H141447   1.785   3.072   4.118  1.8219 -2.8521 -2.2053
 6652TIP3    H241448   1.827   3.155   3.998 -0.7634  0.2874 -1.0751
 6653TIP3   OH241449   0.385   5.703   4.570  0.4277 -0.2507  0.3462
 6653TIP3    H141450   0.388   5.719   4.664 -1.6945  1.8990  0.1537
 6653TIP3    H241451   0.407   5.788   4.531 -1.8035 -0.2091 -0.9935
 6654TIP3   OH241452   1.767   0.289   1.778 -0.2076 -0.0430  0.5508
 6654TIP3    H141453   1.706   0.240   1.834  1.1383 -0.3635  1.7807
 6654TIP3    H241454   1.772   0.376   1.819  0.3162 -0.0839  0.5770
 6655TIP3   OH241455   5.847   1.748  16.881 -0.1308  0.5960  0.2845
 6655TIP3    H141456   5.914   1.813  16.902  0.3100  0.6655 -1.2268
 6655TIP3    H241457   5.783   1.796  16.827 -0.9878  0.3284  1.0390
 6656TIP3   OH241458   6.705   0.067   2.736  0.2256 -0.3024  0.6037
 6656TIP3    H141459   6.744   0.150   2.709 -1.1438 -0.1861 -1.2132
 6656TIP3    H241460   6.612   0.085   2.743  0.0880 -1.3367  1.6646
 6657TIP3   OH241461   0.110   2.697   6.783 -0.1842 -0.2470 -0.1190
 6657TIP3    H141462   0.167   2.631   6.824 -1.1754 -0.8764  0.3009
 6657TIP3    H241463   0.170   2.765   6.753  1.0416 -1.8842 -1.6802
 6658TIP3   OH241464   0.300   2.585  13.098  0.5505  0.4442  0.2820
 6658TIP3    H141465   0.299   2.650  13.027 -0.4942 -1.0847 -1.1703
 6658TIP3    H241466   0.268   2.505  13.058 -1.1838 -0.2243  2.7585
 6659TIP3   OH241467   3.331   6.717  15.031  0.0584  0.3197 -0.1662
 6659TIP3    H141468   3.353   6.637  14.983  0.4535  0.2938  0.0490
 6659TIP3    H241469   3.270   6.764  14.975  0.7545  0.4388 -0.8405
 6660TIP3   OH241470   2.795   4.656  13.077  0.1192 -0.4837  0.0190
 6660TIP3    H141471   2.776   4.612  12.994  0.3656 -1.4593  0.4687
 6660TIP3    H241472   2.886   4.685  13.069  0.0274 -0.2525 -0.1923
 6661TIP3   OH241473   6.727   3.732  13.269  0.0393  0.0553  0.0443
 6661TIP3    H141474   6.659   3.667  13.251 -1.3690  1.3618  0.3389
 6661TIP3    H241475   6.682   3.798  13.322  1.7536  0.6344  0.8280
 6662TIP3   OH241476   6.810   5.862   3.023 -0.6608  0.4813 -0.3511
 6662TIP3    H141477   6.849   5.945   3.052 -0.7991  0.4590 -0.0917
 6662TIP3    H241478   6.843   5.798   3.086 -0.0389  0.2233 -0.9334
 6663TIP3   OH241479   1.122   6.289   5.845 -0.2788  0.5306  0.3236
 6663TIP3    H141480   1.191   6.272   5.781 -0.6195 -2.1647  0.5659
 6663TIP3    H241481   1.137   6.224   5.914 -0.8202  2.3586  2.2763
 6664TIP3   OH241482   6.582   3.222  11.938 -0.2845  0.3144 -0.4115
 6664TIP3    H141483   6.617   3.173  12.012 -0.2108  1.0597  0.0582
 6664TIP3    H241484   6.627   3.186  11.861  1.6696  1.3482  0.1756
 6665TIP3   OH241485   4.550   0.495   4.513 -0.3242 -0.6060 -0.5095
 6665TIP3    H141486   4.520   0.467   4.599 -0.0546 -1.1171 -0.5757
 6665TIP3    H241487   4.624   0.437   4.494  0.3486  0.2732 -0.5817
 6666TIP3   OH241488   6.064   3.043  15.424  0.1734 -0.1945  0.3807
 6666TIP3    H141489   6.148   3.061  15.382  0.1047  1.8200  0.9953
 6666TIP3    H241490   5.999   3.083  15.366 -0.0830  0.8110  1.3171
 6667TIP3   OH241491   4.937   3.078  15.669  0.7687 -0.3119 -0.0248
 6667TIP3    H141492   4.912   3.050  15.757 -1.5438  0.6335 -0.3328
 6667TIP3    H241493   4.871   3.041  15.612  2.7940 -1.7713 -1.5853
 6668TIP3   OH241494   1.892   4.731   0.840  0.0069  0.0757 -0.2755
 6668TIP3    H141495   1.966   4.789   0.822  1.5000 -0.6281  2.8137
 6668TIP3    H241496   1.844   4.775   0.911  1.0246 -2.1178  1.9529
 6669TIP3   OH241497   5.868   0.614   1.233  0.5029  0.1509 -0.3588
 6669TIP3    H141498   5.840   0.655   1.152  1.8928  0.8124 -0.5439
 6669TIP3    H241499   5.789   0.573   1.269 -0.4213  1.0255 -1.3388
 6670TIP3   OH241500   0.949   5.188   2.624 -0.0652 -0.2574  0.4122
 6670TIP3    H141501   0.878   5.136   2.660 -0.6829  0.5485  0.3835
 6670TIP3    H241502   0.953   5.265   2.680  0.1809  0.1403 -0.1391
 6671TIP3   OH241503   1.348   5.667   2.097  0.2198  0.1246 -0.3433
 6671TIP3    H141504   1.269   5.651   2.045 -1.1936  1.7681  1.1816
 6671TIP3    H241505   1.359   5.587   2.148  0.9094 -1.0135 -2.1424
 6672TIP3   OH241506   5.744   6.084   1.018 -0.3681 -0.4851  0.3248
 6672TIP3    H141507   5.671   6.146   1.015 -0.2010 -0.2963  0.1475
 6672TIP3    H241508   5.702   5.999   1.026 -0.6249 -0.4067 -0.1049
 6673TIP3   OH241509   5.996   5.657  16.676 -0.0552 -0.1664 -0.5684
 6673TIP3    H141510   5.909   5.639  16.711  0.3132  1.0230  1.0891
 6673TIP3    H241511   5.997   5.615  16.590 -1.3409 -2.4611  0.4472
 6674TIP3   OH241512   4.133   6.198   1.402  0.1514  0.4745 -0.4494
 6674TIP3    H141513   4.102   6.107   1.395  1.4206  0.0042 -0.2997
 6674TIP3    H241514   4.214   6.199   1.351 -1.2128  2.2380 -2.7387
 6675TIP3   OH241515   5.615   1.419  16.335 -0.0102 -0.3937 -0.1401
 6675TIP3    H141516   5.552   1.355  16.301 -0.0286  0.2303 -1.3301
 6675TIP3    H241517   5.578   1.504  16.311 -0.1534  0.0954  1.7180
 6676TIP3   OH241518   1.738   4.162  13.285 -0.0377 -0.6352  0.3639
 6676TIP3    H141519   1.666   4.099  13.293 -0.9227  0.2520 -0.2310
 6676TIP3    H241520   1.721   4.226  13.353 -1.0882  0.7527 -1.1295
 6677TIP3   OH241521   3.203   1.216  12.135 -0.0498  0.6874 -0.1126
 6677TIP3    H141522   3.169   1.304  12.118 -1.3298  0.3552  0.5857
 6677TIP3    H241523   3.241   1.221  12.222  0.7091  0.7670 -0.4400
 6678TIP3   OH241524   2.416   2.275  12.246 -0.3026  0.5973  1.1255
 6678TIP3    H141525   2.435   2.354  12.296  1.9604  0.9559 -0.1798
 6678TIP3    H241526   2.424   2.301  12.155 -0.7832 -0.8529  0.6333
 6679TIP3   OH241527   3.097   4.638  15.386 -0.4724 -0.2095  0.4217
 6679TIP3    H141528   3.189   4.616  15.405 -0.3041 -0.5340 -0.6958
 6679TIP3    H241529   3.088   4.623  15.293 -1.6555 -0.0851  0.5058
 6680TIP3   OH241530   3.810   5.043  16.675  0.2313 -0.2865  0.2151
 6680TIP3    H141531   3.722   5.080  16.667  0.3009 -0.3435 -0.9580
 6680TIP3    H241532   3.817   5.018  16.767  0.6957  3.8288  1.4615
 6681TIP3   OH241533   6.177   3.982   5.974 -0.7942 -0.4193 -0.4169
 6681TIP3    H141534   6.194   3.894   6.007  1.7076 -0.7724 -2.2828
 6681TIP3    H241535   6.108   4.017   6.030  0.2913 -2.4121  2.3859
 6682TIP3   OH241536   0.439   1.342  11.406 -0.3109 -0.2403  0.1055
 6682TIP3    H141537   0.445   1.295  11.489 -0.7355  1.4183  1.1201
 6682TIP3    H241538   0.395   1.424  11.428  0.1064  0.4993 -1.6555
 6683TIP3   OH241539   5.975   0.456   4.561 -0.4139 -0.5907  0.1013
 6683TIP3    H141540   5.883   0.436   4.543 -0.0931 -2.6893  0.5811
 6683TIP3    H241541   5.973   0.496   4.649 -0.7732 -1.8084  0.6713
 6684TIP3   OH241542   5.472   1.183   5.288  0.0685  0.5572  0.7239
 6684TIP3    H141543   5.435   1.148   5.370 -0.6548 -0.0467  0.1505
 6684TIP3    H241544   5.542   1.242   5.317 -0.0483  0.2025  1.7733
 6685TIP3   OH241545   1.303   2.608  13.090 -0.2373 -0.2228 -0.1396
 6685TIP3    H141546   1.367   2.546  13.124 -1.2947 -0.2449  1.9773
 6685TIP3    H241547   1.219   2.565  13.103 -1.1563  2.0911  2.8044
 6686TIP3   OH241548   3.170   0.218  15.444  0.0936  0.4926  0.4391
 6686TIP3    H141549   3.175   0.296  15.387  2.9187 -0.0225 -0.1704
 6686TIP3    H241550   3.205   0.147  15.390  0.3213 -0.5894  1.9566
 6687TIP3   OH241551   1.014   5.851   0.690  0.1002 -0.1506  0.1013
 6687TIP3    H141552   0.942   5.901   0.727  0.6447  1.1453 -0.5323
 6687TIP3    H241553   1.033   5.784   0.755 -1.3421 -0.2053  0.4924
 6688TIP3   OH241554   4.377   3.565   0.505  0.1438  0.6617  0.2657
 6688TIP3    H141555   4.324   3.551   0.426  1.4419  0.6420 -0.6346
 6688TIP3    H241556   4.313   3.566   0.577 -1.0154  0.1559 -0.7184
 6689TIP3   OH241557   6.026   0.472  11.218 -0.3298 -0.1277 -0.3032
 6689TIP3    H141558   5.931   0.477  11.208 -0.3165 -0.8769 -0.9455
 6689TIP3    H241559   6.056   0.431  11.137  0.6422  0.9664 -0.5186
 6690TIP3   OH241560   5.586   4.595  15.042  0.2199 -0.9315  0.0898
 6690TIP3    H141561   5.532   4.542  14.984 -1.9315 -0.0149  1.1294
 6690TIP3    H241562   5.562   4.685  15.022 -0.9780 -0.5783  2.6369
 6691TIP3   OH241563   3.657   1.371  16.778  0.4502 -0.8122 -0.1173
 6691TIP3    H141564   3.574   1.408  16.748  0.9821 -0.4516 -1.2240
 6691TIP3    H241565   3.637   1.329  16.862 -0.0201  2.7470  1.7120
 6692TIP3   OH241566   5.768   3.350   2.788  0.3169 -0.5280  0.2879
 6692TIP3    H141567   5.772   3.283   2.856 -2.2603 -1.9308 -0.7797
 6692TIP3    H241568   5.724   3.424   2.830  0.5979 -0.5924  0.7029
 6693TIP3   OH241569   1.064   4.216  17.181 -0.0065 -0.4743 -0.0481
 6693TIP3    H141570   1.111   4.153  17.126 -0.9779 -1.5645  0.3068
 6693TIP3    H241571   0.991   4.165  17.218  0.0869  0.4541  1.5146
 6694TIP3   OH241572   3.555   2.873   4.608 -0.2018  0.5033  0.2787
 6694TIP3    H141573   3.581   2.887   4.699  1.3560  0.2699 -0.0951
 6694TIP3    H241574   3.537   2.779   4.601  3.1980 -0.2196 -0.4083
 6695TIP3   OH241575   3.597   0.205   0.878 -0.3970  0.1664 -1.4080
 6695TIP3    H141576   3.648   0.207   0.959  1.4792 -0.5289 -2.5105
 6695TIP3    H241577   3.507   0.219   0.906  0.2391  0.2853  0.7530
 6696TIP3   OH241578   4.178   2.432   3.395 -0.0198  0.0856 -0.2185
 6696TIP3    H141579   4.251   2.469   3.345 -0.4478  1.6106  0.2321
 6696TIP3    H241580   4.104   2.489   3.374 -0.5895 -0.2384  0.8768
 6697TIP3   OH241581   3.689   4.181   4.987 -0.1386  0.6088 -0.0903
 6697TIP3    H141582   3.742   4.247   5.030 -0.5408 -0.2568  1.8600
 6697TIP3    H241583   3.603   4.221   4.977 -0.3451  0.4697  0.9704
 6698TIP3   OH241584   0.380   0.203  16.594  0.0132  0.1506  0.2688
 6698TIP3    H141585   0.446   0.169  16.653  0.4800  1.0744  0.2947
 6698TIP3    H241586   0.340   0.276  16.641  1.4798  1.9330 -1.1179
 6699TIP3   OH241587   0.398   5.020   0.204 -0.0572 -0.0748  0.6736
 6699TIP3    H141588   0.468   5.083   0.187  0.5402 -1.2383 -1.5986
 6699TIP3    H241589   0.320   5.074   0.218  0.5029  1.2044 -0.8490
 6700TIP3   OH241590   6.559   5.081   1.648  0.2781  0.0222  0.3610
 6700TIP3    H141591   6.526   5.041   1.567  1.4885 -0.9423  0.3128
 6700TIP3    H241592   6.482   5.122   1.687 -0.8730 -1.6421 -0.0266
 6701TIP3   OH241593   4.310   3.200   0.956  0.3813  0.5453  0.3296
 6701TIP3    H141594   4.397   3.163   0.936  0.8507  1.7697  0.0100
 6701TIP3    H241595   4.312   3.288   0.917 -1.4170  0.1926 -0.6650
 6702TIP3   OH241596   0.404   3.679   5.153 -0.7389 -0.5900 -0.7196
 6702TIP3    H141597   0.492   3.696   5.119 -1.1465  3.2601 -0.3428
 6702TIP3    H241598   0.418   3.654   5.245  0.0051 -0.4113 -0.7766
 6703TIP3   OH241599   5.601   4.300  13.197  0.3425  0.6941 -0.0573
 6703TIP3    H141600   5.625   4.350  13.274  0.9824  0.4979 -0.1245
 6703TIP3    H241601   5.506   4.309  13.191  0.1822  0.0053  1.2378
 6704TIP3   OH241602   0.788   3.141   0.381  0.5055  0.2306 -0.6551
 6704TIP3    H141603   0.740   3.204   0.435 -0.5343 -0.2019 -1.0484
 6704TIP3    H241604   0.744   3.144   0.296  0.5793 -0.8652 -0.7469
 6705TIP3   OH241605   3.625   2.401   4.443  0.0543  0.3036 -0.0639
 6705TIP3    H141606   3.653   2.417   4.533 -1.1856  1.4180  0.1636
 6705TIP3    H241607   3.697   2.433   4.389 -0.1214  1.7649  0.5159
 6706TIP3   OH241608   1.566   5.849  14.025 -0.2111  0.6190  0.6438
 6706TIP3    H141609   1.576   5.943  14.035  1.5940  0.6796 -1.1608
 6706TIP3    H241610   1.592   5.813  14.110  3.3655  1.5890  0.1271
 6707TIP3   OH241611   3.432   2.460   3.772 -0.2404  0.1661  0.3652
 6707TIP3    H141612   3.476   2.415   3.844  0.5209 -0.4646 -0.4841
 6707TIP3    H241613   3.420   2.550   3.804  1.2139  0.2257  0.8047
 6708TIP3   OH241614   2.245   0.580   2.664  0.1264 -0.0410 -0.1296
 6708TIP3    H141615   2.267   0.488   2.680  1.8218  0.3435 -0.1118
 6708TIP3    H241616   2.248   0.589   2.569  0.4900  0.1118 -0.1050
 6709TIP3   OH241617   6.156   5.610  14.960  0.1437  0.2073  0.0196
 6709TIP3    H141618   6.109   5.591  15.042  1.6515 -1.1851  0.6207
 6709TIP3    H241619   6.136   5.536  14.903  1.9091 -0.6950  0.4729
 6710TIP3   OH241620   6.067   3.468  17.223  0.1041 -0.1803  0.0194
 6710TIP3    H141621   6.114   3.456  17.306  1.7025  0.2164 -0.8127
 6710TIP3    H241622   6.135   3.478  17.157 -1.1270 -1.1543 -1.4763
 6711TIP3   OH241623   4.269   1.201   6.351  0.3762  0.3859  1.0413
 6711TIP3    H141624   4.248   1.169   6.264 -0.2087  0.4834  1.1352
 6711TIP3    H241625   4.252   1.295   6.347  2.7965  0.8524  0.5579
 6712TIP3   OH241626   2.061   3.200   5.437 -0.5759 -0.1112 -0.2731
 6712TIP3    H141627   2.093   3.196   5.527  1.5556  1.2260 -0.9113
 6712TIP3    H241628   2.109   3.131   5.391 -1.0794 -0.2616 -0.5890
 6713TIP3   OH241629   6.774   1.618   1.986  0.2436  0.0450  0.3141
 6713TIP3    H141630   6.797   1.558   1.915 -1.7549  2.3339 -2.5007
 6713TIP3    H241631   6.719   1.566   2.045 -1.0427 -1.0618 -1.7602
 6714TIP3   OH241632   4.635   1.389   5.559  0.5196  0.0546  0.5267
 6714TIP3    H141633   4.694   1.344   5.619 -1.7801 -0.4158  2.6036
 6714TIP3    H241634   4.607   1.322   5.497  0.3875 -0.3005  0.9685
 6715TIP3   OH241635   3.053   3.665  17.193  0.1727  0.1702  0.0670
 6715TIP3    H141636   3.010   3.742  17.230  0.7790 -0.2453  1.7568
 6715TIP3    H241637   3.092   3.695  17.111 -2.3766  0.8087 -0.9884
 6716TIP3   OH241638   5.539   5.441  12.031 -0.1269 -0.0037  0.0367
 6716TIP3    H141639   5.529   5.370  12.094 -1.7184  0.9041  0.8551
 6716TIP3    H241640   5.530   5.398  11.946  0.8536 -1.0582  0.4389
 6717TIP3   OH241641   0.958   5.189  12.130  0.1921 -0.2983 -0.0978
 6717TIP3    H141642   0.901   5.117  12.102 -0.4479 -0.0730  0.5922
 6717TIP3    H241643   0.919   5.220  12.212  0.5090  0.7666 -0.3304
 6718TIP3   OH241644   6.393   3.990  16.158  0.0821 -0.0071  0.5300
 6718TIP3    H141645   6.429   4.028  16.238  0.1037  1.1704 -0.0138
 6718TIP3    H241646   6.355   4.065  16.112 -2.2830 -1.0434  0.6514
 6719TIP3   OH241647   5.547   0.202   0.663 -0.1691 -0.4317 -0.6510
 6719TIP3    H141648   5.474   0.159   0.707  0.0521 -1.7454 -1.5042
 6719TIP3    H241649   5.578   0.267   0.725  0.5444 -2.6454  1.4684
 6720TIP3   OH241650   2.930   1.688  16.922  0.1523 -0.4007  0.2233
 6720TIP3    H141651   2.959   1.599  16.905 -1.7714 -1.1808  0.7983
 6720TIP3    H241652   2.866   1.680  16.992 -0.8031  1.3097 -0.3862
 6721TIP3   OH241653   5.257   4.847   3.718 -0.1061 -0.1117  0.5267
 6721TIP3    H141654   5.303   4.916   3.672 -1.4107  0.9527  0.7572
 6721TIP3    H241655   5.276   4.863   3.811  0.6870 -0.9056  0.5222
 6722TIP3   OH241656   2.098   4.436   1.398  0.5655  0.3736 -0.2139
 6722TIP3    H141657   2.158   4.408   1.329  1.1374 -0.4468  0.5896
 6722TIP3    H241658   2.030   4.368   1.400 -0.7510  1.5975 -1.5124
 6723TIP3   OH241659   1.968   1.918  11.724 -0.1294 -0.0337 -0.1870
 6723TIP3    H141660   1.951   1.944  11.814 -0.9614 -1.2262  0.0260
 6723TIP3    H241661   1.913   1.976  11.671  2.0011  2.1868 -0.1380
 6724TIP3   OH241662   2.295   4.947  16.631 -0.1075 -0.6396  0.0101
 6724TIP3    H141663   2.370   5.002  16.608 -0.6710  0.5558  0.9502
 6724TIP3    H241664   2.324   4.858  16.612  0.1954  0.0444 -3.3340
 6725TIP3   OH241665   0.885   1.363  15.666  0.0197 -0.1407  0.2052
 6725TIP3    H141666   0.914   1.409  15.745 -1.4487  0.9504  0.1665
 6725TIP3    H241667   0.792   1.346  15.682 -0.8523  1.8933 -2.0276
 6726TIP3   OH241668   0.314   3.668   2.014 -0.5573 -0.5657  0.4181
 6726TIP3    H141669   0.359   3.752   2.005  1.0133 -1.3583  0.5345
 6726TIP3    H241670   0.282   3.667   2.105 -2.6742  0.8474 -0.2298
 6727TIP3   OH241671   3.689   4.262   5.379  1.0605 -0.6779  0.2654
 6727TIP3    H141672   3.662   4.172   5.358 -0.8180  0.0228 -0.5453
 6727TIP3    H241673   3.737   4.291   5.301 -1.3528  0.1458 -0.9900
 6728TIP3   OH241674   1.033   0.882  11.497  0.2843  0.4924 -1.2112
 6728TIP3    H141675   1.055   0.839  11.579 -1.2338 -1.3291 -1.6727
 6728TIP3    H241676   1.010   0.972  11.522 -2.7491 -0.6947  0.8245
 6729TIP3   OH241677   3.020   3.266   3.138 -0.4666 -0.7597  0.0804
 6729TIP3    H141678   2.996   3.258   3.230 -1.0789  0.7784  0.1022
 6729TIP3    H241679   3.106   3.226   3.131 -0.6261 -1.3314  1.2159
 6730TIP3   OH241680   5.249   5.501   5.817 -0.0806 -0.2990 -0.1031
 6730TIP3    H141681   5.273   5.494   5.910  1.5782  1.2638 -0.3479
 6730TIP3    H241682   5.190   5.428   5.802  0.1643 -1.0131  2.0170
 6731TIP3   OH241683   0.891   5.862  13.966  0.1029 -0.1631  0.0422
 6731TIP3    H141684   0.930   5.873  13.880 -2.1725 -2.2172 -1.3706
 6731TIP3    H241685   0.961   5.885  14.027  3.1202 -2.3574 -2.2666
 6732TIP3   OH241686   5.081   4.449   3.525 -0.2365  0.2850  0.4128
 6732TIP3    H141687   5.100   4.542   3.531 -2.2230  0.8048 -0.7066
 6732TIP3    H241688   5.151   4.414   3.469  0.8181  0.9650  1.2647
 6733TIP3   OH241689   6.436   0.281  14.298  0.2294 -0.0376 -0.2214
 6733TIP3    H141690   6.388   0.363  14.285  1.7292  0.7200 -1.2216
 6733TIP3    H241691   6.398   0.220  14.234 -1.9295 -0.6725  1.5302
 6734TIP3   OH241692   6.547   2.873  16.737 -0.3384  0.0891 -0.0481
 6734TIP3    H141693   6.555   2.940  16.805 -0.1526  1.3277 -1.2533
 6734TIP3    H241694   6.464   2.892  16.694  0.0036 -0.0839 -0.7875
 6735TIP3   OH241695   3.764   6.066  13.950 -0.4507  0.3900 -0.3321
 6735TIP3    H141696   3.772   6.014  14.030  2.2538 -0.0362 -0.7886
 6735TIP3    H241697   3.697   6.021  13.898 -0.1084 -1.0651  0.4447
 6736TIP3   OH241698   3.457   1.530   3.587  0.0939 -0.3540  0.7768
 6736TIP3    H141699   3.406   1.538   3.668  1.5889  1.4379  1.6084
 6736TIP3    H241700   3.516   1.456   3.603 -1.0566 -1.3712  0.4522
 6737TIP3   OH241701   4.929   2.207  13.071  0.4753  0.3029  0.5490
 6737TIP3    H141702   4.997   2.234  13.133  2.0082 -0.8815 -0.5001
 6737TIP3    H241703   4.878   2.141  13.117  1.0170  0.1008  0.8628
 6738TIP3   OH241704   6.217   4.505   5.752  0.7653  0.2532 -0.6123
 6738TIP3    H141705   6.210   4.416   5.786  1.3427  0.6465  0.5889
 6738TIP3    H241706   6.280   4.498   5.679  1.8709 -0.1162  0.3428
 6739TIP3   OH241707   3.127   2.030   4.793  1.0507  0.6172  0.2410
 6739TIP3    H141708   3.060   2.097   4.782  0.6292 -0.0091 -1.3120
 6739TIP3    H241709   3.162   2.016   4.705  0.0460 -2.2750  0.1809
 6740TIP3   OH241710   0.635   5.322  11.108  0.0974 -0.0432 -0.2893
 6740TIP3    H141711   0.729   5.318  11.087  0.3019  0.4346  0.5232
 6740TIP3    H241712   0.604   5.401  11.063 -0.0196 -0.4307 -0.9122
 6741TIP3   OH241713   0.346   6.095  12.351 -0.3530 -0.3562 -0.2913
 6741TIP3    H141714   0.281   6.123  12.415 -0.2519  0.8585 -0.7025
 6741TIP3    H241715   0.430   6.100  12.397 -0.1554  1.5288 -0.7907
 6742TIP3   OH241716   2.228   0.111   4.505  0.4351  0.5776 -0.6207
 6742TIP3    H141717   2.283   0.101   4.427  1.2132  1.9830 -0.2939
 6742TIP3    H241718   2.273   0.178   4.557 -0.6407  0.4354  0.5294
 6743TIP3   OH241719   5.110   1.592   1.743  0.2155  0.5156  0.4307
 6743TIP3    H141720   5.029   1.544   1.761 -0.1650  0.1352 -1.9563
 6743TIP3    H241721   5.083   1.661   1.683  1.8095 -0.3627 -1.3824
 6744TIP3   OH241722   3.493   1.784   2.939 -0.8054  0.3838 -0.4637
 6744TIP3    H141723   3.548   1.788   3.016 -1.7947 -1.7701  0.4482
 6744TIP3    H241724   3.553   1.793   2.865  0.8180 -1.7257  0.4879
 6745TIP3   OH241725   4.277   3.439   2.334  0.5364 -0.2417  0.0292
 6745TIP3    H141726   4.366   3.406   2.349  1.9144  2.3986 -1.7128
 6745TIP3    H241727   4.242   3.383   2.264  0.5440 -1.6068  1.0538
 6746TIP3   OH241728   0.814   5.994   5.929 -0.2871  0.3222  0.3665
 6746TIP3    H141729   0.815   6.009   6.024  1.0802 -0.9539  0.6016
 6746TIP3    H241730   0.722   6.004   5.904 -0.6663  0.7491  1.8111
 6747TIP3   OH241731   4.151   3.450  15.798 -0.0901  0.1510 -0.2337
 6747TIP3    H141732   4.147   3.491  15.885 -0.3077  1.0545 -0.6577
 6747TIP3    H241733   4.059   3.443  15.770 -0.0350 -0.3393 -0.3078
 6748TIP3   OH241734   6.073   3.223  16.105  0.3510 -0.5880 -0.1119
 6748TIP3    H141735   6.038   3.135  16.122  0.5583 -0.8190 -0.8409
 6748TIP3    H241736   6.137   3.210  16.036  0.8488  0.0524  0.2208
 6749TIP3   OH241737   1.099   1.135  15.360  0.4899  0.8079  0.3017
 6749TIP3    H141738   1.049   1.205  15.317  0.5088  0.5448 -0.1616
 6749TIP3    H241739   1.156   1.102  15.291  0.4840  0.3420  0.5209
 6750TIP3   OH241740   3.430   4.916   3.132 -0.5846  0.1259 -0.0287
 6750TIP3    H141741   3.494   4.923   3.202 -1.2659 -2.7220  1.0148
 6750TIP3    H241742   3.351   4.883   3.175 -1.2421 -1.0729 -2.0291
 6751TIP3   OH241743   6.391   0.932  16.022  0.1654  0.4030  0.7659
 6751TIP3    H141744   6.370   0.902  16.111  2.0423 -2.7498  0.3352
 6751TIP3    H241745   6.400   0.851  15.972  0.1384  2.0526 -2.0929
 6752TIP3   OH241746   5.238   5.829   2.572  0.0076 -0.4325 -0.4573
 6752TIP3    H141747   5.148   5.841   2.604  0.3748 -0.5245  0.6717
 6752TIP3    H241748   5.250   5.898   2.507 -0.0431  1.2699  1.2313
 6753TIP3   OH241749   6.210   5.222  14.559 -0.1330  0.1414  0.4276
 6753TIP3    H141750   6.271   5.250  14.626 -1.2412  1.0632  1.0811
 6753TIP3    H241751   6.173   5.140  14.592 -0.1955  0.2533  0.6343
 6754TIP3   OH241752   6.467   2.386   0.664 -0.2531  0.3194 -0.0155
 6754TIP3    H141753   6.462   2.329   0.741  0.7319  1.4084  0.8994
 6754TIP3    H241754   6.377   2.398   0.636 -0.5969 -0.3904  0.7580
 6755TIP3   OH241755   4.971   6.211  17.188 -0.1127  0.1272  0.2024
 6755TIP3    H141756   4.989   6.252  17.103  2.9372 -0.7631  0.3280
 6755TIP3    H241757   5.020   6.264  17.251 -2.5477  0.9445  1.5696
 6756TIP3   OH241758   6.171   3.114  16.422  0.5435  0.6534 -0.0972
 6756TIP3    H141759   6.252   3.101  16.374 -0.3961  0.6156 -1.7379
 6756TIP3    H241760   6.165   3.209  16.435  0.0175  0.8304 -1.5234
 6757TIP3   OH241761   2.365   3.839   6.810  0.1277  0.1163 -0.0182
 6757TIP3    H141762   2.455   3.810   6.802 -0.5793 -1.7844 -1.8183
 6757TIP3    H241763   2.365   3.929   6.777  0.8691 -0.9562 -3.2704
 6758TIP3   OH241764   2.567   3.414  11.796  0.4974 -0.2636 -0.3064
 6758TIP3    H141765   2.521   3.334  11.769  1.0462 -1.1897  1.3842
 6758TIP3    H241766   2.653   3.407  11.754  0.8352 -0.9862  0.4753
 6759TIP3   OH241767   0.865   2.584  14.863 -0.1001  0.0214 -0.1377
 6759TIP3    H141768   0.804   2.609  14.794  1.1948 -1.1126 -1.7619
 6759TIP3    H241769   0.919   2.661  14.876  0.8023 -0.3067 -1.7174
 6760TIP3   OH241770   6.125   1.529   0.497  0.3882  0.1306  0.5483
 6760TIP3    H141771   6.084   1.482   0.425  0.9376  0.8260 -0.2317
 6760TIP3    H241772   6.059   1.593   0.525  0.1296 -0.2224  0.7465
 6761TIP3   OH241773   0.309   6.098   5.657 -0.1950  0.2302 -0.0805
 6761TIP3    H141774   0.237   6.057   5.706 -0.6631  1.6447  0.4452
 6761TIP3    H241775   0.299   6.065   5.567 -0.9242 -0.3169  0.1957
 6762TIP3   OH241776   2.530   6.282  11.336  0.0231  0.3130  0.3893
 6762TIP3    H141777   2.487   6.198  11.322  1.0768 -0.5124  1.8413
 6762TIP3    H241778   2.572   6.302  11.253 -0.5687 -0.3933 -0.0865
 6763TIP3   OH241779   2.730   2.659  12.378 -0.5510 -0.8157 -0.0118
 6763TIP3    H141780   2.736   2.603  12.456 -1.7907 -1.0729 -0.0892
 6763TIP3    H241781   2.685   2.737  12.409 -0.7103 -0.7594 -0.3949
 6764TIP3   OH241782   3.155   0.935  12.508  0.1136  0.3314 -0.3698
 6764TIP3    H141783   3.154   1.015  12.560  0.4041 -0.0416  0.2283
 6764TIP3    H241784   3.156   0.864  12.573  1.9626 -0.1400 -0.8668
 6765TIP3   OH241785   1.627   4.504   1.948  0.2050 -0.2611 -0.5535
 6765TIP3    H141786   1.593   4.529   1.863  1.1945 -1.0084 -1.1962
 6765TIP3    H241787   1.722   4.510   1.939  0.3253  0.8601  0.8909
 6766TIP3   OH241788   4.050   3.025  17.101 -0.5175  0.1713 -0.3010
 6766TIP3    H141789   4.040   3.003  17.008 -1.5678 -0.2522 -0.0987
 6766TIP3    H241790   4.033   2.943  17.147  0.3451  0.2966  0.2636
 6767TIP3   OH241791   2.175   2.362  12.765 -0.0773 -0.0216 -0.5940
 6767TIP3    H141792   2.164   2.272  12.794  0.1562 -0.1184 -0.7984
 6767TIP3    H241793   2.214   2.407  12.839  0.0198 -0.1432 -0.5719
 6768TIP3   OH241794   1.578   1.678   5.116  0.4220  0.1572  0.1158
 6768TIP3    H141795   1.524   1.708   5.188 -0.6324 -1.9183  0.2768
 6768TIP3    H241796   1.521   1.620   5.065  0.9063  2.0670 -2.8392
 6769TIP3   OH241797   2.360   2.403  13.000  0.4412 -0.0028  0.0228
 6769TIP3    H141798   2.370   2.408  13.096  3.4230 -0.9819 -0.1511
 6769TIP3    H241799   2.385   2.314  12.978  1.5358  0.7067 -1.8073
 6770TIP3   OH241800   0.647   6.815   4.843  0.0075 -0.1879 -1.1788
 6770TIP3    H141801   0.573   6.800   4.785  0.1026  0.8070 -1.5737
 6770TIP3    H241802   0.679   6.727   4.864 -1.7414 -0.6692 -0.3580
 6771TIP3   OH241803   2.193   3.074   0.082 -0.3607  0.6574  0.3112
 6771TIP3    H141804   2.124   3.088   0.147 -0.6252 -1.5690  0.5774
 6771TIP3    H241805   2.274   3.072   0.134 -0.3877  0.5592  0.3495
 6772TIP3   OH241806   2.603   3.655   3.497 -0.1559  0.8344  0.3544
 6772TIP3    H141807   2.696   3.675   3.507  0.4752 -0.0956 -2.5801
 6772TIP3    H241808   2.596   3.616   3.410 -3.0128 -1.0204  1.2623
 6773TIP3   OH241809   3.545   0.358  11.858 -0.0364  0.1862  0.6351
 6773TIP3    H141810   3.455   0.360  11.890 -0.9381  0.6602 -1.7190
 6773TIP3    H241811   3.539   0.321  11.770  2.0806  0.2307  0.4035
 6774TIP3   OH241812   5.166   3.078   0.363 -0.3209 -0.0065  0.0201
 6774TIP3    H141813   5.190   2.990   0.392  0.4249  0.3102  0.3988
 6774TIP3    H241814   5.086   3.066   0.311 -1.7658 -0.6312  2.2160
 6775TIP3   OH241815   1.901   6.578  13.139  0.3279 -0.5014  0.4744
 6775TIP3    H141816   1.993   6.561  13.158  0.0587 -2.6509  0.0705
 6775TIP3    H241817   1.902   6.658  13.087  1.9673 -0.4837  0.4767
 6776TIP3   OH241818   3.575   5.245  11.141  0.2095 -0.2460  0.3967
 6776TIP3    H141819   3.540   5.288  11.063 -0.9392  0.3757  1.2305
 6776TIP3    H241820   3.578   5.152  11.118  0.7151  0.0290 -0.6882
 6777TIP3   OH241821   4.218   4.550   0.948 -0.1425 -0.1728 -0.2105
 6777TIP3    H141822   4.269   4.469   0.958 -0.9692 -0.6565  0.2937
 6777TIP3    H241823   4.245   4.586   0.864 -1.8411 -2.5315 -1.9293
 6778TIP3   OH241824   4.852   4.967  16.863 -0.2330 -0.4426 -0.3431
 6778TIP3    H141825   4.820   4.984  16.952 -0.8637  0.8327 -0.7918
 6778TIP3    H241826   4.892   4.880  16.868 -0.3169 -0.4207  1.1715
 6779TIP3   OH241827   3.508   0.577  13.505  0.4251  0.7883  0.2998
 6779TIP3    H141828   3.548   0.530  13.578  1.0055  0.6701 -0.0897
 6779TIP3    H241829   3.554   0.545  13.428  0.7948  1.9512  0.0248
 6780TIP3   OH241830   2.714   2.841   5.465  0.3820 -0.1782 -0.0276
 6780TIP3    H141831   2.784   2.782   5.491  2.6803  1.7428 -1.4183
 6780TIP3    H241832   2.646   2.828   5.532  2.2203 -1.8054  1.6812
 6781TIP3   OH241833   2.997   6.425   3.759 -0.0131  0.0143  0.4396
 6781TIP3    H141834   2.976   6.496   3.820 -0.6640 -1.1735  1.6575
 6781TIP3    H241835   2.958   6.453   3.676  0.1139  1.2626  0.7789
 6782TIP3   OH241836   2.909   1.278   0.188  0.1516  0.3561 -0.0051
 6782TIP3    H141837   2.884   1.248   0.276 -1.5117  2.5892  0.3580
 6782TIP3    H241838   2.854   1.226   0.129  1.9605 -1.8571  0.1048
 6783TIP3   OH241839   3.978   0.358  11.138  0.1634 -0.3316  0.3806
 6783TIP3    H141840   4.029   0.426  11.095  1.2245 -0.2206  1.7658
 6783TIP3    H241841   4.011   0.356  11.228 -1.2714 -1.2713  0.9126
 6784TIP3   OH241842   5.040   0.046  17.124 -0.1045  0.1748 -0.2139
 6784TIP3    H141843   4.959  -0.004  17.124  0.1666 -0.2652  0.1950
 6784TIP3    H241844   5.027   0.112  17.055  0.8194 -2.5340 -3.2020
 6785TIP3   OH241845   4.719   5.362  10.902  0.2393  0.5938  0.1066
 6785TIP3    H141846   4.795   5.307  10.919 -0.6744 -1.4778 -1.9546
 6785TIP3    H241847   4.731   5.394  10.812 -1.1804  0.4273 -0.1683
 6786TIP3   OH241848   2.913   0.943   5.431  0.1056 -0.4772 -1.2307
 6786TIP3    H141849   2.993   0.993   5.447 -0.8607  0.2334  2.3228
 6786TIP3    H241850   2.922   0.864   5.484 -1.3109 -0.6412 -1.1874
 6787TIP3   OH241851   6.273   4.806   1.036 -0.1506  0.0390  0.0134
 6787TIP3    H141852   6.238   4.724   1.002  1.3613 -0.1824 -1.0938
 6787TIP3    H241853   6.207   4.871   1.013 -0.9624 -0.7154  0.1398
 6788TIP3   OH241854   0.885   3.365   0.893 -0.9040 -0.4047  0.0835
 6788TIP3    H141855   0.972   3.400   0.910 -1.3079  0.4731  0.4008
 6788TIP3    H241856   0.826   3.438   0.909 -1.7580 -1.1669  0.4986
 6789TIP3   OH241857   3.003   5.927  14.776  0.0818  0.1153  0.3555
 6789TIP3    H141858   3.097   5.936  14.758 -0.2482  1.5492 -0.9155
 6789TIP3    H241859   2.985   5.992  14.843 -0.2477  0.9060 -0.4793
 6790TIP3   OH241860   2.426   1.054   0.042  0.0489 -0.2187 -0.1834
 6790TIP3    H141861   2.480   0.977   0.059  0.5404 -0.0964 -1.1092
 6790TIP3    H241862   2.340   1.019   0.021  0.1913 -0.5076 -0.2941
 6791TIP3   OH241863   3.723   2.538   1.764  0.0670 -0.4266  0.0648
 6791TIP3    H141864   3.739   2.627   1.732 -1.1865  0.2125  1.1243
 6791TIP3    H241865   3.769   2.482   1.702  1.1869  0.9751 -0.4230
 6792TIP3   OH241866   1.179   2.997  11.037 -0.2792 -0.2904 -0.1900
 6792TIP3    H141867   1.147   3.085  11.017  1.7684  0.6660  0.4927
 6792TIP3    H241868   1.242   2.977  10.967 -0.7956 -1.2705 -0.3939
 6793TIP3   OH241869   6.256   5.078  13.219 -0.0612  0.4261  0.2804
 6793TIP3    H141870   6.346   5.104  13.234 -0.6111  2.8115 -0.1163
 6793TIP3    H241871   6.204   5.153  13.250 -1.8849 -0.6527  0.0003
 6794TIP3   OH241872   3.826   4.841   1.219 -0.0811 -0.0969  0.0933
 6794TIP3    H141873   3.912   4.820   1.183  0.7099  0.2407  1.6722
 6794TIP3    H241874   3.764   4.815   1.151  1.1964 -1.5353 -0.5904
 6795TIP3   OH241875   0.692   0.765   2.783  0.6353 -0.3121  0.1974
 6795TIP3    H141876   0.782   0.762   2.813  0.8502  2.7888  0.2004
 6795TIP3    H241877   0.689   0.703   2.710  2.7092 -0.5782  0.2818
 6796TIP3   OH241878   2.197   5.704   1.698 -0.1646 -0.1767 -0.0225
 6796TIP3    H141879   2.221   5.667   1.613  0.2653  2.2725 -1.0345
 6796TIP3    H241880   2.198   5.798   1.684 -2.0903  0.2374  2.1956
 6797TIP3   OH241881   3.645   2.069   1.418 -0.4101 -0.6212 -0.0986
 6797TIP3    H141882   3.719   2.127   1.434 -0.2038 -1.3176  1.7189
 6797TIP3    H241883   3.597   2.067   1.501 -0.8154 -2.4253 -0.3266
 6798TIP3   OH241884   2.709   4.640   2.621  0.0835  0.0833 -0.7796
 6798TIP3    H141885   2.642   4.638   2.689 -1.1713  0.9324 -1.9387
 6798TIP3    H241886   2.720   4.732   2.601  0.9182 -0.1169 -1.2873
 6799TIP3   OH241887   2.936   0.231  15.101 -0.3844  0.2251 -0.2453
 6799TIP3    H141888   2.884   0.286  15.042  1.2466  0.7864 -1.2242
 6799TIP3    H241889   2.959   0.289  15.173 -3.1631 -0.7057  1.5597
 6800TIP3   OH241890   0.232   3.460  15.919  0.0552 -0.3221 -0.8012
 6800TIP3    H141891   0.136   3.460  15.926 -0.0050 -0.1550 -1.5011
 6800TIP3    H241892   0.259   3.542  15.962 -0.0386 -0.8135  0.2126
 6801TIP3   OH241893   6.349   2.147  16.393 -0.7476  0.4405  0.6038
 6801TIP3    H141894   6.389   2.125  16.308  2.0110 -0.0829  1.9213
 6801TIP3    H241895   6.291   2.073  16.411  1.7069 -1.5369  0.9187
 6802TIP3   OH241896   5.171   4.893   2.137 -0.3279 -0.8052 -0.0792
 6802TIP3    H141897   5.153   4.873   2.229 -0.2444  1.2195  0.4396
 6802TIP3    H241898   5.264   4.877   2.126 -0.5676 -2.2324 -0.1704
 6803TIP3   OH241899   0.836   4.227  16.390 -0.2474 -0.4015  0.1990
 6803TIP3    H141900   0.895   4.300  16.406 -1.5744  0.8757 -0.4646
 6803TIP3    H241901   0.874   4.181  16.315  0.1472  0.1317  0.0672
 6804TIP3   OH241902   4.145   5.122  13.097 -0.0271  0.5251  0.5478
 6804TIP3    H141903   4.198   5.197  13.069 -0.4023  0.4089 -0.5044
 6804TIP3    H241904   4.175   5.049  13.043 -0.0497  0.0340  1.1807
 6805TIP3   OH241905   1.679   5.576  15.163  0.5892 -0.9351 -0.4140
 6805TIP3    H141906   1.756   5.607  15.210  0.0862 -0.2579 -0.0182
 6805TIP3    H241907   1.605   5.617  15.208  0.0466 -0.9225 -1.2910
 6806TIP3   OH241908   1.692   3.655   4.429 -0.1949  0.2440  0.1525
 6806TIP3    H141909   1.763   3.598   4.398 -1.9071 -1.1365 -1.4630
 6806TIP3    H241910   1.732   3.708   4.498  1.5830 -2.7211  1.5795
 6807TIP3   OH241911   2.073   5.766   2.398  0.7589  0.1631  0.1206
 6807TIP3    H141912   2.137   5.820   2.444  1.2668 -0.9274  0.7317
 6807TIP3    H241913   2.037   5.824   2.331  1.9615  0.9808  0.1397
 6808TIP3   OH241914   6.329   0.994   0.846 -0.0594  0.1723 -0.1728
 6808TIP3    H141915   6.280   1.011   0.926 -3.9066 -1.1165 -2.0094
 6808TIP3    H241916   6.372   0.910   0.862 -0.9801 -0.1924  0.4775
 6809TIP3   OH241917   1.296   4.845  12.740 -0.1040  0.0901  0.0629
 6809TIP3    H141918   1.235   4.771  12.734  1.4943 -1.5517  2.1497
 6809TIP3    H241919   1.381   4.807  12.720  0.5383  1.8813 -0.8078
 6810TIP3   OH241920   1.271   2.055  11.044 -0.3374 -0.3913  0.3521
 6810TIP3    H141921   1.246   2.087  11.130  1.8862 -0.1275  0.9405
 6810TIP3    H241922   1.341   1.992  11.060 -0.0831 -0.5748 -1.2479
 6811TIP3   OH241923   2.093   0.745   2.828 -0.1521 -0.2464  0.1692
 6811TIP3    H141924   2.138   0.819   2.787 -0.2800 -1.1218 -1.6516
 6811TIP3    H241925   2.124   0.668   2.779  0.4208 -1.5105  2.3747
 6812TIP3   OH241926   4.742   3.404  14.927 -0.2633 -0.4802  0.4238
 6812TIP3    H141927   4.734   3.338  14.996  0.3982  0.1324  1.1137
 6812TIP3    H241928   4.823   3.451  14.948 -0.3436  0.0801 -0.4577
 6813TIP3   OH241929   2.426   5.002  13.132  0.3691 -0.0102 -0.1910
 6813TIP3    H141930   2.512   4.998  13.090  0.6304  2.4439 -0.0481
 6813TIP3    H241931   2.384   5.079  13.092 -1.5655 -0.8435  0.1317
 6814TIP3   OH241932   6.553   1.310   2.631  0.5159 -0.3730  0.8095
 6814TIP3    H141933   6.542   1.400   2.662 -1.4571 -0.8593  1.6586
 6814TIP3    H241934   6.644   1.307   2.601  0.2202  2.3506 -0.7705
 6815TIP3   OH241935   5.825   5.227   5.931 -0.0211  0.6137  0.3214
 6815TIP3    H141936   5.863   5.147   5.968 -1.7036 -0.7761 -0.8246
 6815TIP3    H241937   5.767   5.196   5.862 -1.6305  2.7543  0.6221
 6816TIP3   OH241938   3.513   6.629   2.961 -0.5989  0.2695  0.1537
 6816TIP3    H141939   3.466   6.684   3.023  1.4723  2.1177  0.2249
 6816TIP3    H241940   3.570   6.574   3.016 -0.2142  0.4827 -0.0250
 6817TIP3   OH241941   1.146   1.176  13.951  0.2789 -0.2090  0.4957
 6817TIP3    H141942   1.217   1.222  13.905 -0.4328  0.2362 -0.1938
 6817TIP3    H241943   1.180   1.088  13.965  0.8948 -0.0630 -0.0146
 6818TIP3   OH241944   5.426   6.589   1.479  0.0248 -0.5855  0.5149
 6818TIP3    H141945   5.361   6.656   1.457 -0.0613 -0.5271  0.9386
 6818TIP3    H241946   5.501   6.638   1.512 -0.1812 -0.7104  1.1896
 6819TIP3   OH241947   5.790   0.897   3.573  0.0359  0.3168  0.2266
 6819TIP3    H141948   5.715   0.843   3.546 -0.7285  0.9794  0.9611
 6819TIP3    H241949   5.766   0.929   3.660  0.9704  0.9305  0.2656
 6820TIP3   OH241950   1.847   2.310   1.084 -0.1177  0.5603  0.2802
 6820TIP3    H141951   1.914   2.292   1.150  1.0904  0.6491 -0.8802
 6820TIP3    H241952   1.886   2.281   1.001  0.1781  4.2364 -1.0443
 6821TIP3   OH241953   1.849   6.188   5.569  0.1070  0.7189  0.1012
 6821TIP3    H141954   1.829   6.094   5.575  0.5151  0.2898 -3.3074
 6821TIP3    H241955   1.770   6.232   5.601 -0.6265 -0.7750  0.4320
 6822TIP3   OH241956   1.851   6.076   3.575 -0.4613 -0.1006 -0.0359
 6822TIP3    H141957   1.915   6.105   3.641 -1.0144 -0.9342  0.8914
 6822TIP3    H241958   1.767   6.079   3.620 -1.2160  1.6738 -1.4602
 6823TIP3   OH241959   4.303   4.176   1.287 -0.1922  0.1214  0.4855
 6823TIP3    H141960   4.279   4.084   1.272  0.6120  0.1429 -1.1335
 6823TIP3    H241961   4.225   4.214   1.327 -0.7529 -1.1277  0.6552
 6824TIP3   OH241962   6.382   4.323  13.922 -0.5204  0.0843  0.1351
 6824TIP3    H141963   6.347   4.404  13.957 -0.4440 -0.4777  1.5857
 6824TIP3    H241964   6.358   4.256  13.987  1.8191 -0.5883  0.3995
 6825TIP3   OH241965   2.832   5.797   2.832  0.4774 -0.1496  0.1012
 6825TIP3    H141966   2.840   5.823   2.924 -1.0260 -0.8112  0.4425
 6825TIP3    H241967   2.891   5.857   2.786  0.8067  0.5927  1.4177
 6826TIP3   OH241968   3.303   3.996  16.685  0.3294 -0.5029  0.1919
 6826TIP3    H141969   3.378   4.000  16.625  0.6820  0.4051  0.6765
 6826TIP3    H241970   3.331   4.045  16.762 -2.0610  3.2860 -1.0829
 6827TIP3   OH241971   1.562   5.976   4.677  0.4793 -0.4650  0.3685
 6827TIP3    H141972   1.481   5.983   4.628  2.3794 -0.1834 -2.9878
 6827TIP3    H241973   1.582   5.882   4.677  0.6886 -0.4216  0.2279
 6828TIP3   OH241974   5.721   6.343   1.383 -0.1705 -0.1974  0.0533
 6828TIP3    H141975   5.704   6.365   1.475 -1.9833 -1.5245  0.0783
 6828TIP3    H241976   5.779   6.413   1.352 -0.1769  0.7172  1.9701
 6829TIP3   OH241977   1.665   1.668  13.111 -0.3199 -0.2977  0.1185
 6829TIP3    H141978   1.649   1.702  13.023 -0.0425  0.8576  0.4938
 6829TIP3    H241979   1.716   1.588  13.098 -4.0246 -2.7493 -0.9929
 6830TIP3   OH241980   5.711   5.049  10.618  0.1402 -0.2168 -0.1857
 6830TIP3    H141981   5.678   5.102  10.546  0.2697 -2.5281 -2.0721
 6830TIP3    H241982   5.806   5.051  10.608  0.1166 -1.7842 -1.1306
 6831TIP3   OH241983   4.262   4.803   4.653 -0.1142 -0.0381  0.0253
 6831TIP3    H141984   4.250   4.731   4.714 -1.5703  0.9736  0.9922
 6831TIP3    H241985   4.203   4.783   4.580 -0.3618  0.0675  0.1958
 6832TIP3   OH241986   3.576   4.465  16.425  0.6028 -0.1430  0.7937
 6832TIP3    H141987   3.548   4.551  16.394 -0.6242 -1.1018 -0.9732
 6832TIP3    H241988   3.523   4.449  16.503  2.0437  1.3462  2.1482
 6833TIP3   OH241989   1.597   1.850  16.567  0.2491  0.0399  0.0085
 6833TIP3    H141990   1.512   1.883  16.537  0.0307  0.4079  0.9819
 6833TIP3    H241991   1.661   1.912  16.532  0.2231 -0.7089 -1.4511
 6834TIP3   OH241992   3.769   4.231  16.663  0.1155  0.0057  0.6901
 6834TIP3    H141993   3.775   4.139  16.686 -2.0529 -0.6841 -1.1724
 6834TIP3    H241994   3.793   4.235  16.570 -1.2848  1.0490  0.3374
 6835TIP3   OH241995   2.211   5.594  16.746  0.0348  0.3766  0.4170
 6835TIP3    H141996   2.215   5.657  16.817 -0.3991  0.4121  0.4100
 6835TIP3    H241997   2.172   5.516  16.784  2.8679 -0.8466  1.1282
 6836TIP3   OH241998   1.680   4.101  12.953 -0.2682  0.1976 -0.1092
 6836TIP3    H141999   1.635   4.094  13.037  0.0934 -1.0129 -0.0057
 6836TIP3    H242000   1.728   4.019  12.943  0.1769  0.5603 -1.2289
 6837TIP3   OH242001   4.012   0.185   6.161 -0.1991 -0.4875 -0.6109
 6837TIP3    H142002   3.935   0.217   6.114  0.6383  1.5672 -0.6855
 6837TIP3    H242003   3.981   0.107   6.207 -2.1010 -0.1785 -1.2758
 6838TIP3   OH242004   5.411   0.935   1.820  0.4158  0.3899  0.3900
 6838TIP3    H142005   5.420   0.890   1.903 -1.0353 -1.8893 -0.5928
 6838TIP3    H242006   5.338   0.996   1.833 -0.0790 -0.2551  0.6736
 6839TIP3   OH242007   0.887   6.348  13.073 -0.3278  0.3540 -0.2926
 6839TIP3    H142008   0.910   6.320  13.162  0.5568  1.3690 -0.1738
 6839TIP3    H242009   0.886   6.267  13.022 -0.8711 -0.2485  0.6340
 6840TIP3   OH242010   2.511   0.928  14.282 -0.2854 -0.7841 -0.0975
 6840TIP3    H142011   2.465   0.962  14.205 -1.5669 -0.8006  0.6342
 6840TIP3    H242012   2.602   0.918  14.254 -0.5326  0.1863 -1.2969
 6841TIP3   OH242013   6.067   2.002  14.837 -0.2667  0.1345  0.0238
 6841TIP3    H142014   6.033   2.020  14.749 -0.6167 -0.2422  0.0794
 6841TIP3    H242015   6.071   1.906  14.842  1.0202  0.1712 -0.0618
 6842TIP3   OH242016   1.208   4.075   2.517  0.1923  0.1324  0.3016
 6842TIP3    H142017   1.297   4.048   2.498  0.6594  1.5143  0.3792
 6842TIP3    H242018   1.204   4.079   2.612  0.0609  0.0738  0.2980
 6843TIP3   OH242019   1.941   4.513   4.138  0.0182 -0.2245 -0.4137
 6843TIP3    H142020   1.903   4.427   4.155 -1.8931  0.6771  0.2496
 6843TIP3    H242021   1.972   4.543   4.224  1.2123 -0.4750 -0.7467
 6844TIP3   OH242022   2.159   3.592  14.137  0.0255  0.0322 -0.1316
 6844TIP3    H142023   2.222   3.524  14.114 -0.4050 -1.0201  1.5972
 6844TIP3    H242024   2.208   3.653  14.193 -0.2227 -0.2477  0.3986
 6845TIP3   OH242025   2.060   1.533   2.387  0.4823 -0.3914 -0.4711
 6845TIP3    H142026   2.120   1.472   2.345  1.2098 -0.7001  0.9605
 6845TIP3    H242027   1.987   1.541   2.325  1.0727 -1.5335 -1.3581
 6846TIP3   OH242028   4.866   5.901  16.611  0.0262  0.3420 -0.4022
 6846TIP3    H142029   4.880   5.914  16.518  0.8105  0.4204 -0.2842
 6846TIP3    H242030   4.859   5.990  16.647  1.9369  0.4219 -0.0916
 6847TIP3   OH242031   2.046   2.888  15.019 -0.0275  0.0357 -0.2049
 6847TIP3    H142032   2.099   2.956  15.060 -0.0856 -0.5847  0.9317
 6847TIP3    H242033   2.046   2.910  14.926  1.2238  0.7170 -0.0542
 6848TIP3   OH242034   1.818   3.570   0.952 -0.0347  0.2571  0.2085
 6848TIP3    H142035   1.855   3.492   0.913 -0.8036 -0.5066  0.9656
 6848TIP3    H242036   1.834   3.561   1.046 -1.5508  0.1952  0.4946
 6849TIP3   OH242037   2.997   3.712  16.524 -0.1458 -0.2173 -0.3809
 6849TIP3    H142038   3.030   3.756  16.603  3.1925 -0.4924 -1.4853
 6849TIP3    H242039   2.902   3.727  16.527 -0.1136  0.3300  3.3070
 6850TIP3   OH242040   4.605   1.937  14.506 -0.6257  0.9116 -0.6995
 6850TIP3    H142041   4.670   1.867  14.496  0.1991  1.3499  1.1456
 6850TIP3    H242042   4.551   1.909  14.580 -0.6209  1.9663 -0.2795
 6851TIP3   OH242043   1.412   5.974  15.968 -0.0465 -0.2938  0.2142
 6851TIP3    H142044   1.460   5.892  15.974 -1.1048 -0.8487  1.9872
 6851TIP3    H242045   1.474   6.040  16.001  0.5030 -0.5174 -0.3640
 6852TIP3   OH242046   5.574   5.924  13.443 -0.8369  0.1145  0.0925
 6852TIP3    H142047   5.520   5.846  13.433 -1.5744  0.6043  0.1743
 6852TIP3    H242048   5.513   5.992  13.472  0.0185  0.4181  1.2555
 6853TIP3   OH242049   3.252   5.775   0.704 -0.1284 -0.0948 -0.7767
 6853TIP3    H142050   3.197   5.832   0.757 -0.0533 -1.2924  0.6407
 6853TIP3    H242051   3.238   5.688   0.740  0.7224 -0.7960 -2.0745
 6854TIP3   OH242052   0.963   4.949   1.924  0.0618  0.3603  0.7402
 6854TIP3    H142053   0.969   4.870   1.870 -2.1092  1.1255 -0.7975
 6854TIP3    H242054   0.877   4.943   1.965  0.6504  1.0399  2.1350
 6855TIP3   OH242055   4.055   0.731   5.757  0.1041  0.0196 -0.5732
 6855TIP3    H142056   4.026   0.774   5.677 -0.9975  0.7863  0.2020
 6855TIP3    H242057   3.983   0.672   5.780  0.0718  0.3582  0.2407
 6856TIP3   OH242058   0.331   4.460  11.405  0.0278  1.1706 -0.0918
 6856TIP3    H142059   0.278   4.397  11.357  0.2842  0.8100  0.0894
 6856TIP3    H242060   0.344   4.533  11.344  0.7576  0.5114 -0.7533
 6857TIP3   OH242061   3.688   5.946   3.869  0.1426 -0.5291  0.0262
 6857TIP3    H142062   3.757   6.006   3.842 -0.0208 -1.3955 -2.6155
 6857TIP3    H242063   3.619   6.002   3.903  1.0111  0.5791  0.0050
 6858TIP3   OH242064   0.493   5.813  13.607  0.5515 -0.0611  0.2826
 6858TIP3    H142065   0.493   5.857  13.692 -1.0315  0.2301  0.1740
 6858TIP3    H242066   0.456   5.726  13.625  1.3427 -0.4420  0.0868
 6859TIP3   OH242067   4.741   4.021  16.664  0.5209 -0.2070  0.5022
 6859TIP3    H142068   4.747   4.053  16.754 -1.2039 -0.3597  0.7033
 6859TIP3    H242069   4.649   3.999  16.653  0.8977 -1.1336 -0.9971
 6860TIP3   OH242070   5.493   4.641   0.501  0.1086 -0.2213  0.9720
 6860TIP3    H142071   5.554   4.625   0.573 -1.1211 -1.1559  1.8556
 6860TIP3    H242072   5.459   4.554   0.478 -0.9172  0.2698  0.5400
 6861TIP3   OH242073   4.698   6.016   2.859 -0.4548  0.1586  0.1326
 6861TIP3    H142074   4.742   5.931   2.867  0.3207  0.4063 -1.2312
 6861TIP3    H242075   4.676   6.040   2.949 -0.0509 -1.1509  0.6041
 6862TIP3   OH242076   2.874   3.162   4.566 -0.1700  0.1587  0.6053
 6862TIP3    H142077   2.903   3.084   4.518 -2.0388 -1.3967  1.8505
 6862TIP3    H242078   2.909   3.151   4.654  1.4568  1.9358  0.2491
 6863TIP3   OH242079   1.729   6.034   0.715  0.0818 -0.3750 -0.3670
 6863TIP3    H142080   1.711   5.954   0.666 -0.3782  1.0601 -2.6676
 6863TIP3    H242081   1.667   6.033   0.788  0.1369 -2.1100 -0.3077
 6864TIP3   OH242082   3.102   2.674  13.487  0.3617 -0.1557 -0.2418
 6864TIP3    H142083   3.016   2.657  13.524 -0.3028  0.6141 -1.3800
 6864TIP3    H242084   3.141   2.587  13.477 -0.5394 -0.5581 -0.3429
 6865TIP3   OH242085   1.438   0.482   1.863 -0.0064  0.5745 -0.2118
 6865TIP3    H142086   1.422   0.392   1.836 -2.4795  0.7812  0.2996
 6865TIP3    H242087   1.370   0.500   1.927  0.6586  2.7027 -0.0185
 6866TIP3   OH242088   3.694   1.421   5.766  0.3985  0.1096  0.4227
 6866TIP3    H142089   3.769   1.368   5.738  0.4219 -0.0819  0.8492
 6866TIP3    H242090   3.660   1.375   5.843  0.6354  0.9184  1.0162
 6867TIP3   OH242091   6.524   3.395  14.586  0.4084 -0.0828  0.3751
 6867TIP3    H142092   6.481   3.414  14.669 -1.0557  2.0645 -0.7716
 6867TIP3    H242093   6.567   3.478  14.562 -1.9718  0.4785 -2.5110
 6868TIP3   OH242094   6.611   6.195  17.139  1.1033 -0.3530  0.7276
 6868TIP3    H142095   6.581   6.151  17.218 -1.4230 -0.6460 -0.3025
 6868TIP3    H242096   6.576   6.284  17.145 -0.3130 -0.7725 -0.6183
 6869TIP3   OH242097   6.578   4.763   0.131  0.4104 -0.1919  0.3914
 6869TIP3    H142098   6.541   4.843   0.093 -0.7222 -0.9873 -0.2321
 6869TIP3    H242099   6.502   4.711   0.157  1.0112 -2.0479 -1.2774
 6870TIP3   OH242100   4.368   4.482   2.003 -1.0803 -0.3294 -0.3869
 6870TIP3    H142101   4.375   4.389   2.024 -0.2586 -0.4100 -0.9987
 6870TIP3    H242102   4.366   4.485   1.908 -0.5393  0.3201 -0.3799
 6871TIP3   OH242103   6.040   2.402   3.939  0.0377 -0.2569  0.0719
 6871TIP3    H142104   6.125   2.359   3.929  0.3686  0.0969  1.1637
 6871TIP3    H242105   6.060   2.483   3.987 -0.9450 -0.2975  0.5746
 6872TIP3   OH242106   0.241   2.083   4.148 -0.2121 -0.0089 -0.4877
 6872TIP3    H142107   0.166   2.135   4.120 -0.4264 -0.5449 -0.9265
 6872TIP3    H242108   0.315   2.119   4.098 -0.3801 -0.2015 -0.8753
 6873TIP3   OH242109   6.509   1.172   1.369  0.2844 -0.3407  0.0910
 6873TIP3    H142110   6.520   1.090   1.321 -0.1045  0.0212 -0.6251
 6873TIP3    H242111   6.595   1.213   1.367  0.6880 -1.0796  1.1301
 6874TIP3   OH242112   3.403   4.019  11.590  0.4831 -0.7086  0.4592
 6874TIP3    H142113   3.329   4.029  11.651  1.1284  2.2487  0.9235
 6874TIP3    H242114   3.407   4.103  11.544  2.1004 -1.6795 -1.2738
 6875TIP3   OH242115   1.399   0.545   0.431 -0.2109  0.0907 -0.4783
 6875TIP3    H142116   1.309   0.556   0.401 -0.8991 -1.8322  0.6515
 6875TIP3    H242117   1.406   0.602   0.508 -1.4222 -1.6841  1.0648
 6876TIP3   OH242118   2.783   4.006  12.644  0.6618  0.1341  0.2097
 6876TIP3    H142119   2.820   4.074  12.588  0.5829 -0.2174 -0.2866
 6876TIP3    H242120   2.715   4.050  12.694  0.2773  0.3230 -0.4587
 6877TIP3   OH242121   6.745   4.251   1.843 -0.1694 -0.5071 -0.5825
 6877TIP3    H142122   6.766   4.344   1.847  0.7505 -0.7334  2.0901
 6877TIP3    H242123   6.691   4.241   1.765 -1.7820  2.5724  0.0019
 6878TIP3   OH242124   5.190   0.989   1.587  0.4573  0.0183  0.7875
 6878TIP3    H142125   5.172   1.028   1.672  2.1022  0.1223  1.1235
 6878TIP3    H242126   5.232   1.059   1.536  1.4814 -0.6538  0.6656
 6879TIP3   OH242127   1.017   1.435   1.677  0.3888  0.2318  0.1188
 6879TIP3    H142128   1.033   1.519   1.720  0.9693 -0.2431  0.8501
 6879TIP3    H242129   1.063   1.442   1.594 -2.2348  1.8526 -1.3464
 6880TIP3   OH242130   6.803   3.953   6.148  0.0973  0.2973  0.4007
 6880TIP3    H142131   6.876   4.008   6.120  1.3679 -0.6683  1.6627
 6880TIP3    H242132   6.740   4.014   6.185 -0.3082  1.2736 -1.7923
 6881TIP3   OH242133   2.747   5.427  16.595 -0.2990  0.1175  0.1109
 6881TIP3    H142134   2.677   5.432  16.529  1.0278 -0.4455 -1.4112
 6881TIP3    H242135   2.717   5.485  16.665 -1.0244  2.1243 -1.7164
 6882TIP3   OH242136   4.774   0.052  16.424 -0.4748  0.0551  0.2524
 6882TIP3    H142137   4.804  -0.039  16.426  2.4043  0.7997 -1.6308
 6882TIP3    H242138   4.804   0.089  16.507  1.5561  0.0453 -0.4075
 6883TIP3   OH242139   5.439   2.159  11.530  0.4864 -0.1121 -0.2107
 6883TIP3    H142140   5.468   2.158  11.439  0.5649 -0.2503 -0.1839
 6883TIP3    H242141   5.511   2.120  11.580  1.1172  1.4204  0.1173
 6884TIP3   OH242142   0.671   0.688  14.131  0.5364  0.5108  0.5321
 6884TIP3    H142143   0.699   0.777  14.153  0.6983  0.5071  0.3432
 6884TIP3    H242144   0.622   0.697  14.049  0.8914  0.3743  0.3003
 6885TIP3   OH242145   5.139   0.419   0.276  0.6670  0.3000  0.4550
 6885TIP3    H142146   5.231   0.394   0.278  0.8726  0.9107 -0.6801
 6885TIP3    H242147   5.116   0.434   0.368  1.0307 -2.1650  1.0151
 6886TIP3   OH242148   5.817   1.025  13.183 -0.3115 -0.5005  0.1544
 6886TIP3    H142149   5.732   0.987  13.205 -1.0710  2.0020  1.9908
 6886TIP3    H242150   5.860   1.039  13.268  1.2835 -0.2444 -0.6421
 6887TIP3   OH242151   3.096   2.958   6.358  0.2036  0.4059  0.2337
 6887TIP3    H142152   3.152   2.880   6.357  1.2808  1.1414  0.7394
 6887TIP3    H242153   3.108   2.999   6.273 -0.1711  0.1534  0.0581
 6888TIP3   OH242154   5.928   1.807   1.880 -0.6355  0.2068  0.0747
 6888TIP3    H142155   5.994   1.743   1.851  0.7775  1.6620 -0.0711
 6888TIP3    H242156   5.894   1.771   1.962  0.8297 -0.2792  0.5078
 6889TIP3   OH242157   4.542   0.092   3.503 -0.2527 -0.3150 -0.5330
 6889TIP3    H142158   4.537   0.038   3.581 -0.1440 -0.5226 -0.6675
 6889TIP3    H242159   4.505   0.176   3.529 -0.8198 -0.5908 -0.4388
 6890TIP3   OH242160   5.755   5.253  12.594  0.1139 -0.0957  0.2575
 6890TIP3    H142161   5.703   5.206  12.659  2.1911 -2.7733  0.1913
 6890TIP3    H242162   5.842   5.259  12.633  0.7215  0.7372 -1.1501
 6891TIP3   OH242163   1.356   4.206   0.406 -0.6316 -0.2150  0.6299
 6891TIP3    H142164   1.356   4.196   0.501  0.3907  0.6567  0.7466
 6891TIP3    H242165   1.447   4.194   0.381 -0.9610 -0.8486 -0.3015
 6892TIP3   OH242166   3.327   4.434  16.582 -0.3907 -0.4926  0.7183
 6892TIP3    H142167   3.263   4.389  16.638  0.0277  0.0483  1.6476
 6892TIP3    H242168   3.387   4.477  16.644 -0.1603  0.4567 -0.1469
 6893TIP3   OH242169   4.280   1.420  16.955  0.3200 -0.3358 -0.1582
 6893TIP3    H142170   4.190   1.396  16.934 -0.1252  0.1258  1.1147
 6893TIP3    H242171   4.329   1.338  16.951 -0.0875 -0.5478 -1.1255
 6894TIP3   OH242172   3.990   2.043   2.970  0.1425  0.2302  0.0647
 6894TIP3    H142173   4.042   2.073   3.045 -0.0539 -1.0433  0.7477
 6894TIP3    H242174   3.902   2.077   2.986  0.0565 -0.1969  0.5252
 6895TIP3   OH242175   0.458   2.198  14.237  0.0209  0.1909 -0.4702
 6895TIP3    H142176   0.373   2.181  14.196 -0.4796  0.6109  0.3687
 6895TIP3    H242177   0.483   2.114  14.276  0.0945  0.0135 -0.8905
 6896TIP3   OH242178   5.215   2.156   2.201  0.3821  0.2503  0.9288
 6896TIP3    H142179   5.233   2.062   2.198  0.5748  0.2975  0.4877
 6896TIP3    H242180   5.213   2.177   2.294 -2.8941 -0.7921  1.2206
 6897TIP3   OH242181   2.867   4.176  13.092 -0.0654 -0.6529 -0.5681
 6897TIP3    H142182   2.957   4.207  13.092  0.0126 -0.8660  0.0644
 6897TIP3    H242183   2.872   4.083  13.070 -0.0289 -0.9229  0.5452
 6898TIP3   OH242184   5.778   2.315   4.954  0.6126 -0.0064  0.1047
 6898TIP3    H142185   5.812   2.317   4.864 -0.0855  0.3933 -0.1536
 6898TIP3    H242186   5.683   2.319   4.944  0.5198 -0.1654  0.8608
 6899TIP3   OH242187   5.850   2.508  14.017  0.3915  0.0779 -0.2586
 6899TIP3    H142188   5.908   2.575  13.982 -0.0912  0.9532  0.5659
 6899TIP3    H242189   5.824   2.457  13.940  0.9858  0.6583 -0.8644
 6900TIP3   OH242190   2.304   3.295  15.383 -0.1720 -0.6266  0.1141
 6900TIP3    H142191   2.273   3.211  15.416 -0.7354  0.1300  1.6091
 6900TIP3    H242192   2.346   3.337  15.458  0.6370  0.1887 -0.7629
 6901TIP3   OH242193   2.559   5.887  11.062  0.4941 -0.4259 -0.4086
 6901TIP3    H142194   2.602   5.802  11.058  0.5981 -0.3295 -2.2349
 6901TIP3    H242195   2.469   5.870  11.033 -0.1745 -0.2787  1.4401
 6902TIP3   OH242196   5.934   4.252  15.193 -0.4097 -0.3407 -0.0359
 6902TIP3    H142197   5.912   4.272  15.284 -0.6271  2.1751 -0.5857
 6902TIP3    H242198   6.025   4.224  15.196  0.2819  1.8159  0.7617
 6903TIP3   OH242199   3.763   4.979   3.755  0.2874 -0.0415 -0.1890
 6903TIP3    H142200   3.712   4.912   3.708 -0.0100 -0.0985  0.2058
 6903TIP3    H242201   3.849   4.939   3.767  0.2038 -0.2376 -0.2245
 6904TIP3   OH242202   3.597   2.023   5.614  0.5466 -0.1467 -0.0100
 6904TIP3    H142203   3.645   1.940   5.618  0.0366 -0.4700 -0.4003
 6904TIP3    H242204   3.560   2.025   5.525  0.3659  0.3936  0.0730
 6905TIP3   OH242205   5.381   3.952  13.003 -0.3307 -0.8520 -0.6165
 6905TIP3    H142206   5.391   4.032  13.055 -1.0719  0.0560 -1.8084
 6905TIP3    H242207   5.426   3.884  13.054  0.9014  0.4553  0.1077
 6906TIP3   OH242208   0.217   4.461   0.161  0.2571  0.0850 -0.1471
 6906TIP3    H142209   0.229   4.489   0.070 -0.1583 -0.2814 -0.3221
 6906TIP3    H242210   0.174   4.375   0.153 -0.4202  0.3708  0.4094
 6907TIP3   OH242211   0.559   6.107   2.769  0.9071 -0.3804  0.2371
 6907TIP3    H142212   0.558   6.067   2.856 -1.0481  0.9622  0.8963
 6907TIP3    H242213   0.492   6.058   2.720  0.7857 -0.0138  0.0353
 6908TIP3   OH242214   4.326   1.588   5.356 -0.2469 -0.1769 -0.5969
 6908TIP3    H142215   4.250   1.617   5.306  1.0598  0.7305 -2.1837
 6908TIP3    H242216   4.334   1.653   5.426 -0.5189  0.1524 -0.8627
 6909TIP3   OH242217   2.348   5.728  13.579 -0.2686  0.3746  0.3767
 6909TIP3    H142218   2.352   5.637  13.549  1.7609  0.3898  0.5121
 6909TIP3    H242219   2.385   5.727  13.667 -0.6095  1.2805  0.5444
 6910TIP3   OH242220   2.548   3.455   3.809  0.2425  0.0633  0.6021
 6910TIP3    H142221   2.503   3.411   3.737 -0.0967  0.2358  0.7075
 6910TIP3    H242222   2.578   3.538   3.772  0.9565 -0.2862  0.3793
 6911TIP3   OH242223   6.464   3.934   4.178 -0.1039 -0.6548 -0.1861
 6911TIP3    H142224   6.491   3.912   4.267  1.1608  1.4109  0.0026
 6911TIP3    H242225   6.428   3.853   4.143 -0.1790 -1.6454  2.0314
 6912TIP3   OH242226   5.299   5.784   1.251 -0.6696  0.5044 -0.1262
 6912TIP3    H142227   5.309   5.698   1.211 -1.0448  0.4670 -0.1435
 6912TIP3    H242228   5.206   5.791   1.270 -0.8620  1.3923 -1.2524
 6913TIP3   OH242229   1.142   3.987  16.573 -0.0710 -0.0264 -0.7217
 6913TIP3    H142230   1.115   4.012  16.485  1.2939  3.3127 -0.3367
 6913TIP3    H242231   1.216   3.927  16.559 -1.2998 -1.3502 -1.7738
 6914TIP3   OH242232   5.444   6.354  12.067 -0.1280 -0.4342  0.6233
 6914TIP3    H142233   5.413   6.444  12.069 -0.6341 -0.5988  0.4671
 6914TIP3    H242234   5.518   6.355  12.007  0.7675  0.1426  1.6904
 6915TIP3   OH242235   2.357   0.759   3.228 -0.1591 -0.1176  0.3922
 6915TIP3    H142236   2.417   0.716   3.290 -0.4304 -0.9349  0.1092
 6915TIP3    H242237   2.344   0.694   3.159 -0.2999  0.5747 -0.2450
 6916TIP3   OH242238   1.522   5.571   2.871 -0.5447  0.3201 -0.6410
 6916TIP3    H142239   1.506   5.477   2.871  2.8109 -0.4099 -1.1911
 6916TIP3    H242240   1.489   5.602   2.955 -1.9958 -1.2623 -0.5833
 6917TIP3   OH242241   0.630   4.853   1.434 -0.0320  0.0808 -0.1967
 6917TIP3    H142242   0.646   4.855   1.339 -1.1017  1.2481 -0.3763
 6917TIP3    H242243   0.681   4.927   1.468 -1.5911  1.2183 -0.2235
 6918TIP3   OH242244   1.440   5.626  16.371 -0.1238 -0.0430  0.2855
 6918TIP3    H142245   1.416   5.659  16.284 -0.0685  0.4634  0.4595
 6918TIP3    H242246   1.533   5.605  16.364 -0.1009  0.0734  0.2484
 6919TIP3   OH242247   4.957   1.076  11.773  0.2624  0.1147 -0.6449
 6919TIP3    H142248   5.034   1.036  11.814 -0.8563  1.2157  2.8007
 6919TIP3    H242249   4.895   1.003  11.762  0.0071  0.0334  1.1509
 6920TIP3   OH242250   6.545   5.504   0.679 -0.1246 -0.0748 -0.3607
 6920TIP3    H142251   6.533   5.443   0.752  1.3307  0.8276  0.7034
 6920TIP3    H242252   6.605   5.459   0.620  0.6759  0.1443  0.2569
 6921TIP3   OH242253   6.435   5.334  14.678  0.2548 -0.4052 -0.0320
 6921TIP3    H142254   6.402   5.419  14.647 -1.3876 -0.6150  1.0136
 6921TIP3    H242255   6.503   5.311  14.616 -1.5058  0.1369 -2.3045
 6922TIP3   OH242256   3.661   1.234  13.378 -0.1515 -0.6582  0.4254
 6922TIP3    H142257   3.724   1.173  13.415  2.0693  0.2731 -1.6051
 6922TIP3    H242258   3.618   1.185  13.308  0.0494 -0.5430  0.2234
 6923TIP3   OH242259   3.426   1.744  16.308 -0.0648 -0.2158  0.7253
 6923TIP3    H142260   3.462   1.656  16.321 -0.2229 -0.2523  0.9376
 6923TIP3    H242261   3.498   1.794  16.270 -0.3190 -0.7305 -0.4901
 6924TIP3   OH242262   1.984   0.249   4.759  0.7224  0.5246 -0.2526
 6924TIP3    H142263   2.014   0.252   4.849  0.0627 -1.5225  0.0866
 6924TIP3    H242264   1.991   0.157   4.734  0.5719  0.9888 -2.1872
 6925TIP3   OH242265   6.396   2.471   5.596 -0.7414 -0.2879  0.0364
 6925TIP3    H142266   6.310   2.490   5.635 -0.7156 -0.1052  0.0062
 6925TIP3    H242267   6.433   2.402   5.651 -0.2576  0.6849  0.9790
 6926TIP3   OH242268   0.812   6.666  16.249 -0.2126 -0.0395 -0.2522
 6926TIP3    H142269   0.853   6.580  16.258 -1.2450 -0.4517  0.7452
 6926TIP3    H242270   0.879   6.728  16.279  0.0639 -0.6080  0.3243
 6927TIP3   OH242271   3.078   4.141  11.452 -0.1258  0.3664 -0.0735
 6927TIP3    H142272   3.061   4.057  11.410 -0.2365  1.2120 -1.8140
 6927TIP3    H242273   3.045   4.130  11.541 -2.8488 -0.5447 -1.0615
 6928TIP3   OH242274   1.639   2.820   1.196 -0.2698 -0.1142  0.6387
 6928TIP3    H142275   1.558   2.785   1.158 -0.9524  1.4994  0.5352
 6928TIP3    H242276   1.637   2.913   1.176  2.3725 -0.2588 -0.6538
 6929TIP3   OH242277   3.848   0.649  14.504  0.4256 -0.8542  0.3175
 6929TIP3    H142278   3.828   0.742  14.507  1.1663 -0.5979 -1.3912
 6929TIP3    H242279   3.829   0.623  14.414 -0.3552 -2.5154  0.9127
 6930TIP3   OH242280   6.506   3.554   5.103 -0.6236 -0.4923 -0.3263
 6930TIP3    H142281   6.581   3.542   5.044  0.4037  1.0460  0.5793
 6930TIP3    H242282   6.446   3.611   5.054 -0.4092 -0.3273 -0.3967
 6931TIP3   OH242283   2.876   2.602   4.364 -0.1807 -0.1454 -0.3343
 6931TIP3    H142284   2.858   2.569   4.452  2.3642  1.4194  0.8810
 6931TIP3    H242285   2.825   2.683   4.358  1.8128  1.3139  0.9466
 6932TIP3   OH242286   5.232   0.098  15.809  0.5829 -0.0683 -0.4798
 6932TIP3    H142287   5.256   0.024  15.753  1.2751 -0.6462  0.5558
 6932TIP3    H242288   5.149   0.074  15.848  1.6697 -1.1538  1.2774
 6933TIP3   OH242289   1.743   0.064  11.868 -0.8983  0.1170 -0.2660
 6933TIP3    H142290   1.698  -0.015  11.840 -0.4081 -0.0018 -0.7244
 6933TIP3    H242291   1.689   0.098  11.939 -0.1526 -1.6445  1.2355
 6934TIP3   OH242292   1.691   0.780   4.606 -0.4181  0.4002  0.1160
 6934TIP3    H142293   1.712   0.715   4.540  1.3989 -0.7153  1.7028
 6934TIP3    H242294   1.605   0.754   4.640 -1.2840  0.8812 -1.5916
 6935TIP3   OH242295   1.394   6.615   4.065 -0.4572 -0.6338 -0.4658
 6935TIP3    H142296   1.400   6.521   4.081  0.7156 -0.5655 -0.4211
 6935TIP3    H242297   1.348   6.623   3.981 -0.4930 -1.2473 -0.5061
 6936TIP3   OH242298   3.822   2.105  16.963 -0.2570  0.4459  0.3606
 6936TIP3    H142299   3.806   2.139  17.051  1.7214  0.2643  0.8553
 6936TIP3    H242300   3.763   2.031  16.953 -2.2577  1.9400  0.5596
 6937TIP3   OH242301   1.085   0.377   2.462  0.3143  0.2959 -0.0130
 6937TIP3    H142302   1.096   0.466   2.493 -0.3517  0.1888  0.5624
 6937TIP3    H242303   1.163   0.360   2.409  0.2626  1.3402 -0.4490
 6938TIP3   OH242304   0.271   5.927  16.420  0.2430  0.1613 -0.1114
 6938TIP3    H142305   0.365   5.912  16.411  0.0980 -2.3446  1.4846
 6938TIP3    H242306   0.264   6.013  16.462  1.9687 -0.4967  1.6704
 6939TIP3   OH242307   0.297   1.779  16.259 -0.1395 -0.1586  0.4696
 6939TIP3    H142308   0.284   1.800  16.167  1.6557 -0.7324  0.0467
 6939TIP3    H242309   0.326   1.861  16.299 -1.2498  0.1788  0.6346
 6940TIP3   OH242310   5.552   6.277   5.250 -0.3627  0.0170  0.1044
 6940TIP3    H142311   5.641   6.273   5.284 -0.3703 -2.0890  0.0294
 6940TIP3    H242312   5.496   6.277   5.328 -0.3191  0.8219  0.1426
 6941TIP3   OH242313   2.912   0.691   4.988  1.0204 -0.6552  0.1003
 6941TIP3    H142314   2.845   0.651   5.043  0.6982  0.5765  0.6518
 6941TIP3    H242315   2.868   0.707   4.904  0.5217  0.3848  0.5436
 6942TIP3   OH242316   3.304   1.785   3.410 -0.0635  0.4443  0.0763
 6942TIP3    H142317   3.303   1.695   3.441 -0.6836 -0.6656 -2.9130
 6942TIP3    H242318   3.238   1.829   3.465 -0.4202 -1.1251  0.9754
 6943TIP3   OH242319   5.711   3.720   6.644 -0.5104  0.4419 -0.0656
 6943TIP3    H142320   5.729   3.661   6.570 -1.7241  0.6889 -0.5894
 6943TIP3    H242321   5.796   3.754   6.669  0.3054 -1.8672  0.5400
 6944TIP3   OH242322   5.262   2.977  13.004  0.6008 -0.1448 -0.7039
 6944TIP3    H142323   5.285   2.885  13.010 -0.2619 -0.3915 -0.9864
 6944TIP3    H242324   5.268   2.998  12.911  3.7225  0.9085 -0.3820
 6945TIP3   OH242325   0.118   6.027  11.583  0.3052 -0.4268 -0.8310
 6945TIP3    H142326   0.093   5.960  11.521 -0.9750 -1.1086  0.3681
 6945TIP3    H242327   0.035   6.059  11.619  0.9716  0.5641 -0.1163
 6946TIP3   OH242328   1.449   6.771  16.578  0.4391  0.3039  0.3183
 6946TIP3    H142329   1.520   6.803  16.522 -1.2607  3.9189 -0.0029
 6946TIP3    H242330   1.408   6.701  16.528  1.2997  0.8913 -1.2657
 6947TIP3   OH242331   0.247   6.616   5.883  1.0754  0.0496  0.6361
 6947TIP3    H142332   0.287   6.694   5.844 -0.0175  1.6663  2.5481
 6947TIP3    H242333   0.320   6.572   5.928  1.4956  0.5429  0.4504
 6948TIP3   OH242334   1.246   5.233  12.694  0.3409  0.1138 -0.0954
 6948TIP3    H142335   1.156   5.241  12.726  0.6511  0.4215  0.7328
 6948TIP3    H242336   1.300   5.246  12.772  1.1304  0.8749 -0.7475
 6949TIP3   OH242337   3.719   2.228   4.106  0.2349 -0.0311  0.1614
 6949TIP3    H142338   3.677   2.198   4.025 -1.6988  2.0846  0.2794
 6949TIP3    H242339   3.731   2.148   4.157 -1.6512 -1.0255 -0.8317
 6950TIP3   OH242340   1.846   5.909  11.682  0.0030 -0.4290 -0.5294
 6950TIP3    H142341   1.897   5.906  11.601 -0.1036  1.2916 -0.7074
 6950TIP3    H242342   1.762   5.871  11.658 -0.7466  1.8375 -1.8576
 6951TIP3   OH242343   6.244   4.489  14.209  0.7224 -0.3222 -0.0246
 6951TIP3    H142344   6.338   4.507  14.210  0.9287 -1.2780  1.7549
 6951TIP3    H242345   6.237   4.399  14.239 -0.7014 -0.8515 -1.7797
 6952TIP3   OH242346   3.012   1.086  14.692  0.2472 -0.0821 -0.3648
 6952TIP3    H142347   3.049   1.167  14.657 -0.8135 -0.2985 -2.1547
 6952TIP3    H242348   2.964   1.112  14.770  0.8300  0.8171 -0.2933
 6953TIP3   OH242349   0.141   0.818   4.121  0.7870 -0.6717  0.4394
 6953TIP3    H142350   0.068   0.808   4.060  1.1088 -0.9880  0.1047
 6953TIP3    H242351   0.204   0.750   4.096  0.8689 -0.8874  1.2021
 6954TIP3   OH242352   5.210   5.656  12.416  0.5670 -0.3559 -0.4862
 6954TIP3    H142353   5.270   5.601  12.466 -0.4194 -0.6277  0.4326
 6954TIP3    H242354   5.266   5.719  12.371  1.4000  2.2073  3.6707
 6955TIP3   OH242355   3.598   1.025   0.896  0.0266 -0.0788  0.2531
 6955TIP3    H142356   3.666   0.959   0.909  0.2722  0.1969  0.3733
 6955TIP3    H242357   3.614   1.059   0.808 -1.9443 -2.3081 -1.0913
 6956TIP3   OH242358   5.606   3.748   3.901  0.1501  0.2043 -0.3026
 6956TIP3    H142359   5.681   3.766   3.958 -0.5492 -0.7681  0.9718
 6956TIP3    H242360   5.600   3.825   3.845  1.7854  0.5261 -0.0981
 6957TIP3   OH242361   1.314   2.520   5.486 -0.6753 -0.3862 -0.0740
 6957TIP3    H142362   1.407   2.527   5.506 -0.3069 -1.6249 -1.1969
 6957TIP3    H242363   1.270   2.542   5.568  0.5615  0.9688  0.2776
 6958TIP3   OH242364   4.171   0.956  16.953  0.1012 -0.3124 -0.8509
 6958TIP3    H142365   4.099   1.000  16.908  0.1040  0.2286 -0.3352
 6958TIP3    H242366   4.132   0.919  17.032  0.1343 -1.1083 -1.1939
 6959TIP3   OH242367   1.707   6.430   2.783  0.2825 -0.0545  0.2729
 6959TIP3    H142368   1.707   6.504   2.844 -1.5714  0.6322 -0.4904
 6959TIP3    H242369   1.622   6.388   2.796 -0.6179  0.7088 -2.4642
 6960TIP3   OH242370   3.850   1.254  12.570 -0.2523 -0.0409 -0.2171
 6960TIP3    H142371   3.846   1.226  12.478 -2.1661  1.7799 -0.7798
 6960TIP3    H242372   3.907   1.331  12.568  0.4700 -0.5616  0.2991
 6961TIP3   OH242373   6.816   0.804  13.380  0.2107 -0.2243  0.6861
 6961TIP3    H142374   6.804   0.710  13.370 -1.6743 -0.0245  0.6971
 6961TIP3    H242375   6.779   0.842  13.300 -0.0564  0.5442  1.1581
 6962TIP3   OH242376   4.202   5.886  12.362  0.1910 -0.0689  1.0216
 6962TIP3    H142377   4.143   5.820  12.325  0.3432  0.3592 -0.0304
 6962TIP3    H242378   4.219   5.856  12.451  0.0466 -1.3215  0.6506
 6963TIP3   OH242379   4.151   6.791   2.507 -0.4716 -0.3206  0.1609
 6963TIP3    H142380   4.101   6.872   2.512 -0.5820 -0.3228 -0.7513
 6963TIP3    H242381   4.153   6.759   2.597 -0.4260  0.6877  0.5347
 6964TIP3   OH242382   6.468   6.800   0.299 -0.1105  0.5316  0.1197
 6964TIP3    H142383   6.395   6.761   0.349 -0.0883 -0.9601 -0.9287
 6964TIP3    H242384   6.438   6.889   0.279 -1.5416  0.0538 -0.0332
 6965TIP3   OH242385   3.565   6.247  15.412  0.2873 -0.1629  0.5051
 6965TIP3    H142386   3.552   6.336  15.379  1.2423 -0.6124 -1.2480
 6965TIP3    H242387   3.554   6.192  15.335 -0.2132 -1.5654  1.5533
 6966TIP3   OH242388   4.504   2.421   5.761  0.2364  0.1189 -0.6399
 6966TIP3    H142389   4.586   2.448   5.804 -0.4396 -0.1068  0.8679
 6966TIP3    H242390   4.506   2.325   5.765 -0.3435  0.1222 -0.0763
 6967TIP3   OH242391   1.061   2.580  15.791  0.4596  0.5676 -0.1710
 6967TIP3    H142392   1.005   2.568  15.868 -0.0439  1.6700 -0.3504
 6967TIP3    H242393   1.105   2.496  15.781  0.5284  0.3883  1.3073
 6968TIP3   OH242394   5.922   4.557  14.431  0.0477  0.0216 -0.3630
 6968TIP3    H142395   5.946   4.618  14.361 -0.1153 -1.5987 -1.9304
 6968TIP3    H242396   6.002   4.543  14.481 -0.2497  2.5665  0.9575
 6969TIP3   OH242397   2.670   1.443  13.360  0.3997  0.3274 -0.1097
 6969TIP3    H142398   2.721   1.431  13.281  2.8098 -1.8443  1.5875
 6969TIP3    H242399   2.579   1.451  13.330  0.9677 -2.3090 -3.0342
 6970TIP3   OH242400   0.012   2.127   1.435  0.0063 -0.1386  0.0203
 6970TIP3    H142401   0.030   2.125   1.342 -3.0594  0.5923 -0.6989
 6970TIP3    H242402  -0.011   2.218   1.454 -0.5420 -0.4917  1.2058
 6971TIP3   OH242403   0.254   5.958   6.772 -0.3323 -0.6531  0.2617
 6971TIP3    H142404   0.329   6.001   6.732 -2.0986  1.7953 -0.6569
 6971TIP3    H242405   0.222   5.899   6.703  0.5808 -1.5699  0.5927
 6972TIP3   OH242406   2.737   6.314  13.994  0.1831  0.3543  0.3324
 6972TIP3    H142407   2.815   6.258  13.996  1.4735  2.0492 -0.6043
 6972TIP3    H242408   2.719   6.327  13.901 -0.7705  0.6218  0.5466
 6973TIP3   OH242409   0.606   4.142   1.668 -0.2214 -0.2086  0.0048
 6973TIP3    H142410   0.584   4.169   1.579  0.5588 -0.8284 -0.3817
 6973TIP3    H242411   0.526   4.102   1.702 -0.5834  0.2178 -0.3385
 6974TIP3   OH242412   2.858   5.132  16.629 -0.6937 -0.8778 -0.0303
 6974TIP3    H142413   2.846   5.215  16.675 -0.3778  0.6123 -2.4482
 6974TIP3    H242414   2.792   5.074  16.667 -2.0483  0.9918  0.6486
 6975TIP3   OH242415   3.715   0.501   6.006 -0.1551 -0.2767  0.3931
 6975TIP3    H142416   3.665   0.582   5.997  1.4422  0.5481 -1.7761
 6975TIP3    H242417   3.763   0.512   6.088 -1.3268  0.1406  1.0524
 6976TIP3   OH242418   2.998   1.045  13.716 -0.8026 -0.3827 -0.6218
 6976TIP3    H142419   3.021   1.047  13.623  3.3138 -0.0127  0.1989
 6976TIP3    H242420   3.020   0.956  13.745 -0.3935 -0.0158  0.2645
 6977TIP3   OH242421   4.062   2.922   1.881 -0.2092 -0.6322  0.1882
 6977TIP3    H142422   4.029   3.001   1.924  1.6733  0.6915 -0.6636
 6977TIP3    H242423   4.129   2.889   1.940 -1.5841 -2.1834  0.9737
 6978TIP3   OH242424   5.666   6.601  12.339  0.1737 -0.3926  0.7131
 6978TIP3    H142425   5.735   6.646  12.387  1.1461 -1.5090  0.4123
 6978TIP3    H242426   5.710   6.565  12.262 -1.4065  1.7163 -1.3336
 6979TIP3   OH242427   3.012   0.732  16.779  0.4183 -0.5781  0.2483
 6979TIP3    H142428   2.985   0.646  16.746  1.1937 -0.6323 -0.2724
 6979TIP3    H242429   3.007   0.789  16.702 -3.5988  0.7653  1.2644
 6980TIP3   OH242430   2.475   2.303   2.146 -0.0697  0.6088  0.1005
 6980TIP3    H142431   2.453   2.392   2.118 -1.7593  0.3836  0.6182
 6980TIP3    H242432   2.540   2.316   2.216 -0.3687  1.4500  0.2342
 6981TIP3   OH242433   1.576   3.102   5.142 -0.0332 -0.1409 -0.2015
 6981TIP3    H142434   1.571   3.172   5.077 -1.1326 -0.0407 -0.0319
 6981TIP3    H242435   1.504   3.043   5.120 -0.1317 -0.3531  0.6328
 6982TIP3   OH242436   3.387   4.733  13.768  0.4045 -0.7240  0.8815
 6982TIP3    H142437   3.364   4.826  13.761  2.5104 -0.1996  0.1554
 6982TIP3    H242438   3.444   4.728  13.844  0.8656 -1.2963  0.5029
 6983TIP3   OH242439   0.136   0.816  15.182 -0.0136  0.0545 -0.2383
 6983TIP3    H142440   0.183   0.732  15.183 -0.2321 -0.0873 -1.0394
 6983TIP3    H242441   0.146   0.848  15.092 -2.0168 -0.3338 -0.6615
 6984TIP3   OH242442   6.727   1.310   1.385 -0.2096  0.4432 -0.0770
 6984TIP3    H142443   6.796   1.311   1.450  0.2715 -0.9669 -0.5227
 6984TIP3    H242444   6.741   1.390   1.334 -0.3474  1.3516  1.2511
 6985TIP3   OH242445   4.231   2.722  15.020 -0.2295 -0.3527 -0.0668
 6985TIP3    H142446   4.259   2.789  15.082  2.1744 -0.1794 -1.2266
 6985TIP3    H242447   4.200   2.771  14.944  0.9414 -0.4952 -0.6680
 6986TIP3   OH242448   5.489   3.599   3.163  0.2971  0.5340 -0.0001
 6986TIP3    H142449   5.576   3.578   3.196  0.2358  1.5586  0.8663
 6986TIP3    H242450   5.434   3.601   3.241 -0.7968 -1.3468 -0.6648
 6987TIP3   OH242451   4.054   2.424  13.967 -0.3615 -0.3247  0.0199
 6987TIP3    H142452   4.129   2.480  13.948 -0.4596 -0.2164 -0.0502
 6987TIP3    H242453   4.083   2.336  13.945 -0.9988 -0.0357 -2.2623
 6988TIP3   OH242454   1.794   4.320   3.679 -0.1336  0.2585 -1.0325
 6988TIP3    H142455   1.763   4.258   3.613 -0.7406 -0.3684 -0.1865
 6988TIP3    H242456   1.804   4.402   3.632  0.0669 -0.3236 -2.0401
 6989TIP3   OH242457   6.110   2.852   4.912  0.2332  0.1471 -0.0501
 6989TIP3    H142458   6.135   2.930   4.862  0.9463  1.0157  1.5967
 6989TIP3    H242459   6.014   2.856   4.916  0.2737  1.0637  0.1936
 6990TIP3   OH242460   6.100   1.913  12.774  0.4068 -0.2923  0.4310
 6990TIP3    H142461   6.149   1.836  12.745 -0.0482 -0.1103 -0.8902
 6990TIP3    H242462   6.076   1.894  12.864  1.8412 -0.9160  0.7184
 6991TIP3   OH242463   4.256   0.456   2.050 -0.2107 -0.6758 -0.1179
 6991TIP3    H142464   4.229   0.526   1.991  2.0691 -0.1553 -0.6499
 6991TIP3    H242465   4.221   0.481   2.135  1.6875  1.9379  0.0229
 6992TIP3   OH242466   4.318   5.494   1.308 -0.1647 -0.3446  0.4064
 6992TIP3    H142467   4.273   5.482   1.392 -0.5363 -2.2826 -0.0245
 6992TIP3    H242468   4.316   5.588   1.293 -0.3480  0.0237  2.4272
 6993TIP3   OH242469   2.382   2.170  14.682 -0.3416  0.3329 -0.1064
 6993TIP3    H142470   2.300   2.121  14.685 -0.9514  1.2939 -0.5420
 6993TIP3    H242471   2.366   2.246  14.739 -0.8995  2.1943 -2.6027
 6994TIP3   OH242472   6.799   5.737   1.141 -0.3815  0.5740 -0.2193
 6994TIP3    H142473   6.721   5.775   1.101  0.1166  0.0623 -1.7251
 6994TIP3    H242474   6.770   5.711   1.228 -1.7928  0.7405 -0.6115
 6995TIP3   OH242475   0.293   0.614   4.871 -0.5331 -0.1220 -0.5594
 6995TIP3    H142476   0.296   0.702   4.833  0.5322  0.6668  1.1849
 6995TIP3    H242477   0.378   0.605   4.914 -0.8602 -1.7840 -0.2200
 6996TIP3   OH242478   2.305   6.321   5.279  0.5101 -0.2569 -0.2871
 6996TIP3    H142479   2.267   6.267   5.209 -0.7512 -0.6716  0.6877
 6996TIP3    H242480   2.244   6.394   5.289  0.5659 -0.3146  0.5229
 6997TIP3   OH242481   6.106   4.086   0.351  0.9261 -0.0763  0.2302
 6997TIP3    H142482   6.032   4.058   0.297  1.6801  0.8284 -1.3367
 6997TIP3    H242483   6.082   4.060   0.440 -0.5413 -1.2566 -0.4689
 6998TIP3   OH242484   5.335   1.658   2.982  0.1567  0.1640  0.0934
 6998TIP3    H142485   5.340   1.640   3.076  1.1789  0.0763  0.0403
 6998TIP3    H242486   5.282   1.587   2.947  2.1132 -1.4495  0.2301
 6999TIP3   OH242487   6.011   2.280  13.102 -0.3501 -0.1622 -0.0410
 6999TIP3    H142488   5.968   2.256  13.184 -3.2773 -1.2108 -1.6955
 6999TIP3    H242489   5.996   2.374  13.094  0.1914 -0.0040  0.7320
 7000TIP3   OH242490   0.314   0.253   1.128  0.1221 -0.1497 -0.1318
 7000TIP3    H142491   0.292   0.299   1.047  1.2271 -0.1687 -0.4589
 7000TIP3    H242492   0.275   0.167   1.119 -0.6579  0.1997 -0.1785
 7001TIP3   OH242493   4.003   6.024  11.901  0.4811  0.3086 -0.6742
 7001TIP3    H142494   4.056   6.091  11.857  1.4481 -1.4226 -2.2584
 7001TIP3    H242495   4.012   5.946  11.847 -2.1828 -0.6137  0.0310
 7002TIP3   OH242496   6.464   6.402   0.266  1.0233  0.2299 -0.2361
 7002TIP3    H142497   6.446   6.414   0.359  0.1383 -0.0724 -0.3669
 7002TIP3    H242498   6.521   6.325   0.262  0.0363 -0.5181 -0.0393
 7003TIP3   OH242499   3.414   3.855  16.009  0.0724  0.0583 -0.2780
 7003TIP3    H142500   3.360   3.906  16.070  0.9834  1.5619 -0.6676
 7003TIP3    H242501   3.353   3.821  15.944 -0.9407 -1.6690  1.4770
 7004TIP3   OH242502   6.779   4.915   1.180 -0.1328 -0.5637  0.0328
 7004TIP3    H142503   6.705   4.862   1.209  0.3468 -0.4940  1.4840
 7004TIP3    H242504   6.773   4.995   1.232  1.0075 -0.5965  0.2332
 7005TIP3   OH242505   6.033   0.226   3.901 -0.0842  0.0476 -0.0926
 7005TIP3    H142506   6.009   0.271   3.820  0.2773 -0.2425 -0.3602
 7005TIP3    H242507   5.950   0.189   3.933 -0.1403 -0.2801 -0.6028
 7006TIP3   OH242508   1.832   2.188  14.356  0.3947  0.2004  0.2057
 7006TIP3    H142509   1.816   2.235  14.275 -1.0154  2.3858  1.6534
 7006TIP3    H242510   1.775   2.230  14.420  1.4218 -1.4580  2.3373
 7007TIP3   OH242511   1.202   1.223  11.946  0.2712 -0.0094 -0.7801
 7007TIP3    H142512   1.109   1.215  11.925 -0.2677  0.6662  1.1687
 7007TIP3    H242513   1.217   1.157  12.014  0.4316  1.9549  1.1864
 7008TIP3   OH242514   1.823   2.001   1.181  0.4329 -0.1824  0.5621
 7008TIP3    H142515   1.813   2.073   1.119  0.8896  1.4564  2.2893
 7008TIP3    H242516   1.738   1.956   1.180 -0.0905  0.7870 -0.0753
 7009TIP3   OH242517   1.439   1.283  16.394 -0.2288 -0.0793 -0.2626
 7009TIP3    H142518   1.512   1.339  16.371  0.0720  0.1305  1.1207
 7009TIP3    H242519   1.473   1.226  16.463 -0.5117 -2.0015 -1.6360
 7010TIP3   OH242520   4.515   5.632  14.352 -0.4644 -0.2951 -0.3959
 7010TIP3    H142521   4.553   5.554  14.312 -1.6331 -1.5065  0.7564
 7010TIP3    H242522   4.450   5.663  14.289  0.7662  0.4531 -1.3516
 7011TIP3   OH242523   3.810   5.488   4.391 -0.1715  0.2097 -0.2684
 7011TIP3    H142524   3.789   5.439   4.312 -0.4311  1.3295 -0.9125
 7011TIP3    H242525   3.738   5.550   4.402  1.6447  2.6844 -1.3424
 7012TIP3   OH242526   6.040   0.129  16.368  0.1240 -0.0214  0.1370
 7012TIP3    H142527   6.005   0.045  16.400  0.8329 -0.6822 -0.7645
 7012TIP3    H242528   5.982   0.195  16.407  0.2143 -0.8477  1.7854
 7013TIP3   OH242529   5.715   0.435   1.432 -0.0686 -0.2508  0.4323
 7013TIP3    H142530   5.709   0.379   1.355 -2.4489  1.0873 -0.4434
 7013TIP3    H242531   5.677   0.384   1.503 -0.3117 -0.5006  0.1212
 7014TIP3   OH242532   1.820   0.842   2.889 -0.0707  0.1796 -0.5148
 7014TIP3    H142533   1.815   0.918   2.947 -0.2961  1.8108 -2.5505
 7014TIP3    H242534   1.913   0.829   2.874  0.0340 -0.8048  0.8542
 7015TIP3   OH242535   6.395   2.884   3.425 -0.0799  0.0057  0.2067
 7015TIP3    H142536   6.351   2.859   3.506  0.8483  1.1822  1.1099
 7015TIP3    H242537   6.486   2.896   3.450  0.1408  0.8595 -0.9103
 7016TIP3   OH242538   0.224   3.954  14.160 -0.2491 -0.2211  0.0795
 7016TIP3    H142539   0.209   3.973  14.067 -1.0220  0.5624  0.3506
 7016TIP3    H242540   0.278   4.026  14.191  0.1314 -0.5583  0.2115
 7017TIP3   OH242541   5.559   1.375   3.368  0.3774 -0.3928  0.5363
 7017TIP3    H142542   5.577   1.354   3.276 -0.9052  1.2008 -0.1326
 7017TIP3    H242543   5.542   1.291   3.409 -2.3491 -0.9494 -1.4608
 7018TIP3   OH242544   1.402   3.349   2.564  0.0022 -0.0758  0.2229
 7018TIP3    H142545   1.471   3.362   2.630 -0.3591 -2.2440  1.1356
 7018TIP3    H242546   1.365   3.263   2.585 -1.2060 -0.1433 -1.8857
 7019TIP3   OH242547   3.806   0.875   4.640 -0.9945  0.1210  0.2441
 7019TIP3    H142548   3.885   0.830   4.610 -1.0981  0.1100 -0.0145
 7019TIP3    H242549   3.793   0.946   4.577 -0.1796  1.2408  1.3005
 7020TIP3   OH242550   0.193   0.142   3.662  0.3629 -0.3894  0.2922
 7020TIP3    H142551   0.110   0.185   3.683  0.2968 -1.2813  2.1070
 7020TIP3    H242552   0.183   0.053   3.695  2.1507 -0.4098  0.9048
 7021TIP3   OH242553   1.743   5.132  16.807  0.3071  0.2412 -0.3019
 7021TIP3    H142554   1.668   5.126  16.866 -0.0651  0.4537 -0.7495
 7021TIP3    H242555   1.708   5.174  16.728  0.6514 -0.5678 -0.8994
 7022TIP3   OH242556   6.285   0.531  17.075  0.7738  0.1358 -0.5159
 7022TIP3    H142557   6.277   0.463  17.142  1.2577  0.7181  0.1601
 7022TIP3    H242558   6.241   0.607  17.114  1.8266  0.7447 -0.4649
 7023TIP3   OH242559   4.398   3.047   6.579  0.3902 -0.2512 -0.6967
 7023TIP3    H142560   4.426   3.018   6.666 -0.5747  0.8570  0.0032
 7023TIP3    H242561   4.332   2.984   6.552 -1.8528  1.2836  0.9077
 7024TIP3   OH242562   0.368   6.007   0.886 -0.3432  0.6792 -0.4245
 7024TIP3    H142563   0.309   5.959   0.945 -0.1105  0.7248 -0.1537
 7024TIP3    H242564   0.366   5.956   0.805  1.8946 -1.3109  0.6555
 7025TIP3   OH242565   5.339   3.455   6.353 -0.2949  0.2630 -0.1741
 7025TIP3    H142566   5.278   3.462   6.280 -0.1005 -0.3357 -0.3980
 7025TIP3    H242567   5.291   3.407   6.420 -0.1146 -0.1029 -0.3049
 7026TIP3   OH242568   2.564   0.261   0.918  0.3537  0.9474 -0.2441
 7026TIP3    H142569   2.606   0.261   1.005 -1.9514  0.3322  0.9477
 7026TIP3    H242570   2.596   0.181   0.877  1.7735  1.4350 -0.1606
 7027TIP3   OH242571   6.294   4.238   2.839 -0.4373  0.2650 -0.9076
 7027TIP3    H142572   6.384   4.253   2.868 -0.8987 -0.5336  1.1391
 7027TIP3    H242573   6.255   4.325   2.837 -0.3510  0.3808  0.9276
 7028TIP3   OH242574   4.387   1.569   3.621 -0.4850  0.9413 -0.7577
 7028TIP3    H142575   4.335   1.490   3.637 -1.3960  1.1625 -2.3883
 7028TIP3    H242576   4.448   1.543   3.553 -0.1693  1.3945 -0.6453
 7029TIP3   OH242577   2.893   6.533  13.287 -0.5829  0.0617 -0.2745
 7029TIP3    H142578   2.828   6.463  13.284  1.2292 -1.7937  1.2362
 7029TIP3    H242579   2.846   6.607  13.326 -2.3045 -0.5620 -1.0536
 7030TIP3   OH242580   4.224   3.549   5.471 -0.6659  0.1286 -0.0911
 7030TIP3    H142581   4.203   3.642   5.481 -1.4570  0.0319 -0.6877
 7030TIP3    H242582   4.281   3.545   5.394  0.3747  0.2400  0.6635
 7031TIP3   OH242583   1.424   6.180   5.341  0.1261 -0.0593  0.1778
 7031TIP3    H142584   1.333   6.164   5.366 -0.2053  1.1925 -0.1595
 7031TIP3    H242585   1.423   6.267   5.302  1.5151  0.0497  0.3471
 7032TIP3   OH242586   1.840   2.406  15.901 -0.2758 -0.2227  0.2847
 7032TIP3    H142587   1.896   2.418  15.978 -1.6056 -1.7186  1.5402
 7032TIP3    H242588   1.901   2.387  15.830  0.9673  1.0116  0.9670
 7033TIP3   OH242589   2.696   5.219  11.720  0.3378  0.4280 -0.2662
 7033TIP3    H142590   2.652   5.148  11.765  0.6013  0.7133  0.4656
 7033TIP3    H242591   2.769   5.242  11.777 -0.5514  2.2211  0.2253
 7034TIP3   OH242592   5.143   0.366   2.599  0.0758 -0.0859 -0.0337
 7034TIP3    H142593   5.171   0.328   2.516  0.2890  0.6099 -0.2835
 7034TIP3    H242594   5.049   0.353   2.601 -0.2418  1.7309 -1.3421
 7035TIP3   OH242595   0.647   1.160  13.902 -0.0789 -0.3189  0.1832
 7035TIP3    H142596   0.713   1.104  13.861 -1.7436 -2.0240 -0.2983
 7035TIP3    H242597   0.608   1.106  13.970 -1.3010  0.4826  0.1486
 7036TIP3   OH242598   6.264   5.108   1.528 -0.6864  0.3098  0.1568
 7036TIP3    H142599   6.186   5.109   1.584 -1.6363  1.8312 -1.1127
 7036TIP3    H242600   6.246   5.039   1.464 -1.6090  1.4738 -0.8917
 7037TIP3   OH242601   3.398   1.301  14.259  0.3607 -0.3213  0.0275
 7037TIP3    H142602   3.311   1.262  14.251  0.0091 -0.0253  1.8775
 7037TIP3    H242603   3.386   1.392  14.230 -0.2207  0.0003  1.1910
 7038TIP3   OH242604   6.423   5.341   4.511  0.1417  0.5743 -0.4043
 7038TIP3    H142605   6.430   5.278   4.582 -0.2511 -1.1519 -1.8213
 7038TIP3    H242606   6.329   5.360   4.504  0.0331 -0.2166 -1.2298
 7039TIP3   OH242607   4.169   4.604  17.192 -0.6525  0.2827  0.3871
 7039TIP3    H142608   4.157   4.634  17.102 -0.6827 -0.3610  0.1725
 7039TIP3    H242609   4.116   4.525  17.198 -3.2923  2.0166  1.9247
 7040TIP3   OH242610   6.559   4.846  13.597 -0.0082  0.2354  0.1282
 7040TIP3    H142611   6.638   4.900  13.589  0.3417 -0.3281 -0.2292
 7040TIP3    H242612   6.488   4.910  13.602  0.4065  0.7368 -0.2395
 7041TIP3   OH242613   4.275   2.619   1.383 -0.3744  0.0019  0.4110
 7041TIP3    H142614   4.302   2.643   1.472 -0.2067  0.1467  0.3234
 7041TIP3    H242615   4.214   2.688   1.357 -2.4936 -1.4131  1.3807
 7042TIP3   OH242616   2.373   1.028  15.747  0.1852 -0.0022 -0.1531
 7042TIP3    H142617   2.429   0.961  15.785 -1.3404 -1.2313 -0.0030
 7042TIP3    H242618   2.344   0.991  15.664 -1.0238  0.2693  0.1341
 7043TIP3   OH242619   1.373   0.733  15.582  0.2767  0.3603  0.0409
 7043TIP3    H142620   1.299   0.675  15.597  0.3757  0.7367  2.3999
 7043TIP3    H242621   1.363   0.762  15.492 -0.9398 -1.6456 -0.5318
 7044TIP3   OH242622   3.393   6.256   1.324  0.0791 -0.3601 -0.0797
 7044TIP3    H142623   3.451   6.191   1.283  2.9890  1.0402  1.4944
 7044TIP3    H242624   3.419   6.339   1.284 -1.6464  0.2159 -0.0736
 7045TIP3   OH242625   6.819   6.142  15.020  0.2612 -0.2819  0.6685
 7045TIP3    H142626   6.909   6.165  14.996 -0.0735 -0.0049 -0.3440
 7045TIP3    H242627   6.766   6.170  14.946 -0.6224 -0.8190  1.0800
 7046TIP3   OH242628   6.575   0.710  16.491  0.0564  0.0535  0.0068
 7046TIP3    H142629   6.549   0.618  16.501  0.1235 -0.0829 -0.9965
 7046TIP3    H242630   6.634   0.711  16.416  1.5811  0.6433  1.1548
 7047TIP3   OH242631   0.141   2.183   2.397 -0.1535  0.3303 -0.1083
 7047TIP3    H142632   0.100   2.097   2.386 -2.3265  1.4154 -1.1157
 7047TIP3    H242633   0.072   2.246   2.373  0.4117  2.4947  3.2081
 7048TIP3   OH242634   4.473   1.351   6.084 -0.3916  0.2802 -0.4266
 7048TIP3    H142635   4.397   1.410   6.087 -0.1006  0.6388 -0.0968
 7048TIP3    H242636   4.509   1.362   5.996  1.1774  2.5216  0.4349
 7049TIP3   OH242637   3.144   3.138  12.042 -0.1457  0.0942 -0.1061
 7049TIP3    H142638   3.190   3.059  12.012 -0.8950  0.1335 -1.4655
 7049TIP3    H242639   3.203   3.178  12.106  1.3746 -0.2657 -1.2327
 7050TIP3   OH242640   5.584   6.738  15.238 -0.5108 -0.2037 -0.6935
 7050TIP3    H142641   5.612   6.687  15.163 -1.8708  0.6360 -1.8168
 7050TIP3    H242642   5.524   6.681  15.286 -1.6139  0.1234 -1.6520
 7051TIP3   OH242643   2.296   2.767   5.177 -0.3741  0.0508 -0.5656
 7051TIP3    H142644   2.334   2.818   5.105 -0.4837  0.1360 -0.5629
 7051TIP3    H242645   2.357   2.694   5.189  0.6097  0.9847  0.4201
 7052TIP3   OH242646   2.005   1.424   3.242  0.4374  0.1145 -0.2289
 7052TIP3    H142647   1.987   1.330   3.253 -1.0662  0.4286  0.2052
 7052TIP3    H242648   1.945   1.452   3.173  1.9962  0.4665 -1.5173
 7053TIP3   OH242649   5.450   0.020   2.279  0.1850 -0.1715  0.3367
 7053TIP3    H142650   5.506  -0.041   2.327 -0.1365 -0.4763  0.3286
 7053TIP3    H242651   5.364   0.011   2.321 -0.0109 -0.1766 -0.0653
 7054TIP3   OH242652   5.798   5.632   1.196 -0.0671 -0.1007 -0.3196
 7054TIP3    H142653   5.877   5.591   1.161 -0.5714 -1.5273  0.1343
 7054TIP3    H242654   5.726   5.583   1.158 -0.6679 -0.5064  1.2434
 7055TIP3   OH242655   0.062   2.328  11.831 -0.5993  0.0777 -0.7257
 7055TIP3    H142656   0.037   2.237  11.816  1.4190 -0.0639 -4.2147
 7055TIP3    H242657   0.060   2.368  11.745 -1.7763  3.5332  0.7549
 7056TIP3   OH242658   0.488   3.568  16.514 -0.7614 -0.2716  0.5810
 7056TIP3    H142659   0.551   3.510  16.556  0.5600  0.9518  0.3555
 7056TIP3    H242660   0.415   3.573  16.576 -0.6914 -1.7517  0.8221
 7057TIP3   OH242661   2.719   1.905  14.616  0.2472 -0.0099 -0.0592
 7057TIP3    H142662   2.709   1.977  14.678  1.0234 -0.1736  0.2733
 7057TIP3    H242663   2.659   1.837  14.647  0.4537  0.0050  0.3778
 7058TIP3   OH242664   5.939   0.875  15.915  0.1527 -0.0054  0.4306
 7058TIP3    H142665   5.977   0.801  15.868 -0.0319 -0.5636  1.1379
 7058TIP3    H242666   5.991   0.881  15.996  1.3859  1.8144 -0.4259
 7059TIP3   OH242667   1.064   4.019  12.934  0.1883 -0.1861  0.6961
 7059TIP3    H142668   1.089   3.951  12.872  1.2477  2.0739 -1.5220
 7059TIP3    H242669   1.092   3.985  13.019  0.6439 -2.4836 -0.2835
 7060TIP3   OH242670   3.526   3.943   1.860 -0.4913 -0.2400  0.0410
 7060TIP3    H142671   3.533   4.039   1.861 -0.8992 -0.1821  1.7856
 7060TIP3    H242672   3.601   3.914   1.808  0.5130  1.0014  0.7169
 7061TIP3   OH242673   6.664   1.699  17.140  0.2177 -0.2226  0.0789
 7061TIP3    H142674   6.589   1.656  17.180 -0.3237  0.1354 -0.5400
 7061TIP3    H242675   6.735   1.688  17.203 -0.8216  1.0336  1.5423
 7062TIP3   OH242676   3.565   6.776  16.283  0.5226  0.1485  0.7939
 7062TIP3    H142677   3.582   6.722  16.206  4.4135  2.2011 -0.0711
 7062TIP3    H242678   3.549   6.713  16.353 -0.4825 -1.8635 -1.1043
 7063TIP3   OH242679   0.629   3.123  15.637 -0.5375 -0.6400  0.6801
 7063TIP3    H142680   0.664   3.102  15.723  1.2478  1.0322  0.4431
 7063TIP3    H242681   0.596   3.213  15.645  1.0479  0.1308 -0.6820
 7064TIP3   OH242682   4.096   1.624   6.720  0.5147 -1.0215  0.8865
 7064TIP3    H142683   4.008   1.663   6.722  0.5059 -0.8984 -0.7571
 7064TIP3    H242684   4.148   1.683   6.774  0.0092  0.0498  0.2451
 7065TIP3   OH242685   3.600   4.799   3.662  0.6296 -0.0146  0.1505
 7065TIP3    H142686   3.524   4.822   3.716  1.2199  1.3905  0.4154
 7065TIP3    H242687   3.567   4.732   3.602 -1.2116  1.4820 -0.6350
 7066TIP3   OH242688   6.597   0.357  14.540  0.1246 -0.2264  0.0412
 7066TIP3    H142689   6.586   0.450  14.560 -2.8936 -0.3049 -0.6724
 7066TIP3    H242690   6.536   0.341  14.468 -1.0522 -3.1629  1.5356
 7067TIP3   OH242691   0.916   5.359  11.206 -0.5309  0.1653 -0.0851
 7067TIP3    H142692   0.942   5.361  11.114  3.5335 -1.2233  0.8278
 7067TIP3    H242693   0.942   5.444  11.241 -1.5603  0.4777 -0.0239
 7068TIP3   OH242694   2.118   4.913   5.363  0.3173  0.4706 -0.2167
 7068TIP3    H142695   2.087   4.823   5.367  2.3290 -0.2397  2.8295
 7068TIP3    H242696   2.078   4.955   5.439 -0.3217  2.1137 -1.4064
 7069TIP3   OH242697   6.218   2.780   4.418 -0.1048  0.2510  0.4887
 7069TIP3    H142698   6.302   2.821   4.395  0.2434 -0.2144  0.9105
 7069TIP3    H242699   6.241   2.711   4.480 -0.7427 -0.2246  0.2105
 7070TIP3   OH242700   0.224   4.079   2.874 -0.4996  0.1717  0.6909
 7070TIP3    H142701   0.260   4.087   2.962  0.9823  2.3326 -0.0227
 7070TIP3    H242702   0.134   4.051   2.887 -0.0861 -0.2826  2.8463
 7071TIP3   OH242703   6.697   3.333   3.891 -0.6874 -0.4221  0.3858
 7071TIP3    H142704   6.734   3.421   3.890  1.6341 -1.3345  0.4486
 7071TIP3    H242705   6.656   3.323   3.806 -0.5136  0.5285  0.1790
 7072TIP3   OH242706   4.071   5.280   5.209  0.0011 -0.0148 -0.5123
 7072TIP3    H142707   4.161   5.303   5.231 -0.4090  0.7640  0.4661
 7072TIP3    H242708   4.049   5.339   5.137 -0.1694  0.8162  0.1980
 7073TIP3   OH242709   4.490   5.013  14.701  0.1056 -0.4656 -0.0856
 7073TIP3    H142710   4.521   5.087  14.648  1.4718  1.0922  2.7088
 7073TIP3    H242711   4.407   5.043  14.738  0.6950 -0.2851  1.1075
 7074TIP3   OH242712   2.910   2.322   3.342  0.0234 -0.2872  0.1300
 7074TIP3    H142713   2.982   2.272   3.382  0.9231  0.8663  0.0156
 7074TIP3    H242714   2.884   2.385   3.409  0.0660  0.2181 -0.3167
 7075TIP3   OH242715   1.039   0.961   5.387  0.1869  0.2722 -0.6990
 7075TIP3    H142716   1.082   0.888   5.343 -0.6314  1.1165 -3.0903
 7075TIP3    H242717   1.101   0.989   5.454  1.4718 -1.2068 -1.2100
 7076TIP3   OH242718   6.632   3.271  13.750  0.3484 -0.3184  0.6216
 7076TIP3    H142719   6.599   3.287  13.838 -0.6605 -0.3310  0.2541
 7076TIP3    H242720   6.653   3.358  13.716 -0.3209 -0.2114  0.4735
 7077TIP3   OH242721   5.261   0.364   0.826  0.4029  0.2200 -0.1022
 7077TIP3    H142722   5.283   0.456   0.842  0.4871  0.0946  0.5099
 7077TIP3    H242723   5.336   0.315   0.860 -1.1250 -0.2736  2.9090
 7078TIP3   OH242724   0.689   2.316   0.687  0.6950 -0.7054 -0.3307
 7078TIP3    H142725   0.665   2.407   0.669  1.4853  0.2848  2.9002
 7078TIP3    H242726   0.606   2.269   0.686  0.0434  0.4038 -0.3597
 7079TIP3   OH242727   1.126   1.465   5.037 -0.2207 -0.1095  0.2842
 7079TIP3    H142728   1.067   1.498   4.970 -2.4723  0.5419  2.4248
 7079TIP3    H242729   1.106   1.371   5.043  1.8246 -0.7574 -1.5959
 7080TIP3   OH242730   0.075   5.899  14.244  0.3684  0.2528 -0.1004
 7080TIP3    H142731  -0.014   5.863  14.247 -0.4723  1.9354 -2.0814
 7080TIP3    H242732   0.082   5.939  14.157  3.6751 -1.1974 -0.6534
 7081TIP3   OH242733   2.463   1.420   6.224  1.0079  0.3041  0.0052
 7081TIP3    H142734   2.414   1.349   6.181 -0.6838  1.3473  0.1170
 7081TIP3    H242735   2.465   1.394   6.316  3.2129 -1.1287 -0.3742
 7082TIP3   OH242736   3.561   1.496  16.339  0.0373  0.0270 -0.5139
 7082TIP3    H142737   3.535   1.413  16.379  0.9746  0.2640  0.6337
 7082TIP3    H242738   3.635   1.473  16.283 -0.3689 -0.0722 -1.0164
 7083TIP3   OH242739   1.997   4.934   0.330  0.0533 -0.6709  0.0581
 7083TIP3    H142740   1.968   4.933   0.238 -1.6691 -1.1912  0.5701
 7083TIP3    H242741   2.040   4.849   0.342  0.7966 -0.3675 -0.4091
 7084TIP3   OH242742   1.858   2.646   1.289 -0.4884 -0.3285 -0.7768
 7084TIP3    H142743   1.791   2.713   1.297  0.2459  0.2367  1.6107
 7084TIP3    H242744   1.823   2.570   1.337  0.4247 -0.0878  0.3378
 7085TIP3   OH242745   4.749   3.913  12.676 -0.2985 -0.4910 -0.3938
 7085TIP3    H142746   4.795   3.915  12.759 -1.0832 -0.7201  0.0632
 7085TIP3    H242747   4.662   3.949  12.695  0.0707  1.0834 -1.4959
 7086TIP3   OH242748   2.727   4.453   3.545  0.1570 -0.3243  0.2368
 7086TIP3    H142749   2.680   4.491   3.619  2.8380  1.2840  1.2639
 7086TIP3    H242750   2.712   4.515   3.473 -1.1906 -1.0863 -0.1721
 7087TIP3   OH242751   2.647   6.047  13.728  0.4717 -0.1117  0.0395
 7087TIP3    H142752   2.572   6.067  13.673  1.3031 -0.9202 -1.4585
 7087TIP3    H242753   2.702   6.126  13.722  0.0063  0.2795  0.7290
 7088TIP3   OH242754   4.710   3.254   5.999 -0.0892 -0.7055 -0.2529
 7088TIP3    H142755   4.669   3.170   5.982  0.1343 -1.3148  1.9654
 7088TIP3    H242756   4.685   3.277   6.088  0.2314  1.3784 -0.6282
 7089TIP3   OH242757   4.759   4.599   1.283  0.2049 -0.0952 -0.4091
 7089TIP3    H142758   4.705   4.675   1.263 -1.1199 -0.8246  0.2766
 7089TIP3    H242759   4.706   4.524   1.257  0.8355 -0.8402  0.3743
 7090TIP3   OH242760   4.387   4.394   2.843 -0.3482 -0.7490 -0.4719
 7090TIP3    H142761   4.471   4.439   2.845 -0.2271 -0.9839  0.1255
 7090TIP3    H242762   4.408   4.305   2.816 -0.5608 -0.5066 -1.4541
 7091TIP3   OH242763   5.205   6.753   5.084  0.2598 -0.5868 -0.0218
 7091TIP3    H142764   5.210   6.664   5.119  0.3623 -0.8135 -0.6105
 7091TIP3    H242765   5.297   6.778   5.071  0.3855  0.5259  2.4107
 7092TIP3   OH242766   6.557   0.956  15.115  0.0818 -0.6252  0.2614
 7092TIP3    H142767   6.463   0.954  15.131 -0.0514  0.9163 -0.1972
 7092TIP3    H242768   6.576   0.871  15.075 -1.2096 -0.7703 -0.0862
 7093TIP3   OH242769   3.888   5.004   0.577 -0.2282 -0.5465  0.4680
 7093TIP3    H142770   3.882   5.080   0.636 -0.0696 -0.3512  0.2367
 7093TIP3    H242771   3.976   4.969   0.592  0.9298  1.1849 -1.6536
 7094TIP3   OH242772   0.808   0.538   1.208  1.0429 -0.6283 -0.0434
 7094TIP3    H142773   0.834   0.524   1.117 -1.5433 -0.1551 -0.9395
 7094TIP3    H242774   0.718   0.572   1.202  1.1514  0.3561  2.6559
 7095TIP3   OH242775   5.186   0.329   2.131 -0.0271 -0.2140 -0.4640
 7095TIP3    H142776   5.224   0.414   2.108  0.5685 -0.0768  0.9383
 7095TIP3    H242777   5.181   0.282   2.047  3.9184 -0.5159 -0.7205
 7096TIP3   OH242778   5.434   2.644  13.260 -0.1619 -0.1874  0.2394
 7096TIP3    H142779   5.380   2.588  13.317 -1.2453  1.0182  0.4635
 7096TIP3    H242780   5.390   2.640  13.175  0.3178 -0.4391  0.0041
 7097TIP3   OH242781   1.674   3.259  13.779 -0.1550  0.3851  0.2514
 7097TIP3    H142782   1.741   3.191  13.779 -1.7584 -1.2690  0.1336
 7097TIP3    H242783   1.686   3.304  13.695  2.1812  1.6299  1.1597
 7098TIP3   OH242784   3.444   4.505  16.039  0.4902 -0.9084 -0.1501
 7098TIP3    H142785   3.470   4.451  15.964  1.3741 -0.6971 -0.0053
 7098TIP3    H242786   3.525   4.549  16.066  0.1668 -0.9374  0.8917
 7099TIP3   OH242787   0.237   5.081   2.896 -0.2761 -0.1295 -0.3299
 7099TIP3    H142788   0.277   5.068   2.982 -0.4934 -0.0370 -0.2134
 7099TIP3    H242789   0.280   5.017   2.839  0.6503  0.5480 -0.4138
 7100TIP3   OH242790   5.344   3.999   0.170  0.4621  0.3055  0.5326
 7100TIP3    H142791   5.372   3.912   0.141  0.6312  0.1939  1.0251
 7100TIP3    H242792   5.254   3.986   0.202  1.1460 -0.0994  2.4174
 7101TIP3   OH242793   3.076   5.658   2.652  0.4924 -0.4318  0.9842
 7101TIP3    H142794   3.169   5.644   2.634  0.2976  0.0437 -0.5765
 7101TIP3    H242795   3.075   5.713   2.731  1.5872  0.5935  0.3293
 7102TIP3   OH242796   6.272   2.960   1.317 -0.0376 -0.1006 -0.2497
 7102TIP3    H142797   6.184   2.993   1.295  0.5394 -0.3017 -3.1464
 7102TIP3    H242798   6.308   2.931   1.234  3.0519  0.5591  0.7564
 7103TIP3   OH242799   5.346   2.642  15.143 -0.2780  0.2260  0.1996
 7103TIP3    H142800   5.267   2.676  15.185 -1.2648 -0.7059 -0.8411
 7103TIP3    H242801   5.364   2.559  15.188 -1.0563 -0.5342 -0.8480
 7104TIP3   OH242802   2.922   6.499   2.727 -0.2123 -0.2685 -0.0003
 7104TIP3    H142803   2.980   6.574   2.741  0.0902 -0.0455 -2.0626
 7104TIP3    H242804   2.968   6.444   2.663 -0.5212 -2.1588  1.3291
 7105TIP3   OH242805   0.192   3.981   0.258 -0.3219  0.3734  0.2915
 7105TIP3    H142806   0.286   3.976   0.278 -0.7158 -1.6890  1.9371
 7105TIP3    H242807   0.159   4.051   0.314 -0.1449 -0.4798  1.4880
 7106TIP3   OH242808   6.337   1.047   6.619 -0.3889 -0.2972 -0.5085
 7106TIP3    H142809   6.408   1.007   6.570  0.2032 -0.8257  0.7422
 7106TIP3    H242810   6.323   1.132   6.577  2.0534  0.5138  0.1473
 7107TIP3   OH242811   2.750   1.937  16.073 -0.1741 -0.1073  0.0916
 7107TIP3    H142812   2.815   1.957  16.140 -0.6393 -1.3398  0.9416
 7107TIP3    H242813   2.763   1.844  16.054 -2.4898 -0.7364  1.2092
 7108TIP3   OH242814   1.097   2.241  12.628  0.1094 -0.2026  0.1661
 7108TIP3    H142815   1.055   2.322  12.597 -2.7679 -1.2781  0.9856
 7108TIP3    H242816   1.141   2.206  12.551  0.3923  1.5069 -0.5006
 7109TIP3   OH242817   3.326   4.454   2.245  0.7857  0.4829  0.3495
 7109TIP3    H142818   3.317   4.462   2.150  0.6376  1.3439  0.4322
 7109TIP3    H242819   3.419   4.465   2.262  0.7996  0.4152  0.3182
 7110TIP3   OH242820   2.950   1.151  15.813  0.1528  0.3992  0.1129
 7110TIP3    H142821   3.001   1.140  15.893  0.0149  0.8536  0.2659
 7110TIP3    H242822   2.859   1.153  15.842  0.0865  0.2619 -0.0866
 7111TIP3   OH242823   1.345   2.850  15.130  0.4303 -0.4266 -0.0516
 7111TIP3    H142824   1.353   2.833  15.036 -0.1730 -2.6917  0.2227
 7111TIP3    H242825   1.284   2.923  15.136 -0.7071 -1.1961 -1.4408
 7112TIP3   OH242826   3.152   2.535   0.133  0.2564  0.4062 -0.1002
 7112TIP3    H142827   3.190   2.448   0.122  2.8702  1.2051  1.6791
 7112TIP3    H242828   3.111   2.533   0.219 -0.3773  0.7197 -0.3879
 7113TIP3   OH242829   1.578   0.696   2.007  0.3671  0.0283 -0.3236
 7113TIP3    H142830   1.506   0.652   1.962 -0.1116 -1.3962  1.6976
 7113TIP3    H242831   1.539   0.729   2.088  1.0445  3.0515 -1.0889
 7114TIP3   OH242832   0.524   2.688   2.639 -0.0525  0.4970  0.1672
 7114TIP3    H142833   0.429   2.672   2.643  0.2198 -1.7063 -0.6413
 7114TIP3    H242834   0.559   2.638   2.713  0.5734  0.4751 -0.1449
 7115TIP3   OH242835   4.354   1.373   3.022 -1.1093 -0.2583 -0.7410
 7115TIP3    H142836   4.305   1.441   2.976 -1.8508 -0.1011  0.2523
 7115TIP3    H242837   4.435   1.364   2.972 -0.2177  2.5355  0.0385
 7116TIP3   OH242838   6.115   3.403  12.270  0.1194  0.3884 -0.4265
 7116TIP3    H142839   6.189   3.401  12.331 -1.2737 -0.2082  1.3330
 7116TIP3    H242840   6.150   3.364  12.190  2.0193  1.2078 -0.0657
 7117TIP3   OH242841   5.303   0.719   0.121 -0.2822  0.7799  0.0885
 7117TIP3    H142842   5.215   0.719   0.159 -0.7616  2.6826 -0.8400
 7117TIP3    H242843   5.304   0.643   0.062 -0.7870 -0.0806  1.1616
 7118TIP3   OH242844   0.931   6.816  15.841  0.5311 -0.2514 -0.3849
 7118TIP3    H142845   0.937   6.847  15.750 -0.8196  1.0475 -0.0545
 7118TIP3    H242846   0.946   6.721  15.834  2.0636  0.0405 -1.7437
 7119TIP3   OH242847   6.309   3.225  14.481  0.2674 -0.1756  0.4546
 7119TIP3    H142848   6.280   3.176  14.558 -0.8850  1.0586  0.8657
 7119TIP3    H242849   6.398   3.253  14.502  0.2216 -0.4623  1.0391
 7120TIP3   OH242850   4.330   3.554  14.382  0.7914  0.0745  0.3967
 7120TIP3    H142851   4.374   3.639  14.378  2.2918 -0.6967 -0.2946
 7120TIP3    H242852   4.315   3.540  14.475  1.1319  0.8078  0.5725
 7121TIP3   OH242853   1.242   1.985  13.053 -0.4329  0.4415 -0.8936
 7121TIP3    H142854   1.172   2.043  13.084 -0.5617  0.5372 -1.3522
 7121TIP3    H242855   1.260   1.927  13.127 -0.4054  0.9697 -0.4732
 7122TIP3   OH242856   4.822   1.614   5.942 -0.3242  0.0892 -0.9112
 7122TIP3    H142857   4.726   1.616   5.934 -0.4035 -0.5773 -0.2863
 7122TIP3    H242858   4.837   1.607   6.036  0.3412  0.1899 -1.0103
 7123TIP3   OH242859   0.633   0.546  13.307 -0.0774 -0.2106  0.2446
 7123TIP3    H142860   0.653   0.537  13.400  2.2586 -0.3051 -0.1882
 7123TIP3    H242861   0.690   0.483  13.264  0.0779  0.9335 -1.3485
 7124TIP3   OH242862   3.011   3.988  10.629 -0.3282 -0.2421  0.1624
 7124TIP3    H142863   2.941   4.034  10.583  1.6426  1.3178 -1.4725
 7124TIP3    H242864   3.059   4.057  10.675  1.0776 -0.9986 -0.1064
 7125TIP3   OH242865   6.705   3.359   2.611 -0.2919 -0.3200 -0.5538
 7125TIP3    H142866   6.693   3.321   2.698  1.3023 -1.6099 -0.8626
 7125TIP3    H242867   6.624   3.339   2.564 -0.7327 -0.5388  0.2818
 7126TIP3   OH242868   0.433   0.994   3.483 -0.2735 -0.1014 -0.1645
 7126TIP3    H142869   0.385   0.937   3.423  1.6503  0.0084 -1.9312
 7126TIP3    H242870   0.496   0.935   3.525  0.6713  0.3953 -0.8412
 7127TIP3   OH242871   0.310   3.815   0.781  0.4334 -0.0986 -0.0084
 7127TIP3    H142872   0.331   3.754   0.710  2.6963  1.0361 -0.4140
 7127TIP3    H242873   0.355   3.778   0.857 -0.1074 -0.1293  0.2943
 7128TIP3   OH242874   2.763   5.199   0.957 -0.1324  0.2298 -0.2797
 7128TIP3    H142875   2.669   5.196   0.941  0.1318 -0.2450 -1.9641
 7128TIP3    H242876   2.787   5.290   0.943 -0.3547  0.3566  0.1843
 7129TIP3   OH242877   5.122   6.816  12.866  0.5146 -0.0598 -0.1579
 7129TIP3    H142878   5.163   6.785  12.785  0.2837  1.9483 -1.1035
 7129TIP3    H242879   5.192   6.864  12.911  0.4728 -0.6565  0.5657
 7130TIP3   OH242880   4.617   2.989  14.837 -0.7925  0.1233 -0.4556
 7130TIP3    H142881   4.547   2.998  14.772 -0.0938 -1.8018 -1.5486
 7130TIP3    H242882   4.665   3.072  14.832 -0.4396 -0.1471 -2.8331
 7131TIP3   OH242883   6.581   2.550   5.400  0.4859  0.1301 -0.4654
 7131TIP3    H142884   6.598   2.641   5.424  0.2663 -0.3838  1.8584
 7131TIP3    H242885   6.506   2.525   5.454  0.8261 -1.5590 -0.7338
 7132TIP3   OH242886   0.558   6.821  11.672  0.0878  0.1094 -0.2333
 7132TIP3    H142887   0.533   6.858  11.587  0.3839 -0.2236 -0.4670
 7132TIP3    H242888   0.561   6.897  11.731 -1.1692  0.1977 -0.2653
 7133TIP3   OH242889   3.920   4.250   4.171 -0.4311  0.0398 -0.0915
 7133TIP3    H142890   3.825   4.236   4.174 -0.7425  1.8566 -0.4732
 7133TIP3    H242891   3.935   4.326   4.227  0.7519  0.0257 -0.3576
 7134TIP3   OH242892   3.062   0.155  13.394  0.5135 -0.0715 -0.0339
 7134TIP3    H142893   2.988   0.173  13.452 -0.6625 -0.6633 -1.2763
 7134TIP3    H242894   3.124   0.105  13.448 -1.2530 -2.0047  0.3391
 7135TIP3   OH242895   3.573   3.032  14.930  0.2617 -0.1195 -0.2837
 7135TIP3    H142896   3.580   3.114  14.979 -2.5527  0.4556 -0.6690
 7135TIP3    H242897   3.629   3.045  14.854  0.9706  0.8611  0.3875
 7136TIP3   OH242898   2.264   3.727   6.548  0.2011  0.2259  0.2337
 7136TIP3    H142899   2.169   3.733   6.553  0.2690  0.9025  0.8844
 7136TIP3    H242900   2.294   3.759   6.633  1.0768  1.8551 -0.6405
 7137TIP3   OH242901   4.133   0.527   6.054 -0.0153  0.2789  0.2998
 7137TIP3    H142902   4.223   0.509   6.079 -0.3720 -0.0629  1.4438
 7137TIP3    H242903   4.082   0.502   6.131 -1.0061  1.3316  0.0180
 7138TIP3   OH242904   2.683   2.701   3.451  0.6959  0.2742  0.2764
 7138TIP3    H142905   2.664   2.722   3.542  0.2200  1.3495 -0.0475
 7138TIP3    H242906   2.684   2.786   3.407  1.4635 -0.1820 -0.6206
 7139TIP3   OH242907   2.705   6.523  16.487  0.2195  0.1026  0.3182
 7139TIP3    H142908   2.764   6.525  16.411  0.9867 -1.3632  0.8480
 7139TIP3    H242909   2.620   6.499  16.450  0.1447  1.2764 -0.3206
 7140TIP3   OH242910   5.404   3.036   3.412  0.1627  0.6196  0.3451
 7140TIP3    H142911   5.453   3.028   3.493 -1.7438 -1.0827  1.4102
 7140TIP3    H242912   5.389   2.946   3.384  0.1194  1.1589 -1.5107
 7141TIP3   OH242913   6.559   3.513   2.272  0.1122 -0.6150 -0.5179
 7141TIP3    H142914   6.490   3.475   2.327 -0.8952  1.4283 -0.3059
 7141TIP3    H242915   6.516   3.531   2.188  0.3800  0.6110 -0.4110
 7142TIP3   OH242916   0.692   2.727  16.357  0.3059 -0.2779 -0.1490
 7142TIP3    H142917   0.683   2.800  16.296  0.5615 -0.1465 -0.0273
 7142TIP3    H242918   0.635   2.659  16.321  0.1439 -0.0547 -0.3154
 7143TIP3   OH242919   6.654   1.923  15.009  0.7256 -0.1181 -0.0906
 7143TIP3    H142920   6.626   1.835  14.982  0.1673  0.0564 -0.0904
 7143TIP3    H242921   6.676   1.967  14.927  1.5565 -0.4411 -0.0462
 7144TIP3   OH242922   6.403   4.585   3.810  0.1958  0.3079  0.2392
 7144TIP3    H142923   6.466   4.513   3.807 -0.4999 -0.2644 -1.0330
 7144TIP3    H242924   6.372   4.585   3.901  0.0291 -1.1549  0.2117
 7145TIP3   OH242925   1.247   2.538  11.154 -0.0095  0.1640 -0.1900
 7145TIP3    H142926   1.290   2.484  11.220  1.0165  0.4303 -0.6168
 7145TIP3    H242927   1.230   2.621  11.199  0.5132  0.2796 -0.2025
 7146TIP3   OH242928   2.744   5.996  16.773 -0.4715 -0.0948  0.3459
 7146TIP3    H142929   2.774   5.940  16.844 -0.1748  0.8705  0.9920
 7146TIP3    H242930   2.676   6.051  16.811  0.4923  1.2411  0.2214
 7147TIP3   OH242931   3.542   3.437   1.308 -0.0445 -0.3631  0.1035
 7147TIP3    H142932   3.583   3.425   1.394 -0.0675 -2.7358 -0.1564
 7147TIP3    H242933   3.448   3.437   1.325 -0.1100 -2.3962 -0.0151
 7148TIP3   OH242934   2.107   6.346   3.582  0.1779  0.0626 -0.0797
 7148TIP3    H142935   2.195   6.344   3.620 -0.3865 -1.6489  1.2965
 7148TIP3    H242936   2.049   6.364   3.656 -0.6992  0.4744 -0.8451
 7149TIP3   OH242937   3.886   1.272  15.779 -0.1652 -1.0071  0.0671
 7149TIP3    H142938   3.957   1.317  15.826  0.0439 -2.3402  1.0865
 7149TIP3    H242939   3.806   1.301  15.823 -0.0954 -1.0077  0.1969
 7150TIP3   OH242940   1.564   6.206  15.990 -0.5520  0.2242  0.5661
 7150TIP3    H142941   1.639   6.167  15.944 -1.6927  1.1191 -2.2647
 7150TIP3    H242942   1.578   6.301  15.983 -2.0376  0.4077 -0.2130
 7151TIP3   OH242943   4.884   1.659   0.919 -0.4265  0.6909 -0.1547
 7151TIP3    H142944   4.821   1.663   0.992 -0.0503 -1.9035  0.4226
 7151TIP3    H242945   4.863   1.577   0.875  0.7425  1.1959 -1.7040
 7152TIP3   OH242946   1.715   4.608   0.088 -0.3143  0.2501 -0.1804
 7152TIP3    H142947   1.666   4.637   0.011 -1.3422  0.2069  0.4274
 7152TIP3    H242948   1.807   4.622   0.066 -0.6487  1.3189 -0.9692
 7153TIP3   OH242949   6.826   5.030   5.717 -0.7666  0.4313 -0.2778
 7153TIP3    H142950   6.822   5.125   5.732 -0.3623  0.2798  0.9245
 7153TIP3    H242951   6.738   4.999   5.736 -0.0494  0.1117  3.1122
 7154TIP3   OH242952   0.498   3.723   3.529 -0.1975 -0.4370  0.0625
 7154TIP3    H142953   0.582   3.749   3.491  0.6947 -4.2759 -0.9698
 7154TIP3    H242954   0.440   3.711   3.454 -1.3044  0.8558  0.6745
 7155TIP3   OH242955   1.539   2.463  10.435  0.8586 -0.3946  0.0114
 7155TIP3    H142956   1.449   2.488  10.416  0.4064 -0.8744  1.3707
 7155TIP3    H242957   1.546   2.373  10.402  1.3419  0.1681 -1.4995
 7156TIP3   OH242958   5.677   3.579  10.562  0.7480  0.3889 -0.0676
 7156TIP3    H142959   5.647   3.493  10.533 -2.8682  0.9474  1.4697
 7156TIP3    H242960   5.713   3.563  10.649  0.3242  0.3609  0.1069
 7157TIP3   OH242961   1.945   6.273   5.891 -0.0158  0.1903 -0.0012
 7157TIP3    H142962   1.977   6.353   5.848 -0.7771  1.4876  1.7235
 7157TIP3    H242963   1.873   6.243   5.836 -0.0257  0.9582 -0.4217
 7158TIP3   OH242964   5.588   4.314  11.700 -0.2709 -0.3431  0.4219
 7158TIP3    H142965   5.628   4.398  11.726 -1.8689  1.0931 -1.4403
 7158TIP3    H242966   5.545   4.283  11.780  0.3545  0.6113  1.1642
 7159TIP3   OH242967   3.637   2.226  13.178 -0.2963 -0.6636  0.4323
 7159TIP3    H142968   3.557   2.235  13.230 -0.3761  0.9742  0.0900
 7159TIP3    H242969   3.684   2.309  13.191  0.2951 -0.7154 -1.0938
 7160TIP3   OH242970   6.200   3.474  15.084 -0.1477 -0.6831 -0.8771
 7160TIP3    H142971   6.140   3.547  15.089  0.1169 -0.5230  0.3808
 7160TIP3    H242972   6.286   3.512  15.101 -0.0047 -1.2767 -0.2295
 7161TIP3   OH242973   4.871   3.304  16.164 -0.1374 -0.7586 -0.0185
 7161TIP3    H142974   4.898   3.338  16.079  0.3208 -0.1776  0.3542
 7161TIP3    H242975   4.949   3.261  16.199  0.4176  1.1285  1.1667
 7162TIP3   OH242976   3.546   4.115   5.639  1.0211 -0.6220 -0.0621
 7162TIP3    H142977   3.467   4.065   5.660  0.8944 -1.1567 -1.6817
 7162TIP3    H242978   3.592   4.061   5.574  0.8577  1.3534 -1.9269
 7163TIP3   OH242979   3.738   2.091  13.599 -0.0902  0.2561  1.0527
 7163TIP3    H142980   3.807   2.156  13.599 -0.4336  0.6337  0.6142
 7163TIP3    H242981   3.688   2.108  13.678  0.5594 -0.2885  1.5881
 7164TIP3   OH242982   6.403   3.008  16.332  0.0623 -0.0115  0.4390
 7164TIP3    H142983   6.483   3.038  16.290  0.3804  1.3898  1.9426
 7164TIP3    H242984   6.376   2.931  16.281  0.8859  1.0475 -1.7142
 7165TIP3   OH242985   0.433   6.230   3.628 -0.5468 -0.0461 -0.3328
 7165TIP3    H142986   0.435   6.221   3.533 -1.3289 -1.2766 -0.2521
 7165TIP3    H242987   0.347   6.197   3.654  0.0563 -0.7183  0.9027
 7166TIP3   OH242988   0.008   6.135  16.282 -0.1476  0.3574  0.2914
 7166TIP3    H142989  -0.021   6.119  16.192  0.1683  0.0070  0.2498
 7166TIP3    H242990  -0.026   6.061  16.332 -0.7963  0.8342  0.5718
 7167TIP3   OH242991   0.937   3.000   1.477 -0.2877 -0.4904  0.3120
 7167TIP3    H142992   0.886   2.919   1.479  1.7547 -1.8550  0.0638
 7167TIP3    H242993   0.993   2.995   1.555 -1.1136  1.3996  1.0833
 7168TIP3   OH242994   6.527   1.742   4.625  0.6099  0.0912 -0.0240
 7168TIP3    H142995   6.583   1.790   4.564  3.4108 -0.5579  1.8401
 7168TIP3    H242996   6.500   1.807   4.690 -0.0275  0.1921 -0.3784
 7169TIP3   OH242997   5.024   3.057  11.807 -0.4361 -0.2653 -0.2726
 7169TIP3    H142998   5.031   3.055  11.712 -0.3452  2.3649 -0.3844
 7169TIP3    H242999   5.034   3.149  11.830 -0.3648 -0.8448  2.3070
 7170TIP3   OH243000   1.359   5.619  12.793 -0.0383 -0.4445  0.0272
 7170TIP3    H143001   1.345   5.685  12.861  2.0933 -0.1321  0.2179
 7170TIP3    H243002   1.270   5.597  12.763 -0.9025  1.0677  1.2995
 7171TIP3   OH243003   5.990   3.228   4.927  0.3432 -0.2908  0.3496
 7171TIP3    H143004   6.060   3.234   4.862  0.3126  2.1145  0.4553
 7171TIP3    H243005   5.921   3.179   4.883  1.0135 -0.2690 -0.7661
 7172TIP3   OH243006   1.216   6.759  11.954  0.2033  0.0605  0.0760
 7172TIP3    H143007   1.257   6.686  12.002 -2.4989 -0.8747  1.1506
 7172TIP3    H243008   1.140   6.783  12.007 -1.7675  0.3960 -2.6485
 7173TIP3   OH243009   3.796   0.716   3.423  0.4181 -0.3901  0.0597
 7173TIP3    H143010   3.748   0.787   3.465  1.6316 -0.1520  1.0947
 7173TIP3    H243011   3.798   0.740   3.330 -0.6692  0.0233  0.1267
 7174TIP3   OH243012   1.801   4.360  11.141  0.7582 -0.3300 -0.5344
 7174TIP3    H143013   1.872   4.424  11.129 -0.0117  0.5639 -0.4457
 7174TIP3    H243014   1.829   4.308  11.216  0.6119  1.0457  0.5186
 7175TIP3   OH243015   5.167   1.366   6.473  0.1659  0.1923 -0.5280
 7175TIP3    H143016   5.081   1.375   6.432 -0.9640  0.3004  1.7024
 7175TIP3    H243017   5.167   1.430   6.544  2.5428  0.9602 -1.1072
 7176TIP3   OH243018   4.640   5.250   1.510  0.3276  0.0919 -0.1740
 7176TIP3    H143019   4.629   5.236   1.604  1.0842  2.7039  0.3961
 7176TIP3    H243020   4.727   5.214   1.491 -0.3684 -1.6632 -0.2131
 7177TIP3   OH243021   0.745   3.846   1.614  0.7962 -0.3473  0.2168
 7177TIP3    H143022   0.736   3.878   1.524  1.5603 -0.9062 -0.0688
 7177TIP3    H243023   0.657   3.817   1.638  0.4722  0.3155 -0.1467
 7178TIP3   OH243024   5.244   1.943  15.513  0.2985  0.5019 -0.3746
 7178TIP3    H143025   5.237   1.972  15.604 -0.1630  0.7926 -0.5024
 7178TIP3    H243026   5.284   1.856  15.519 -0.7792  0.0327  0.1771
 7179TIP3   OH243027   1.894   3.703  16.809 -0.6987  0.2772  0.6573
 7179TIP3    H143028   1.807   3.742  16.805 -1.3107 -0.9778  1.3596
 7179TIP3    H243029   1.879   3.610  16.824  0.7627 -0.0139  0.5147
 7180TIP3   OH243030   4.917   1.212   2.422  0.0602  0.0766  0.2237
 7180TIP3    H143031   4.942   1.301   2.450 -1.2275  0.6256 -0.2787
 7180TIP3    H243032   4.874   1.175   2.499  1.3948 -0.4594  0.7278
 7181TIP3   OH243033   4.067   3.328  12.090 -0.6318  0.2575 -0.1179
 7181TIP3    H143034   4.122   3.259  12.128 -0.6717 -0.1782 -0.8299
 7181TIP3    H243035   4.130   3.390  12.053 -0.5993  0.2896 -0.0071
 7182TIP3   OH243036   5.060   0.780  12.795  0.7940  0.1007  0.2398
 7182TIP3    H143037   5.045   0.864  12.839  1.5285  0.3960 -0.0604
 7182TIP3    H243038   5.066   0.801  12.702 -0.8662 -0.5419 -0.0594
 7183TIP3   OH243039   0.376   6.640  15.437 -0.4991 -0.5455  0.4181
 7183TIP3    H143040   0.321   6.648  15.359  0.5474  0.3456 -0.2736
 7183TIP3    H243041   0.420   6.725  15.444 -0.1696 -0.7990  1.6773
 7184TIP3   OH243042   2.698   4.908   4.487  0.4298 -0.4099  0.0052
 7184TIP3    H143043   2.661   4.995   4.499 -1.6078 -1.1005 -0.8910
 7184TIP3    H243044   2.682   4.887   4.395  1.7226 -1.3809 -0.0214
 7185TIP3   OH243045   3.285   1.646   1.193  0.0901  0.2092  0.2683
 7185TIP3    H143046   3.264   1.553   1.206 -0.9597  0.2427 -1.0337
 7185TIP3    H243047   3.307   1.652   1.100 -0.4692  1.3760  0.2014
 7186TIP3   OH243048   3.716   5.589   4.005  0.3358 -0.4100 -1.2192
 7186TIP3    H143049   3.733   5.652   4.074 -1.8092 -1.3585  0.2919
 7186TIP3    H243050   3.735   5.636   3.924  0.9546  1.4011 -0.0828
 7187TIP3   OH243051   5.290   4.368   6.153  0.1033 -0.0243 -0.2431
 7187TIP3    H143052   5.231   4.296   6.174 -0.9882  0.9781  0.2692
 7187TIP3    H243053   5.242   4.422   6.091 -0.5052  2.0148  1.8756
 7188TIP3   OH243054   2.954   5.384  12.820  0.0645 -0.2792 -0.0295
 7188TIP3    H143055   2.953   5.316  12.888 -1.3784  1.5581  1.9407
 7188TIP3    H243056   3.036   5.431  12.834 -1.1158  1.3988  2.0088
 7189TIP3   OH243057   0.704   5.522  14.042  0.1847  0.2212 -0.1123
 7189TIP3    H143058   0.728   5.600  14.091  0.9199  0.3868 -0.7166
 7189TIP3    H243059   0.608   5.521  14.043  0.1603 -0.1876  1.9483
 7190TIP3   OH243060   3.960   4.076  11.331  0.0530 -0.1344 -0.4910
 7190TIP3    H143061   4.001   4.156  11.298 -0.4403  0.3692  0.0863
 7190TIP3    H243062   3.953   4.019  11.255  0.7222  0.2429 -0.8368
 7191TIP3   OH243063   3.556   0.643  16.399 -0.1782  0.4879  0.4428
 7191TIP3    H143064   3.573   0.732  16.430  1.6045  0.4635 -0.3191
 7191TIP3    H243065   3.638   0.596  16.416 -0.9976 -0.9478  0.5891
 7192TIP3   OH243066   1.781   4.198   5.848  0.5415 -0.8302 -0.2177
 7192TIP3    H143067   1.771   4.191   5.753 -2.3302  0.6845 -0.1413
 7192TIP3    H243068   1.744   4.117   5.882 -2.1757  0.2682 -0.3458
 7193TIP3   OH243069   1.688   6.309   5.105  0.2286  0.2696 -0.3197
 7193TIP3    H143070   1.695   6.236   5.167 -1.1608 -1.0193 -1.5664
 7193TIP3    H243071   1.594   6.312   5.083  0.0672  3.1041  0.4155
 7194TIP3   OH243072   2.856   3.287   1.993 -0.3436  0.0174 -0.3143
 7194TIP3    H143073   2.903   3.212   2.029 -1.2780  0.1489  1.2635
 7194TIP3    H243074   2.804   3.251   1.921  0.5935 -0.4853 -0.7579
 7195TIP3   OH243075   6.119   5.426   0.355 -0.6655  0.1362  0.1695
 7195TIP3    H143076   6.203   5.445   0.395 -0.3186  0.9398 -0.9126
 7195TIP3    H243077   6.136   5.352   0.296 -0.8947 -0.2136  0.5369
 7196TIP3   OH243078   0.286   0.495  12.446  0.1617 -0.0691  0.1473
 7196TIP3    H143079   0.194   0.498  12.421  0.4785  0.5391 -1.0190
 7196TIP3    H243080   0.322   0.579  12.417  1.3652 -0.8155 -0.6267
 7197TIP3   OH243081   4.986   3.283   2.661  0.0537  0.7061  0.3127
 7197TIP3    H143082   4.994   3.304   2.568 -0.6851 -0.6547 -0.0818
 7197TIP3    H243083   4.916   3.218   2.665  1.4802 -0.8257  1.5911
 7198TIP3   OH243084   4.322   1.402  15.862  0.4892 -0.8619  0.0891
 7198TIP3    H143085   4.393   1.447  15.908  0.2510 -0.4497  0.0616
 7198TIP3    H243086   4.354   1.389  15.773  0.1628  0.1970 -0.1917
 7199TIP3   OH243087   0.455   5.737   5.331 -0.1183  0.0671  0.1148
 7199TIP3    H143088   0.432   5.680   5.258  3.3382  0.1464 -1.2628
 7199TIP3    H243089   0.475   5.821   5.290 -0.4139  0.8457  1.4936
 7200TIP3   OH243090   5.947   4.748   0.159  0.2749 -0.2886 -0.2120
 7200TIP3    H143091   5.893   4.763   0.236  0.8270  0.5837  0.0284
 7200TIP3    H243092   5.977   4.658   0.167  0.2588 -0.2342  0.5560
 7201TIP3   OH243093   4.455   0.810   1.918  0.1116  0.0987 -0.0389
 7201TIP3    H143094   4.432   0.876   1.983 -1.5456 -1.1133  0.6707
 7201TIP3    H243095   4.548   0.823   1.902  0.1393  1.6245  1.1887
 7202TIP3   OH243096   4.715   2.969  15.537  0.6848  0.4991 -0.7082
 7202TIP3    H143097   4.670   2.939  15.458  3.5438 -2.0584 -1.5325
 7202TIP3    H243098   4.680   2.914  15.607 -1.0818  2.0606 -0.2658
 7203TIP3   OH243099   0.202   2.059  14.400  0.3100  0.4348 -0.2761
 7203TIP3    H143100   0.198   2.066  14.304  1.3023 -0.8699 -0.4406
 7203TIP3    H243101   0.141   1.987  14.421 -0.0580  0.8508  0.1019
 7204TIP3   OH243102   2.816   2.387   0.371  0.0280  0.2917 -0.2148
 7204TIP3    H143103   2.853   2.306   0.406  1.9787  1.9150  1.7478
 7204TIP3    H243104   2.821   2.376   0.276  1.2504 -1.4645  0.0035
 7205TIP3   OH243105   1.624   4.187  15.969 -0.6086  0.6045 -0.3443
 7205TIP3    H143106   1.655   4.141  16.047 -2.7959 -1.3033 -0.4898
 7205TIP3    H243107   1.654   4.277  15.981  2.9025 -0.5123  0.5217
 7206TIP3   OH243108   2.691   3.457   2.986  0.2964  0.1057 -0.1150
 7206TIP3    H143109   2.754   3.390   2.962  0.1708  0.4228 -1.4249
 7206TIP3    H243110   2.723   3.537   2.944 -0.9209  0.2952 -0.7427
 7207TIP3   OH243111   5.672   4.483   4.722 -0.1486  0.0287  0.3461
 7207TIP3    H143112   5.640   4.507   4.809 -0.0802 -0.9718  0.6496
 7207TIP3    H243113   5.629   4.545   4.663  0.3421  1.1765  1.1542
 7208TIP3   OH243114   0.116   1.768  12.268 -0.3352  0.1190 -0.9062
 7208TIP3    H143115   0.172   1.844  12.255  1.6675 -1.2728 -0.8855
 7208TIP3    H243116   0.068   1.788  12.349  1.2635  0.7536 -0.0549
 7209TIP3   OH243117   5.339   1.570   4.603  0.1852 -0.1861  0.2606
 7209TIP3    H143118   5.354   1.571   4.509 -0.1128  0.6869  0.2141
 7209TIP3    H243119   5.389   1.645   4.636 -0.5852  0.1739  0.6454
 7210TIP3   OH243120   1.015   2.953   4.152 -0.4241  0.1086  0.0266
 7210TIP3    H143121   1.024   2.880   4.090 -0.8549 -0.4397  0.6014
 7210TIP3    H243122   0.933   2.936   4.198 -0.5011  0.9305  0.2178
 7211TIP3   OH243123   2.917   0.342  14.723 -0.1721  0.4026 -0.1930
 7211TIP3    H143124   2.971   0.397  14.667  0.5739  1.2490  1.2896
 7211TIP3    H243125   2.961   0.257  14.724 -1.0598 -0.1194 -2.1071
 7212TIP3   OH243126   5.887   3.760  14.395  0.1977  0.3801 -0.0808
 7212TIP3    H143127   5.799   3.787  14.370  0.1757 -0.4953 -0.9809
 7212TIP3    H243128   5.944   3.824  14.354  0.0209  0.5611 -0.0481
 7213TIP3   OH243129   5.522   4.349  12.333 -0.2274  0.1930  0.1765
 7213TIP3    H143130   5.608   4.336  12.372 -0.0354  0.9938  0.0351
 7213TIP3    H243131   5.491   4.260  12.314  1.4722 -0.0774 -1.7115
 7214TIP3   OH243132   6.227   5.265   4.280 -0.2396 -0.2195  0.2989
 7214TIP3    H143133   6.308   5.216   4.265  0.3247  0.7573  0.0681
 7214TIP3    H243134   6.158   5.200   4.274  0.5175 -1.0396  0.3126
 7215TIP3   OH243135   5.910   2.294   1.321 -0.2589 -0.1271 -0.6352
 7215TIP3    H143136   5.917   2.224   1.257  2.1106 -0.8516  0.3102
 7215TIP3    H243137   5.997   2.334   1.323  0.1941 -0.9652  2.9653
 7216TIP3   OH243138   1.332   5.269   4.831 -0.3322  0.2123  0.3837
 7216TIP3    H143139   1.390   5.194   4.822  0.0909  0.3133  2.0379
 7216TIP3    H243140   1.347   5.321   4.752  0.5210 -0.6468 -0.0345
 7217TIP3   OH243141   6.443   6.466  12.907 -0.1548 -0.4627  0.2428
 7217TIP3    H143142   6.370   6.458  12.847  1.2580 -2.6528 -1.3191
 7217TIP3    H243143   6.510   6.513  12.857 -0.1569  0.8162  1.3756
 7218TIP3   OH243144   5.219   0.681  15.484 -0.4232 -0.7105 -1.0046
 7218TIP3    H143145   5.293   0.734  15.514 -0.2491 -0.2669 -2.1678
 7218TIP3    H243146   5.221   0.603  15.540 -0.6412  0.4387  0.6984
 7219TIP3   OH243147   4.866   2.182  15.931  0.0620  0.1055  0.0728
 7219TIP3    H143148   4.941   2.218  15.883 -0.0655 -1.1720 -1.1370
 7219TIP3    H243149   4.903   2.152  16.015  0.1726  2.9085  1.1300
 7220TIP3   OH243150   5.366   4.952  13.118 -0.2522 -0.3857  0.0399
 7220TIP3    H143151   5.288   4.958  13.174 -0.8875  0.7419 -0.9302
 7220TIP3    H243152   5.439   4.962  13.179 -0.8155 -1.8000  1.0221
 7221TIP3   OH243153   5.053   3.155   4.335 -0.0117 -0.1713  0.3048
 7221TIP3    H143154   5.043   3.240   4.377  0.2329 -0.4098  0.8480
 7221TIP3    H243155   5.106   3.104   4.396 -0.7686 -0.9507  0.3198
 7222TIP3   OH243156   1.506   0.849  11.873 -0.0499 -0.5900  0.0355
 7222TIP3    H143157   1.491   0.907  11.948  0.3860  1.7138 -1.5554
 7222TIP3    H243158   1.600   0.831  11.874  0.4488  1.6335 -1.3819
 7223TIP3   OH243159   3.617   5.296   2.539  0.3029 -0.0237 -0.1245
 7223TIP3    H143160   3.530   5.292   2.578  0.1433  2.5693 -0.0308
 7223TIP3    H243161   3.610   5.245   2.458 -1.3877  0.3427 -0.2440
 7224TIP3   OH243162   3.580   6.348  10.864  0.1318 -0.0990  0.3197
 7224TIP3    H143163   3.647   6.333  10.797 -0.3262 -0.0869 -0.1380
 7224TIP3    H243164   3.513   6.400  10.821  1.2444  2.6141  1.6355
 7225TIP3   OH243165   3.731   5.919   2.086 -0.8706 -0.3210 -0.0210
 7225TIP3    H143166   3.761   5.964   2.007  0.8916  1.8188  1.7142
 7225TIP3    H243167   3.679   5.985   2.132 -1.8411 -1.5186  0.6290
 7226TIP3   OH243168   3.439   0.850   1.078 -0.0215  0.2547  0.1928
 7226TIP3    H143169   3.468   0.915   1.014  0.1565  1.1344  1.1500
 7226TIP3    H243170   3.391   0.900   1.144 -1.0305 -0.7657  0.2647
 7227TIP3   OH243171   3.581   0.053  11.446  0.7390 -0.4879 -0.2775
 7227TIP3    H143172   3.645   0.110  11.404  0.2537 -0.8033 -1.4835
 7227TIP3    H243173   3.538   0.007  11.374  0.7559 -2.0073  0.6269
 7228TIP3   OH243174   0.675   0.854  12.111  0.3420  0.4299 -0.7857
 7228TIP3    H143175   0.684   0.820  12.022 -0.0910  0.0957 -0.7042
 7228TIP3    H243176   0.632   0.784  12.160 -0.1928  0.9337 -0.5181
 7229TIP3   OH243177   4.586   5.640  15.793 -0.0418 -0.1871 -0.4272
 7229TIP3    H143178   4.655   5.698  15.762 -0.3821 -0.9202 -2.7649
 7229TIP3    H243179   4.566   5.585  15.718 -2.3719 -0.7767  0.5428
 7230TIP3   OH243180   0.111   0.611   1.490  0.2396  0.9275 -0.7693
 7230TIP3    H143181   0.145   0.587   1.404  1.6053  0.4936 -0.1340
 7230TIP3    H243182   0.155   0.552   1.551  0.0250  1.8592  0.3336
 7231TIP3   OH243183   3.948   1.819  15.849  0.0792  0.0603  0.4335
 7231TIP3    H143184   4.009   1.853  15.783 -0.1547 -1.2699 -0.5034
 7231TIP3    H243185   4.004   1.782  15.917  0.3414 -0.9530 -0.3122
 7232TIP3   OH243186   3.621   0.524   5.003 -0.0939 -0.4110  0.6676
 7232TIP3    H143187   3.622   0.569   4.918  1.5583 -1.1206  0.2753
 7232TIP3    H243188   3.538   0.551   5.043 -0.2980  1.0017 -0.5981
 7233TIP3   OH243189   3.776   2.406   5.293  0.6742  0.0004  0.1624
 7233TIP3    H143190   3.766   2.423   5.387  0.2355  0.4471  0.0384
 7233TIP3    H243191   3.767   2.311   5.285 -3.8766  0.2049  0.0981
 7234TIP3   OH243192   0.247   0.458   1.712  0.2357  0.0819  0.1367
 7234TIP3    H143193   0.225   0.394   1.644 -0.0786  0.1964  0.1268
 7234TIP3    H243194   0.312   0.414   1.766  0.6902  0.0875 -0.3971
 7235TIP3   OH243195   0.377   3.301  12.425 -0.4392  0.0242  0.1438
 7235TIP3    H143196   0.433   3.360  12.475 -1.3452  0.7200  0.3503
 7235TIP3    H243197   0.390   3.328  12.334 -1.0338  0.7024  0.2584
 7236TIP3   OH243198   2.733   6.686   2.523  0.1069  0.2835 -0.4293
 7236TIP3    H143199   2.736   6.600   2.482  2.0915 -0.1475  0.4951
 7236TIP3    H243200   2.783   6.742   2.463 -0.4291  0.6045 -0.5856
 7237TIP3   OH243201   2.674   1.607   2.626  0.4601  0.2690 -0.5915
 7237TIP3    H143202   2.686   1.548   2.700  0.0809 -0.9248 -1.4600
 7237TIP3    H243203   2.580   1.618   2.619  0.3454 -1.1826 -2.0419
 7238TIP3   OH243204   5.581   4.458  16.601  0.2024 -0.2685  0.1188
 7238TIP3    H143205   5.498   4.469  16.555  1.2822  2.3704 -1.4595
 7238TIP3    H243206   5.583   4.528  16.666  1.9890  1.1402 -1.3262
 7239TIP3   OH243207   6.715   6.256  13.026  0.1140  0.2099 -0.4288
 7239TIP3    H143208   6.685   6.330  13.079 -0.2459 -0.9074  0.9879
 7239TIP3    H243209   6.809   6.270  13.016 -0.1810  1.6315 -1.4707
 7240TIP3   OH243210   6.346   3.616  17.219  0.2357  0.1632  0.1554
 7240TIP3    H143211   6.380   3.559  17.288  0.0086  1.7128  1.6078
 7240TIP3    H243212   6.322   3.556  17.149  0.1049 -1.5287  1.5669
 7241TIP3   OH243213   4.924   3.189  12.291  0.3732 -0.3656  0.1818
 7241TIP3    H143214   4.905   3.248  12.218  0.0907 -1.2875 -0.5082
 7241TIP3    H243215   5.020   3.192  12.299  0.3001  1.0935  0.9559
 7242TIP3   OH243216   3.953   3.458   3.419 -0.3925 -0.3352  0.0713
 7242TIP3    H143217   3.930   3.377   3.463  2.5628  0.6739  4.1020
 7242TIP3    H243218   4.030   3.437   3.367  0.7036 -0.0944  1.5488
 7243TIP3   OH243219   1.347   4.866   0.068  0.4759  0.3161 -0.4012
 7243TIP3    H143220   1.318   4.919  -0.007 -1.5413  0.9148  0.7338
 7243TIP3    H243221   1.275   4.806   0.085  0.2275  1.1572  1.9094
 7244TIP3   OH243222   1.398   0.842  13.343  0.1073 -0.4090  0.3928
 7244TIP3    H143223   1.379   0.925  13.300 -0.6291 -1.2588 -1.0004
 7244TIP3    H243224   1.494   0.834  13.339  0.1099 -0.0613 -0.3311
 7245TIP3   OH243225   5.328   3.515   0.470  0.5004 -0.2630  0.1823
 7245TIP3    H143226   5.336   3.486   0.560 -2.0553  0.2568  0.6561
 7245TIP3    H243227   5.372   3.601   0.468 -0.7197  0.4133  1.3388
 7246TIP3   OH243228   6.110   3.743   4.251 -0.2006 -0.0771  0.1375
 7246TIP3    H143229   6.193   3.722   4.207 -0.7443  0.2168 -1.0720
 7246TIP3    H243230   6.100   3.674   4.317  1.7555  0.7560  1.3937
 7247TIP3   OH243231   0.843   1.182   4.014  0.8654  0.3571 -0.4910
 7247TIP3    H143232   0.775   1.197   4.080  0.4146  0.9496 -1.0788
 7247TIP3    H243233   0.802   1.205   3.931  1.2636 -0.8870 -1.0560
 7248TIP3   OH243234   3.817   6.386  13.992 -0.2287 -0.5467  0.2897
 7248TIP3    H143235   3.786   6.386  14.083 -1.5933  2.1789 -0.0701
 7248TIP3    H243236   3.756   6.330  13.945  0.7736 -2.3785  1.0667
 7249TIP3   OH243237   2.810   4.547   0.060  0.2324 -0.0376 -0.2561
 7249TIP3    H143238   2.801   4.488   0.135  0.3322 -0.3401 -0.4801
 7249TIP3    H243239   2.732   4.529   0.006  0.4452 -0.2226 -0.5034
 7250TIP3   OH243240   2.394   5.699  14.157 -0.7158  0.0661  0.0940
 7250TIP3    H143241   2.408   5.790  14.130 -1.3784 -0.1426 -1.0365
 7250TIP3    H243242   2.340   5.662  14.087  0.4842 -1.5268 -0.0420
 7251TIP3   OH243243   0.503   3.159   2.878 -0.0865 -0.3803  0.1041
 7251TIP3    H143244   0.580   3.151   2.934 -0.1307  1.8494  0.5771
 7251TIP3    H243245   0.459   3.074   2.885  1.6284 -1.2520  0.8511
 7252TIP3   OH243246   3.638   3.631   3.347 -1.0399 -0.0595  0.1217
 7252TIP3    H143247   3.640   3.536   3.363  0.1589  0.3620  3.0528
 7252TIP3    H243248   3.716   3.664   3.391 -1.0620  2.2609 -1.4395
 7253TIP3   OH243249   3.811   3.484   5.713 -0.3356  0.0406 -0.4316
 7253TIP3    H143250   3.769   3.398   5.721  1.2404 -0.6363  1.2468
 7253TIP3    H243251   3.740   3.547   5.722 -1.1944 -1.0820  0.9527
 7254TIP3   OH243252   4.424   3.546   3.118  0.0537 -0.2422 -0.1966
 7254TIP3    H143253   4.443   3.629   3.074 -1.1807 -0.4353 -1.1342
 7254TIP3    H243254   4.441   3.479   3.052 -2.8556 -0.4716 -0.8243
 7255TIP3   OH243255   1.916   4.674  14.158  0.4953  0.2981  0.2107
 7255TIP3    H143256   2.009   4.670  14.176  0.6677 -0.0341 -0.7087
 7255TIP3    H243257   1.910   4.697  14.065 -0.2078 -4.2616 -1.1321
 7256TIP3   OH243258   3.856   4.602  14.086  0.2803  0.1922  0.2013
 7256TIP3    H143259   3.839   4.604  13.991 -2.5972 -1.3407  0.5681
 7256TIP3    H243260   3.815   4.682  14.119 -1.2083 -0.6354  0.4244
 7257TIP3   OH243261   5.334   1.836   6.525  0.1789  0.3143  0.1061
 7257TIP3    H143262   5.349   1.773   6.595  0.3559  0.6999  0.4204
 7257TIP3    H243263   5.242   1.861   6.535 -0.1008 -0.4449 -0.4834
 7258TIP3   OH243264   2.986   3.630   5.054 -0.2679  0.5663  0.4073
 7258TIP3    H143265   2.901   3.674   5.054 -0.0694  1.0974 -2.1569
 7258TIP3    H243266   3.047   3.697   5.085 -0.0361  2.1972 -3.0384
 7259TIP3   OH243267   3.983   1.740   5.625  0.4134 -0.1331  0.1947
 7259TIP3    H143268   4.078   1.728   5.618  0.4129  0.5013 -1.1731
 7259TIP3    H243269   3.947   1.683   5.557  0.0831  2.6617 -2.1690
 7260TIP3   OH243270   3.646   3.897   3.176 -0.1274 -0.2421  0.6231
 7260TIP3    H143271   3.622   3.984   3.207 -0.7455 -0.0708 -0.3061
 7260TIP3    H243272   3.582   3.838   3.215  0.8044 -0.4231  1.9594
 7261TIP3   OH243273   3.220   2.779  14.826 -0.6784  0.0528 -0.2180
 7261TIP3    H143274   3.221   2.802  14.919 -3.2168 -2.0946  0.4747
 7261TIP3    H243275   3.155   2.837  14.787 -0.3946  0.2321 -0.4266
 7262TIP3   OH243276   4.863   5.550  14.937  0.0234  0.1770 -0.2463
 7262TIP3    H143277   4.797   5.620  14.938  0.2327  0.4715  2.8413
 7262TIP3    H243278   4.848   5.501  15.018  1.3856 -1.9518 -1.1891
 7263TIP3   OH243279   4.938   5.517  15.461 -0.4076 -0.2911  0.3459
 7263TIP3    H143280   4.885   5.597  15.463 -0.8989 -0.6229  1.4539
 7263TIP3    H243281   5.000   5.527  15.533  3.0737  1.3651 -2.5628
 7264TIP3   OH243282   6.052   4.522   3.463  0.5189  0.6649 -0.0869
 7264TIP3    H143283   6.101   4.479   3.533  0.9861 -1.0309 -1.3851
 7264TIP3    H243284   6.082   4.613   3.466  0.2701  0.7389  2.0842
 7265TIP3   OH243285   1.085   2.813  11.649  0.0316  0.4354  0.1316
 7265TIP3    H143286   1.135   2.838  11.571 -0.2527 -0.2252 -0.2726
 7265TIP3    H243287   1.011   2.763  11.615  0.0018 -0.0113  0.8377
 7266TIP3   OH243288   4.177   0.707   2.666  0.0598 -0.0689 -0.6933
 7266TIP3    H143289   4.181   0.639   2.600  1.0207  0.3323 -1.0694
 7266TIP3    H243290   4.226   0.672   2.741  2.2860  0.9146 -1.5937
 7267TIP3   OH243291   1.576   3.961  15.131  0.0941 -0.0809 -0.2604
 7267TIP3    H143292   1.522   3.996  15.202  0.4112 -0.0950 -0.0096
 7267TIP3    H243293   1.590   3.869  15.156 -2.1312 -0.9070 -1.7392
 7268TIP3   OH243294   0.311   3.725  15.985 -0.1105 -0.3081 -0.2078
 7268TIP3    H143295   0.250   3.766  15.925  0.4057 -0.0983 -0.6012
 7268TIP3    H243296   0.281   3.749  16.072 -1.2080 -1.0936 -0.3512
 7269TIP3   OH243297   0.729   5.612   4.778  0.1410 -0.6100  0.7445
 7269TIP3    H143298   0.674   5.620   4.856 -0.3870  0.1510  0.3080
 7269TIP3    H243299   0.728   5.518   4.758  1.6161 -1.0973  2.5712
 7270TIP3   OH243300   1.210   3.425   3.643 -0.4415  0.5427  0.2956
 7270TIP3    H143301   1.129   3.386   3.675 -0.1671 -2.7986 -2.5580
 7270TIP3    H243302   1.279   3.373   3.683  0.0698  0.2344 -0.9461
 7271TIP3   OH243303   4.732   6.168   5.749  0.1766 -0.3002 -0.5336
 7271TIP3    H143304   4.691   6.248   5.716  1.1548  0.5848  0.3500
 7271TIP3    H243305   4.659   6.111   5.773 -0.5265  0.2251 -1.3776
 7272TIP3   OH243306   1.403   0.890   1.684 -0.5001  0.1116 -0.2978
 7272TIP3    H143307   1.382   0.956   1.750 -0.3545  1.2418 -1.3364
 7272TIP3    H243308   1.498   0.884   1.685 -0.4735  0.4367 -0.6829
 7273TIP3   OH243309   6.600   0.960   3.828  0.0057 -0.3998  0.7518
 7273TIP3    H143310   6.527   0.978   3.769 -2.1826  1.3316  3.7000
 7273TIP3    H243311   6.648   1.042   3.833  3.8437 -2.0992 -2.9219
 7274TIP3   OH243312   0.453   5.222  14.276 -0.1324  0.2656 -0.6872
 7274TIP3    H143313   0.423   5.307  14.244 -0.7788  0.6155  0.7840
 7274TIP3    H243314   0.448   5.229  14.371  1.7537 -0.7356 -0.4815
 7275TIP3   OH243315   1.243   5.479  15.059 -0.0025  0.0663  0.4514
 7275TIP3    H143316   1.175   5.443  15.116 -0.1752 -0.0205  0.1936
 7275TIP3    H243317   1.197   5.541  15.003  0.1319  0.0193  0.2857
 7276TIP3   OH243318   0.654   5.437   0.786 -0.0738 -0.1385 -0.2019
 7276TIP3    H143319   0.722   5.402   0.844 -0.4376 -0.5457 -0.0142
 7276TIP3    H243320   0.582   5.375   0.794 -0.5550  0.4105 -0.2241
 7277TIP3   OH243321   6.083   6.642  16.216 -0.4181 -0.9164  0.3146
 7277TIP3    H143322   6.142   6.714  16.196 -0.6361 -0.5628  0.9100
 7277TIP3    H243323   6.124   6.596  16.289  0.0447 -1.8000 -0.4742
 7278TIP3   OH243324   1.905   0.542   2.605  0.1090 -0.7633  0.0177
 7278TIP3    H143325   1.935   0.524   2.695  0.2317 -3.0520 -0.4209
 7278TIP3    H243326   1.844   0.471   2.585  0.9103 -0.9320 -2.0777
 7279TIP3   OH243327   4.165   1.935  15.409  0.7973  0.2897 -0.7678
 7279TIP3    H143328   4.162   1.976  15.495  1.5163  0.3777 -0.7845
 7279TIP3    H243329   4.091   1.874  15.409  0.3148  0.8629 -0.3828
 7280TIP3   OH243330   3.554   0.700  15.678  0.0665  0.0858  0.0702
 7280TIP3    H143331   3.496   0.684  15.752 -1.8133  1.5360 -0.9677
 7280TIP3    H243332   3.586   0.614  15.653  1.7286 -0.3477  3.2085
 7281TIP3   OH243333   1.749   3.058  17.053 -0.6488 -0.2673  0.2157
 7281TIP3    H143334   1.722   3.142  17.088 -2.0042  0.4079 -2.2584
 7281TIP3    H243335   1.760   3.002  17.130 -2.2966  1.4315  1.7639
 7282TIP3   OH243336   6.523   5.105   0.553 -0.1696  0.4619  0.4903
 7282TIP3    H143337   6.570   5.026   0.525 -2.3450 -0.6772 -0.2259
 7282TIP3    H243338   6.554   5.173   0.493  1.6663  0.1811  1.0475
 7283TIP3   OH243339   0.253   5.002  10.742 -0.3542 -0.4572 -0.4483
 7283TIP3    H143340   0.284   4.940  10.676  1.2205 -0.8677  0.5964
 7283TIP3    H243341   0.308   5.080  10.729  0.2382 -0.6786  0.5626
 7284TIP3   OH243342   2.855   3.530   2.525 -0.5606 -0.5649  0.5962
 7284TIP3    H143343   2.865   3.455   2.583 -0.7643 -0.4457  0.7854
 7284TIP3    H243344   2.923   3.592   2.553 -0.0581 -0.8898  0.1068
 7285TIP3   OH243345   6.805   1.336  10.551  0.9265  0.2485  0.0026
 7285TIP3    H143346   6.840   1.279  10.483 -0.2982 -0.6220  0.0776
 7285TIP3    H243347   6.730   1.380  10.510  0.2176 -0.2336  0.7449
 7286TIP3   OH243348   6.539   4.971  14.685  0.1735 -0.8166 -0.7283
 7286TIP3    H143349   6.490   5.013  14.756  0.5954 -1.0547 -0.2872
 7286TIP3    H243350   6.488   4.990  14.606  0.4132  0.6022 -0.5592
 7287TIP3   OH243351   4.161   0.521   5.040 -0.4905 -0.9318  0.0302
 7287TIP3    H143352   4.138   0.542   4.949  1.0492 -0.7095 -0.3358
 7287TIP3    H243353   4.109   0.443   5.060 -1.6370 -0.3806 -0.6791
 7288TIP3   OH243354   4.020   0.895   5.520 -0.0238 -0.1616  0.0657
 7288TIP3    H143355   3.958   0.948   5.569  0.6735 -0.1216  0.9282
 7288TIP3    H243356   3.971   0.865   5.444 -1.4287 -0.9833  1.2459
 7289TIP3   OH243357   3.353   6.245   3.405 -0.0238  0.1776  0.0524
 7289TIP3    H143358   3.303   6.288   3.474 -0.6675  0.4397 -0.5561
 7289TIP3    H243359   3.440   6.231   3.443 -0.7015 -0.7523  1.3071
 7290TIP3   OH243360   5.109   0.306  13.353 -0.3595  0.2504 -0.1169
 7290TIP3    H143361   5.071   0.369  13.292 -0.6611 -0.1197 -0.3134
 7290TIP3    H243362   5.090   0.221  13.315  1.5688  0.0586 -0.7656
 7291TIP3   OH243363   3.277   0.442  12.665 -0.1460  0.3473 -0.2676
 7291TIP3    H143364   3.266   0.518  12.723  0.3040  1.6064 -1.7635
 7291TIP3    H243365   3.211   0.453  12.597 -0.7838 -1.1970  0.0626
 7292TIP3   OH243366   4.883   0.368   2.537  0.0514 -0.0789 -0.4383
 7292TIP3    H143367   4.870   0.458   2.507  1.8783  0.4177  0.1275
 7292TIP3    H243368   4.922   0.323   2.461 -1.5057 -0.6265 -0.9608
 7293TIP3   OH243369   0.782   2.439   3.843 -0.0116 -0.2005 -0.2147
 7293TIP3    H143370   0.867   2.450   3.885 -0.0462  2.4203 -0.7053
 7293TIP3    H243371   0.726   2.402   3.911  1.4686 -1.9575  0.1165
 7294TIP3   OH243372   2.904   1.768   5.718 -0.5808 -0.4955 -0.3478
 7294TIP3    H143373   2.955   1.715   5.656  0.5857  0.5730 -0.3403
 7294TIP3    H243374   2.923   1.729   5.804  1.6386  0.8772 -0.1344
 7295TIP3   OH243375   4.087   1.585   0.165  0.5097  0.1045 -0.2531
 7295TIP3    H143376   4.001   1.544   0.160  0.0607  1.1317 -1.4943
 7295TIP3    H243377   4.115   1.571   0.256 -0.8844 -0.4054  0.1230
 7296TIP3   OH243378   1.462   5.180  11.887 -0.5859  0.1631 -0.5154
 7296TIP3    H143379   1.534   5.240  11.906 -0.3915 -0.8488  2.3843
 7296TIP3    H243380   1.440   5.198  11.795  2.1339  1.7516 -0.9727
 7297TIP3   OH243381   6.739   0.235   1.539  0.0268  0.1243 -0.0098
 7297TIP3    H143382   6.704   0.218   1.627 -0.3460  1.0692  0.0339
 7297TIP3    H243383   6.712   0.159   1.488  0.8971 -0.8070  0.8619
 7298TIP3   OH243384   4.789   5.890   3.849  0.1051  0.1025 -0.0628
 7298TIP3    H143385   4.713   5.924   3.802 -0.0887  0.8069  0.7421
 7298TIP3    H243386   4.861   5.949   3.825  0.3941 -0.5028 -0.7418
 7299TIP3   OH243387   5.763   2.925   4.573 -0.2894  0.7314  0.5782
 7299TIP3    H143388   5.775   2.916   4.668  1.0316  2.9199  0.6866
 7299TIP3    H243389   5.848   2.902   4.536  0.3017  3.1772  0.2464
 7300TIP3   OH243390   2.491   3.568   4.849 -0.6630 -0.3727 -0.5677
 7300TIP3    H143391   2.512   3.633   4.916 -1.6032 -0.5832 -0.0524
 7300TIP3    H243392   2.557   3.499   4.861 -0.9149 -0.4799  0.2432
 7301TIP3   OH243393   4.113   0.989   0.013  0.4041 -0.0301 -0.0455
 7301TIP3    H143394   4.106   1.074   0.056  0.1824  0.0701 -0.2765
 7301TIP3    H243395   4.067   0.928   0.071  0.8907 -0.0683  0.3116
 7302TIP3   OH243396   1.847   2.552  16.350  0.1634 -0.2576 -0.0230
 7302TIP3    H143397   1.831   2.534  16.442  1.0867 -0.8365  0.0346
 7302TIP3    H243398   1.885   2.639  16.348 -1.3779  0.4526 -0.0211
 7303TIP3   OH243399   4.505   2.464  15.834  0.3616 -0.2286 -0.2925
 7303TIP3    H143400   4.425   2.493  15.879  0.0757  1.1897 -1.6103
 7303TIP3    H243401   4.574   2.518  15.873  0.0124  1.5086 -1.8989
 7304TIP3   OH243402   1.732   2.432  17.067 -0.4981 -0.4589  0.4255
 7304TIP3    H143403   1.700   2.479  17.145 -0.6695 -0.4038  0.3222
 7304TIP3    H243404   1.779   2.356  17.103 -1.1915 -0.8314  0.5763
 7305TIP3   OH243405   5.453   6.243   5.771  0.2656  0.3773  0.7064
 7305TIP3    H143406   5.436   6.310   5.836  0.9572  1.9490 -0.6673
 7305TIP3    H243407   5.504   6.287   5.703  0.0295 -1.3242 -0.6528
 7306TIP3   OH243408   4.957   1.933   2.954  0.4931 -0.3908 -0.1852
 7306TIP3    H143409   4.979   1.961   2.865 -0.3252  1.3236  0.1290
 7306TIP3    H243410   4.926   1.843   2.944 -1.5588  0.4510 -1.9374
 7307TIP3   OH243411   3.216   3.065   2.865 -0.0750  0.0162  0.3810
 7307TIP3    H143412   3.203   2.970   2.856 -0.8119  0.2829 -2.7178
 7307TIP3    H243413   3.290   3.084   2.806 -1.3605  1.5983 -0.7924
 7308TIP3   OH243414   5.541   2.158  13.552  0.4281  0.2554  0.1042
 7308TIP3    H143415   5.486   2.086  13.582 -1.2029  2.4777  2.9575
 7308TIP3    H243416   5.488   2.202  13.485  0.3278  0.2628  0.1878
 7309TIP3   OH243417   1.096   0.839   0.818  0.3117  0.3531  0.4607
 7309TIP3    H143418   1.003   0.842   0.793  0.2830  0.8216  0.6162
 7309TIP3    H243419   1.141   0.881   0.745  0.4956 -0.6500 -0.0225
 7310TIP3   OH243420   1.692   3.883  14.175 -0.4931  0.1460 -0.0347
 7310TIP3    H143421   1.603   3.878  14.141 -0.6899 -0.6558  0.5826
 7310TIP3    H243422   1.747   3.852  14.103 -0.7579  0.1193 -0.2272
 7311TIP3   OH243423   1.836   0.456  17.022 -0.1298  0.2189 -0.3625
 7311TIP3    H143424   1.765   0.446  16.958 -0.4855 -0.7958  0.1621
 7311TIP3    H243425   1.794   0.437  17.106  0.5979  0.3959  0.0475
 7312TIP3   OH243426   4.903   2.382  11.158  0.2142  0.1460  0.3573
 7312TIP3    H143427   4.936   2.426  11.237 -1.1026  0.3369  0.8338
 7312TIP3    H243428   4.846   2.447  11.117  1.9333  0.5431 -1.5348
 7313TIP3   OH243429   0.816   6.066   4.490  0.0788  0.1508  0.6692
 7313TIP3    H143430   0.865   6.083   4.410  0.2985  0.6186  0.8984
 7313TIP3    H243431   0.873   6.011   4.543 -1.0775 -2.3517 -0.5400
 7314TIP3   OH243432   6.426   6.738  13.426  0.5577 -0.2549 -0.0059
 7314TIP3    H143433   6.356   6.782  13.475  1.0517  0.2492  0.2517
 7314TIP3    H243434   6.461   6.674  13.488  0.2918 -0.5490 -0.1552
 7315TIP3   OH243435   4.958   2.626   0.617 -0.2627 -0.1407 -0.6929
 7315TIP3    H143436   4.939   2.533   0.627  0.2967 -0.1829  0.0594
 7315TIP3    H243437   4.962   2.659   0.706 -0.0535  0.5252 -0.9453
 7316TIP3   OH243438   0.268   3.832  16.249 -0.0880 -0.1911 -0.8158
 7316TIP3    H143439   0.193   3.774  16.240 -0.5985  0.2663  0.4325
 7316TIP3    H243440   0.235   3.918  16.223 -0.1821  0.1376  0.3708
 7317TIP3   OH243441   1.405   3.967   6.105  0.8117  0.1802 -0.2541
 7317TIP3    H143442   1.403   3.904   6.177  0.2919 -0.5560 -0.9019
 7317TIP3    H243443   1.397   4.052   6.148  1.9794 -0.1575  0.6638
 7318TIP3   OH243444   0.729   2.116   0.980  0.9620 -0.1899 -0.3317
 7318TIP3    H143445   0.642   2.120   0.941  0.5291  0.2916  0.6666
 7318TIP3    H243446   0.731   2.189   1.042  2.7310  0.9997 -1.6645
 7319TIP3   OH243447   1.057   4.764  12.623 -0.2782  0.1728  0.3645
 7319TIP3    H143448   0.989   4.796  12.682 -1.0043 -1.5497  0.5114
 7319TIP3    H243449   1.089   4.842  12.579 -1.0145  1.2615  1.6899
 7320TIP3   OH243450   2.437   1.081  13.568  0.3775  0.0152  0.0774
 7320TIP3    H143451   2.525   1.120  13.560 -0.0793  1.3729  1.1647
 7320TIP3    H243452   2.453   0.987  13.577  1.5906  0.0096 -1.6385
 7321TIP3   OH243453   5.126   1.309   5.159  0.3301  0.1115  0.4323
 7321TIP3    H143454   5.047   1.364   5.152  2.0224  2.4766 -2.6707
 7321TIP3    H243455   5.181   1.355   5.223  1.5639  1.9973 -1.8435
 7322TIP3   OH243456   2.120   3.456   0.322 -0.2613  0.0478  0.1784
 7322TIP3    H143457   2.087   3.368   0.340 -1.3712  0.5260  0.5922
 7322TIP3    H243458   2.074   3.482   0.241  0.9767 -0.2036 -0.6284
 7323TIP3   OH243459   3.347   4.506   0.664  0.2556 -0.5407 -0.4442
 7323TIP3    H143460   3.383   4.515   0.752  1.3920  0.3185 -0.9768
 7323TIP3    H243461   3.378   4.420   0.635 -1.3663 -1.5136  0.5043
 7324TIP3   OH243462   4.304   0.875  10.216  0.0848 -0.5568  0.2919
 7324TIP3    H143463   4.244   0.927  10.270 -0.8422 -0.1069 -1.1129
 7324TIP3    H243464   4.288   0.906  10.127  3.0893  0.2660 -0.0676
 7325TIP3   OH243465   2.670   1.244   4.792  0.1053 -0.6571  0.4545
 7325TIP3    H143466   2.592   1.282   4.751 -0.4394 -1.1869  0.9768
 7325TIP3    H243467   2.743   1.278   4.741 -0.5182 -0.7884 -0.5429
 7326TIP3   OH243468   2.374   0.226   1.698 -0.3258  0.0334  0.2686
 7326TIP3    H143469   2.357   0.165   1.769  1.6349  0.8955  1.5815
 7326TIP3    H243470   2.319   0.302   1.719  0.3646  0.3486  0.9775
 7327TIP3   OH243471   2.554   1.799   4.643  0.2274  0.5507  0.6534
 7327TIP3    H143472   2.544   1.747   4.723 -0.7202  0.4369  0.4772
 7327TIP3    H243473   2.480   1.860   4.645 -1.2272 -1.0062 -1.2638
 7328TIP3   OH243474   1.349   0.318  13.770 -0.4876  1.2334  0.9965
 7328TIP3    H143475   1.399   0.241  13.797  0.8292  1.1828 -1.2826
 7328TIP3    H243476   1.258   0.295  13.789 -0.5101 -2.1271 -1.9408
 7329TIP3   OH243477   0.871   5.731   1.905 -0.4188 -0.2136  0.4341
 7329TIP3    H143478   0.851   5.731   1.999 -0.5576  3.0054  0.4892
 7329TIP3    H243479   0.961   5.764   1.900 -0.4849 -0.1617 -0.5946
 7330TIP3   OH243480   0.064   1.805  15.018  0.2968 -0.6037  0.0547
 7330TIP3    H143481   0.147   1.844  14.990  1.1179  0.1494  3.1682
 7330TIP3    H243482   0.008   1.879  15.038 -0.2648 -1.0917  0.3178
 7331TIP3   OH243483   3.811   2.980  11.365  0.2288  0.1556  0.7037
 7331TIP3    H143484   3.866   2.909  11.397  2.9146  1.6149 -0.3005
 7331TIP3    H243485   3.858   3.060  11.390 -1.8705  1.5651  0.4518
 7332TIP3   OH243486   4.191   6.558  14.073 -0.0965  0.1819 -0.1198
 7332TIP3    H143487   4.277   6.566  14.114  0.5142  0.7627 -1.4526
 7332TIP3    H243488   4.186   6.467  14.045  0.3054  0.2775 -0.5031
 7333TIP3   OH243489   0.128   1.254   0.608  0.4337  0.2175 -0.5384
 7333TIP3    H143490   0.107   1.298   0.691 -0.4876 -0.0747 -0.6131
 7333TIP3    H243491   0.216   1.286   0.587  0.6090  0.4444  0.4516
 7334TIP3   OH243492   6.335   6.234  11.837 -0.2770 -0.6432  0.0499
 7334TIP3    H143493   6.358   6.232  11.930 -0.2252  0.5871  0.0877
 7334TIP3    H243494   6.403   6.290  11.797 -0.0847 -1.4517 -0.7963
 7335TIP3   OH243495   1.864   4.255   2.046 -0.0810 -0.1853  0.3605
 7335TIP3    H143496   1.881   4.326   2.108 -4.3630  1.5502 -0.1377
 7335TIP3    H243497   1.850   4.178   2.101  2.0572 -0.1443  1.0595
 7336TIP3   OH243498   2.064   0.735  13.965 -0.7911 -0.4289  0.1250
 7336TIP3    H143499   1.984   0.685  13.983 -1.1074 -0.2179 -0.6571
 7336TIP3    H243500   2.038   0.827  13.976 -1.5909 -0.1057 -3.2644
 7337TIP3   OH243501   5.620   2.800  15.047  0.7434  0.5101 -0.2614
 7337TIP3    H143502   5.537   2.758  15.024 -0.0428  1.2593  1.0949
 7337TIP3    H243503   5.616   2.886  15.004 -0.6501  1.8407  2.2870
 7338TIP3   OH243504   2.681   2.522   1.159 -0.5864 -0.0675  0.5531
 7338TIP3    H143505   2.742   2.529   1.086 -1.7523  1.2560 -0.3649
 7338TIP3    H243506   2.731   2.480   1.229  1.0237  0.0071 -0.5026
 7339TIP3   OH243507   2.890   6.073   5.003 -0.0689  0.8635  0.1596
 7339TIP3    H143508   2.975   6.101   4.969 -0.2557  1.3331  0.0657
 7339TIP3    H243509   2.902   5.982   5.028 -0.2968  0.0547 -2.4329
 7340TIP3   OH243510   5.495   1.315  15.293 -0.3961  0.5728 -0.5504
 7340TIP3    H143511   5.416   1.264  15.314 -0.0131  0.1233 -0.1686
 7340TIP3    H243512   5.516   1.290  15.203  0.6202 -1.1005  0.0968
 7341TIP3   OH243513   1.652   0.989   1.688  0.2191  0.2467  0.4264
 7341TIP3    H143514   1.718   0.986   1.619  0.0277 -1.9018  0.2818
 7341TIP3    H243515   1.622   1.080   1.687 -0.1535  0.2193 -2.7083
 7342TIP3   OH243516   6.414   3.879   6.618 -0.5837 -0.0300  0.0701
 7342TIP3    H143517   6.390   3.972   6.622 -1.7018 -0.1502 -2.0767
 7342TIP3    H243518   6.335   3.836   6.585  0.8835 -1.2500 -2.1216
 7343TIP3   OH243519   6.562   6.160   3.166  0.3817  0.1326  0.8001
 7343TIP3    H143520   6.534   6.070   3.180  1.0562 -0.0291  1.1855
 7343TIP3    H243521   6.546   6.203   3.251 -0.5031  0.5378  0.4396
 7344TIP3   OH243522   6.096   1.111  14.185 -0.1315 -0.0112 -0.2901
 7344TIP3    H143523   6.188   1.095  14.164 -0.0961  1.7131 -1.7206
 7344TIP3    H243524   6.065   1.028  14.220  1.4829 -1.2204 -1.5432
 7345TIP3   OH243525   4.462   0.102  14.179 -0.2307  0.7976 -0.6733
 7345TIP3    H143526   4.411   0.167  14.226  1.4741  3.6545 -2.4368
 7345TIP3    H243527   4.446   0.121  14.086  1.7133 -0.1067 -1.2653
 7346TIP3   OH243528   0.942   1.981  12.227  0.0958 -0.5443  0.7112
 7346TIP3    H143529   0.857   2.023  12.212  1.9796  2.9883 -1.2993
 7346TIP3    H243530   0.962   1.999  12.319 -0.6991 -0.2056  0.8281
 7347TIP3   OH243531   6.051   1.614   2.782 -0.0885  0.6998 -0.6795
 7347TIP3    H143532   5.974   1.668   2.799  0.1777  0.3549  2.1367
 7347TIP3    H243533   6.117   1.677   2.752 -1.3425  1.0156 -3.0210
 7348TIP3   OH243534   0.172   1.741   5.681 -0.1416  0.0051 -0.6950
 7348TIP3    H143535   0.221   1.702   5.608 -0.6783  0.7914 -1.4924
 7348TIP3    H243536   0.126   1.815   5.642  1.2902  1.8278  0.8785
 7349TIP3   OH243537   5.616   1.406   5.359 -0.4095 -0.4981 -0.2918
 7349TIP3    H143538   5.650   1.412   5.448 -1.0378 -2.3944  0.1235
 7349TIP3    H243539   5.693   1.406   5.303 -0.0276  1.2355  0.1900
 7350TIP3   OH243540   0.790   3.012  15.024  0.6555 -0.1113 -0.4918
 7350TIP3    H143541   0.756   2.928  14.993  0.1881  0.0293 -0.3567
 7350TIP3    H243542   0.716   3.072  15.018  1.3670  0.6854 -2.0607
 7351TIP3   OH243543   0.206   2.142   5.934 -0.9106  0.1654  0.6185
 7351TIP3    H143544   0.114   2.117   5.943 -0.1512 -3.4608 -0.1957
 7351TIP3    H243545   0.252   2.060   5.918  1.9850  2.1803 -2.9421
 7352TIP3   OH243546   5.092   5.275   5.799 -0.3170 -0.1950 -0.0423
 7352TIP3    H143547   5.145   5.197   5.809 -0.9851 -0.4028  2.6677
 7352TIP3    H243548   5.036   5.277   5.877  0.1227  3.3086  0.3800
 7353TIP3   OH243549   6.528   6.715  15.653 -0.0367 -0.1806  0.1262
 7353TIP3    H143550   6.462   6.659  15.610  1.2452 -0.7576 -1.1551
 7353TIP3    H243551   6.549   6.668  15.734 -2.0778  0.6439  1.2208
 7354TIP3   OH243552   5.303   4.708   1.830 -0.0399 -0.0635 -0.5863
 7354TIP3    H143553   5.285   4.615   1.822 -0.6467 -0.0502  0.5305
 7354TIP3    H243554   5.298   4.727   1.923 -0.9195  1.2752 -0.8644
 7355TIP3   OH243555   5.735   5.260   0.772  0.8781  0.3192  0.3568
 7355TIP3    H143556   5.779   5.218   0.698 -2.4500 -0.7115 -1.2161
 7355TIP3    H243557   5.769   5.214   0.849  1.3558 -1.5302 -0.8796
 7356TIP3   OH243558   5.784   3.147   6.748 -0.9074  0.6306 -0.0988
 7356TIP3    H143559   5.717   3.118   6.810 -1.2720  3.2027  0.8364
 7356TIP3    H243560   5.752   3.231   6.715  1.3304  1.4112 -0.4627
 7357TIP3   OH243561   0.068   2.577   1.118  0.5298 -0.2708 -0.2770
 7357TIP3    H143562   0.048   2.663   1.081 -0.1147 -1.0633 -1.8770
 7357TIP3    H243563   0.099   2.596   1.207 -1.4104  1.4868  0.1121
 7358TIP3   OH243564   6.511   5.429   6.120 -0.1376  0.4614 -0.5185
 7358TIP3    H143565   6.431   5.442   6.171  0.5998  2.1597  0.2685
 7358TIP3    H243566   6.572   5.387   6.181  0.7086  2.3925  0.0358
 7359TIP3   OH243567   5.458   0.783  15.585  0.4485 -0.3105 -0.0167
 7359TIP3    H143568   5.484   0.776  15.494  0.9595  0.0983  0.0973
 7359TIP3    H243569   5.527   0.738  15.634  1.3133  1.3028  0.3354
 7360TIP3   OH243570   5.006   4.618  13.920  0.9160  0.2051  0.4992
 7360TIP3    H143571   5.054   4.697  13.898  2.5636 -0.4701  1.4741
 7360TIP3    H243572   4.973   4.634  14.009 -1.7407  1.1023 -0.5339
 7361TIP3   OH243573   1.054   6.144   4.712  0.7152  0.3150 -0.4892
 7361TIP3    H143574   1.137   6.170   4.751  1.5838 -1.8519 -0.7176
 7361TIP3    H243575   1.068   6.157   4.618  0.0258  1.8647 -0.4011
 7362TIP3   OH243576   4.338   1.031   2.039 -0.0144 -0.1999 -0.1067
 7362TIP3    H143577   4.376   1.112   2.003 -1.8537  0.5663 -0.4527
 7362TIP3    H243578   4.252   1.058   2.072 -0.2106 -1.8169  0.7988
 7363TIP3   OH243579   4.290   0.261   0.533  0.2990  0.9518 -0.0611
 7363TIP3    H143580   4.305   0.171   0.504  3.7181  0.3096  2.8972
 7363TIP3    H243581   4.195   0.272   0.529 -0.3583 -3.0706  0.1805
 7364TIP3   OH243582   1.139   6.147  13.295  0.0107 -0.1535  0.2858
 7364TIP3    H143583   1.087   6.070  13.316  3.1104 -2.1414  1.2685
 7364TIP3    H243584   1.096   6.219  13.342 -2.4042 -1.4093  0.1284
 7365TIP3   OH243585   1.755   4.667  16.163  0.4215  0.8871  0.2422
 7365TIP3    H143586   1.747   4.666  16.068 -0.1266 -1.0970  0.2661
 7365TIP3    H243587   1.797   4.750  16.183 -0.2258  1.7143 -1.6615
 7366TIP3   OH243588   6.453   3.721   3.270 -0.1864  0.0169 -0.1120
 7366TIP3    H143589   6.416   3.739   3.183  1.4090  0.4990 -0.7135
 7366TIP3    H243590   6.500   3.639   3.260  0.3333  0.2729  0.1891
 7367TIP3   OH243591   6.291   0.774   3.750  0.5935 -0.0141  0.1665
 7367TIP3    H143592   6.305   0.799   3.841  0.8434  0.4074  0.0136
 7367TIP3    H243593   6.249   0.851   3.710 -1.0628 -0.7770  0.3165
 7368TIP3   OH243594   3.929   6.600   5.980 -0.1278  0.2736  0.3971
 7368TIP3    H143595   3.893   6.650   5.907 -2.5347 -0.7407  0.8046
 7368TIP3    H243596   3.858   6.542   6.006  1.9217 -2.0773  1.1131
 7369TIP3   OH243597   3.622   6.610  14.865  0.5768 -0.7472 -0.2975
 7369TIP3    H143598   3.533   6.640  14.846 -0.0916 -0.5822  2.6261
 7369TIP3    H243599   3.641   6.546  14.797 -1.6603 -0.5542 -1.1784
 7370TIP3   OH243600   1.592   6.687   0.510 -0.5381  0.4611  0.3537
 7370TIP3    H143601   1.520   6.683   0.447 -0.4742  1.7981  0.1551
 7370TIP3    H243602   1.635   6.770   0.492  0.3455  0.2237  1.2465
 7371TIP3   OH243603   1.050   4.247  14.278 -0.4658 -0.5752  0.1721
 7371TIP3    H143604   1.003   4.280  14.354 -1.0192 -0.2612 -0.2997
 7371TIP3    H243605   0.983   4.239  14.210 -0.4256 -2.9529  0.3400
 7372TIP3   OH243606   6.614   0.881   3.115  0.3501  0.7013 -0.1751
 7372TIP3    H143607   6.705   0.864   3.140 -0.3464 -0.1562  2.0114
 7372TIP3    H243608   6.566   0.806   3.151 -1.4231  1.9408  0.1209
 7373TIP3   OH243609   6.742   5.201   1.025  0.1024 -0.2858 -0.3528
 7373TIP3    H143610   6.702   5.188   1.111  0.1881 -1.8165 -0.5154
 7373TIP3    H243611   6.728   5.118   0.979 -0.0842  0.5560 -1.8833
 7374TIP3   OH243612   2.942   1.044   0.886 -0.3034 -0.2960 -0.2027
 7374TIP3    H143613   2.978   1.100   0.817  0.0913 -0.0896  0.1688
 7374TIP3    H243614   2.914   1.104   0.954 -0.4259 -0.5168 -0.0558
 7375TIP3   OH243615   4.060   4.216   3.508  0.4213 -0.3055 -0.3905
 7375TIP3    H143616   4.006   4.220   3.429  1.0580 -1.2702 -0.8967
 7375TIP3    H243617   4.038   4.295   3.556  1.0396  1.0195 -2.1814
 7376TIP3   OH243618   6.023   6.023  11.294 -0.4405  0.6434  0.8656
 7376TIP3    H143619   5.987   6.062  11.374  0.3004  0.8534  1.1078
 7376TIP3    H243620   5.960   5.956  11.269 -0.3032  0.0564  2.0508
 7377TIP3   OH243621   1.511   0.620   4.273  0.0156  0.0617  0.2319
 7377TIP3    H143622   1.596   0.658   4.252  0.2518  0.4068  1.7047
 7377TIP3    H243623   1.513   0.532   4.236  0.7556  0.3120 -0.3211
 7378TIP3   OH243624   3.753   1.469   1.970 -0.0667 -0.1566 -0.2245
 7378TIP3    H143625   3.791   1.557   1.964  0.0366 -0.1769  0.1040
 7378TIP3    H243626   3.743   1.441   1.879  0.3654 -0.0036 -0.3218
 7379TIP3   OH243627   1.346   1.482   2.224  0.1389  0.6357 -0.4113
 7379TIP3    H143628   1.337   1.572   2.255 -0.3306  0.4706 -0.0424
 7379TIP3    H243629   1.303   1.430   2.292  1.2446  0.0524 -0.1452
 7380TIP3   OH243630   1.613   3.569  11.155 -1.0941 -0.0226 -0.1342
 7380TIP3    H143631   1.585   3.586  11.064 -1.4765 -2.7981 -0.6115
 7380TIP3    H243632   1.545   3.513  11.190  0.1240 -0.7079  1.1994
 7381TIP3   OH243633   6.267   2.162   1.693 -0.1665 -0.0525 -0.4159
 7381TIP3    H143634   6.261   2.143   1.786 -1.0798  1.5585 -0.1216
 7381TIP3    H243635   6.184   2.133   1.656  0.5715 -1.6235 -0.9530
 7382TIP3   OH243636   6.112   3.095  13.722 -0.2262 -0.4101  0.0904
 7382TIP3    H143637   6.084   3.147  13.797 -0.7907  0.6973 -0.8582
 7382TIP3    H243638   6.206   3.083  13.735 -0.0540  0.9701  0.2880
 7383TIP3   OH243639   3.189   4.143   1.635 -0.1822  0.3097 -0.3140
 7383TIP3    H143640   3.183   4.152   1.730  1.8568  1.6577 -0.2394
 7383TIP3    H243641   3.116   4.086   1.611 -0.7986  0.0140  2.0368
 7384TIP3   OH243642   3.750   3.127  11.712 -0.1592  0.2091  0.1830
 7384TIP3    H143643   3.765   3.152  11.803 -1.1771  0.5954  0.2602
 7384TIP3    H243644   3.811   3.055  11.696 -0.2494 -0.1285  1.2901
 7385TIP3   OH243645   4.711   6.079  16.351  0.0729 -0.1981  0.0608
 7385TIP3    H143646   4.677   6.059  16.263 -0.3609  1.1882 -0.1158
 7385TIP3    H243647   4.804   6.097  16.337 -0.0748  0.4074 -0.1978
 7386TIP3   OH243648   2.024   4.911   1.700 -0.0419  0.1363 -0.1084
 7386TIP3    H143649   1.997   4.983   1.643 -0.0763 -0.3213 -0.6833
 7386TIP3    H243650   2.004   4.832   1.650 -0.4417 -0.2959  0.6987
 7387TIP3   OH243651   0.496   6.303  15.053  0.6282 -0.1816 -0.8574
 7387TIP3    H143652   0.506   6.281  15.145  1.4803  0.9361 -0.6508
 7387TIP3    H243653   0.582   6.337  15.027 -0.0987  1.2294 -1.5609
 7388TIP3   OH243654   2.150   2.651  12.509 -0.3610  0.0365 -0.2791
 7388TIP3    H143655   2.072   2.604  12.478 -0.9027  0.1430  0.8816
 7388TIP3    H243656   2.146   2.736  12.464  1.1493 -1.2630 -3.1729
 7389TIP3   OH243657   2.323   1.671   5.635 -0.3830  0.2165 -0.3343
 7389TIP3    H143658   2.395   1.683   5.697 -0.1594  0.1554 -0.5769
 7389TIP3    H243659   2.306   1.577   5.635 -1.9178  0.4453  1.3246
 7390TIP3   OH243660   1.426   2.668   1.102 -0.3879 -0.2672 -0.4729
 7390TIP3    H143661   1.366   2.732   1.065 -1.0998 -1.2565 -1.0594
 7390TIP3    H243662   1.479   2.640   1.028 -0.5692 -0.8917 -0.3695
 7391TIP3   OH243663   1.429   2.900  14.380  0.1800 -0.3990 -0.4387
 7391TIP3    H143664   1.392   2.842  14.314 -1.4670 -0.0140  0.0816
 7391TIP3    H243665   1.409   2.858  14.463 -0.6065  0.6349 -0.0776
 7392TIP3   OH243666   6.423   0.121  15.580  0.0378 -0.3919 -0.4064
 7392TIP3    H143667   6.464   0.044  15.620 -1.1709 -0.1404  1.4422
 7392TIP3    H243668   6.334   0.093  15.560  0.1465 -0.0078 -1.5045
 7393TIP3   OH243669   6.529   5.636  12.093 -0.0652 -0.1905 -0.2257
 7393TIP3    H143670   6.585   5.693  12.147  0.2067  0.5325 -1.2272
 7393TIP3    H243671   6.540   5.549  12.131 -0.2364  0.3605  1.1554
 7394TIP3   OH243672   3.485   5.097   2.352 -0.2161  0.6234 -0.1068
 7394TIP3    H143673   3.511   5.006   2.363 -0.8917  0.5936  1.5842
 7394TIP3    H243674   3.398   5.102   2.391  0.0172  2.0914  0.3002
 7395TIP3   OH243675   0.029   0.460   4.161  0.0052 -0.0170 -0.2578
 7395TIP3    H143676   0.117   0.498   4.163  0.1847 -0.4412  0.2399
 7395TIP3    H243677  -0.009   0.482   4.246 -0.0272 -0.6067 -0.1121
 7396TIP3   OH243678   2.703   3.155  11.888 -0.1033 -0.4628 -0.3218
 7396TIP3    H143679   2.757   3.080  11.861 -0.2149 -0.7758  0.2977
 7396TIP3    H243680   2.744   3.230  11.846  2.2307 -0.3503  1.9331
 7397TIP3   OH243681   0.217   5.743  14.825 -0.0620 -0.1205 -0.3105
 7397TIP3    H143682   0.216   5.647  14.819 -0.7269 -0.0834 -1.0183
 7397TIP3    H243683   0.266   5.771  14.748 -1.1575  0.1361 -0.9424
 7398TIP3   OH243684   4.614   3.886   4.671 -0.0009 -0.3840  0.4584
 7398TIP3    H143685   4.625   3.872   4.765  2.4632  0.6899  0.4185
 7398TIP3    H243686   4.656   3.971   4.654  0.9780 -1.2260 -1.8091
 7399TIP3   OH243687   6.253   5.760  13.254 -0.3641  0.1544 -0.4986
 7399TIP3    H143688   6.201   5.839  13.241  0.4039  0.7368 -0.0853
 7399TIP3    H243689   6.333   5.775  13.204  0.4488  0.3018  0.8047
 7400TIP3   OH243690   1.954   5.292   2.753  0.1045 -0.1300  0.6332
 7400TIP3    H143691   1.973   5.386   2.752  1.4073 -0.3011 -2.3087
 7400TIP3    H243692   1.886   5.281   2.687  0.8092 -1.3452  0.0656
 7401TIP3   OH243693   4.392   2.368  17.031 -0.4395 -0.0480 -1.1524
 7401TIP3    H143694   4.371   2.435  17.095 -0.1084  0.0802 -1.1784
 7401TIP3    H243695   4.471   2.326  17.065 -1.1080 -0.9816 -0.7056
 7402TIP3   OH243696   1.173   2.880   0.128 -0.9979 -0.5515 -0.4669
 7402TIP3    H143697   1.137   2.795   0.152 -2.1164  0.3820  1.4053
 7402TIP3    H243698   1.102   2.925   0.082 -1.5524  0.4400  1.2292
 7403TIP3   OH243699   5.400   1.184  15.975 -0.3887  0.2685  0.7393
 7403TIP3    H143700   5.493   1.174  15.995  0.0251 -1.3910 -1.5081
 7403TIP3    H243701   5.394   1.161  15.882 -2.9724  0.8916  0.6888
 7404TIP3   OH243702   3.825   0.852   1.499 -1.0134  0.0567  0.0309
 7404TIP3    H143703   3.866   0.823   1.418  1.2599  1.4324  0.5889
 7404TIP3    H243704   3.829   0.776   1.557  1.4149  0.2681  0.2556
 7405TIP3   OH243705   3.858   4.809   1.929 -0.0057  0.1599  0.5332
 7405TIP3    H143706   3.943   4.811   1.973 -0.2210  1.2557  0.9434
 7405TIP3    H243707   3.868   4.744   1.860  0.4340 -1.3818  1.9998
 7406TIP3   OH243708   5.499   0.036   0.443  0.7290 -0.0713  0.1311
 7406TIP3    H143709   5.511   0.094   0.519  0.9253  0.1834 -0.0928
 7406TIP3    H243710   5.493  -0.052   0.482 -0.0679  0.1448  0.5053
 7407TIP3   OH243711   3.905   1.751   0.900 -0.4194 -0.0048 -0.5869
 7407TIP3    H143712   3.862   1.673   0.864  0.5221 -0.5896 -0.4712
 7407TIP3    H243713   3.939   1.722   0.985 -0.8620  0.7975 -0.1314
 7408TIP3   OH243714   2.384   3.810  16.693  0.0134 -0.0279  0.2219
 7408TIP3    H143715   2.366   3.867  16.618 -2.0955  0.1537  0.7857
 7408TIP3    H243716   2.452   3.856  16.743  1.6112 -0.2600 -1.6228
 7409TIP3   OH243717   0.844   0.858   1.096 -0.0471  0.6793  0.2946
 7409TIP3    H143718   0.868   0.770   1.068 -0.7726  0.1976  1.1131
 7409TIP3    H243719   0.860   0.859   1.190 -0.9557  1.0933  0.4627
 7410TIP3   OH243720   5.424   5.345   4.745  0.2218 -1.4711 -0.3431
 7410TIP3    H143721   5.518   5.351   4.727  1.3004  0.4805  4.5388
 7410TIP3    H243722   5.387   5.425   4.707  1.0407 -0.9568 -0.0797
 7411TIP3   OH243723   1.238   2.723  16.213 -0.0186  0.0046  0.5688
 7411TIP3    H143724   1.276   2.680  16.136  0.8521  1.0385  0.3917
 7411TIP3    H243725   1.161   2.670  16.235 -0.2675 -0.3202 -0.9867
 7412TIP3   OH243726   4.747   1.095   2.002 -0.4172  0.0792 -0.3780
 7412TIP3    H143727   4.689   1.122   2.074  0.6265  0.7046  0.2613
 7412TIP3    H243728   4.690   1.092   1.925 -1.1579  1.4024  0.0779
 7413TIP3   OH243729   4.601   0.940   0.973  0.2228  0.1996 -0.0457
 7413TIP3    H143730   4.546   0.888   1.033  0.5918  0.7230  0.7661
 7413TIP3    H243731   4.542   0.966   0.903 -0.0881 -0.8966 -0.2206
 7414TIP3   OH243732   4.597   3.585  13.751  0.5706 -0.1827 -0.1953
 7414TIP3    H143733   4.667   3.524  13.774 -0.0037 -0.8800 -0.2169
 7414TIP3    H243734   4.634   3.642  13.685  0.7102 -1.4319 -1.2334
 7415TIP3   OH243735   2.896   1.375  12.139  0.1642 -0.7871  0.5587
 7415TIP3    H143736   2.825   1.321  12.104  0.6826 -1.3928  0.4280
 7415TIP3    H243737   2.898   1.355  12.233 -0.4157 -0.0956  0.7250
 7416TIP3   OH243738   0.432   1.762   6.924  0.5261  0.1493 -0.8681
 7416TIP3    H143739   0.344   1.749   6.891  0.6856 -0.3201 -1.1095
 7416TIP3    H243740   0.428   1.846   6.971 -0.1307 -0.0520 -0.5630
 7417TIP3   OH243741   3.535   0.052  15.421  0.2946 -0.0878  0.1619
 7417TIP3    H143742   3.503   0.093  15.341  1.3354  1.1173  0.3331
 7417TIP3    H243743   3.510  -0.040  15.413 -0.3169  0.1787 -1.1737
 7418TIP3   OH243744   4.286   2.944  16.345 -0.0230 -0.4183  0.1867
 7418TIP3    H143745   4.215   2.913  16.290 -0.0446  0.7302 -0.4563
 7418TIP3    H243746   4.317   3.024  16.303 -0.4179  0.8337  2.1278
 7419TIP3   OH243747   5.815   4.930  13.255  0.3632  0.8925 -0.7654
 7419TIP3    H143748   5.891   4.953  13.308 -0.6305 -0.2813  1.2969
 7419TIP3    H243749   5.835   4.841  13.224 -0.2999  0.4309  0.0992
 7420TIP3   OH243750   1.131   6.557  15.389  0.0103 -0.4606 -0.1370
 7420TIP3    H143751   1.040   6.532  15.373 -0.0456 -0.2310 -0.1877
 7420TIP3    H243752   1.129   6.653  15.391  0.4392 -0.4134 -1.2925
 7421TIP3   OH243753   0.642   5.061   0.826  0.0203 -0.0210  0.2640
 7421TIP3    H143754   0.560   5.106   0.843  0.9878  1.2105  2.0058
 7421TIP3    H243755   0.670   5.029   0.912  0.7460 -1.5279 -0.5051
 7422TIP3   OH243756   3.436   0.299  13.136 -0.5116  0.3541  0.4340
 7422TIP3    H143757   3.411   0.327  13.224 -3.6751 -0.7760  0.0429
 7422TIP3    H243758   3.481   0.216  13.149  1.0392  1.2613  1.0670
 7423TIP3   OH243759   2.657   3.973   3.229  0.2304 -0.1918 -0.1684
 7423TIP3    H143760   2.673   4.045   3.289 -0.3586  0.0255 -0.2713
 7423TIP3    H243761   2.742   3.930   3.221  0.4106  0.0328  0.4804
 7424TIP3   OH243762   5.475   6.099   3.582  0.2688 -0.3738  0.1207
 7424TIP3    H143763   5.537   6.149   3.528 -0.3737 -0.6901 -0.9358
 7424TIP3    H243764   5.529   6.063   3.652  0.8370  1.4289  0.6817
 7425TIP3   OH243765   6.081   4.402   2.006 -0.3455 -0.5337 -0.3867
 7425TIP3    H143766   5.990   4.388   1.983 -0.7373  0.5768  0.4300
 7425TIP3    H243767   6.085   4.391   2.101  0.6447 -1.8982 -0.5433
 7426TIP3   OH243768   3.585   4.083   0.309 -0.0154 -0.2894  0.2223
 7426TIP3    H143769   3.513   4.056   0.252 -0.1675  1.8490 -0.6814
 7426TIP3    H243770   3.558   4.169   0.343  1.0213 -0.5631  1.8744
 7427TIP3   OH243771   0.749   2.687   1.747 -0.1854 -0.1912 -0.8220
 7427TIP3    H143772   0.692   2.611   1.761 -1.1125  0.3445 -1.5990
 7427TIP3    H243773   0.746   2.733   1.831  0.9045 -1.3204 -0.1209
 7428TIP3   OH243774   5.936   4.036  14.602  0.0707  0.2042 -0.3927
 7428TIP3    H143775   5.847   4.055  14.570  0.4050  2.0363 -0.3832
 7428TIP3    H243776   5.923   4.011  14.693 -0.3906  1.6756 -0.0115
 7429TIP3   OH243777   0.987   3.807   6.128  0.0854 -0.3031  0.1520
 7429TIP3    H143778   1.052   3.779   6.192  1.3110  0.3601 -0.7528
 7429TIP3    H243779   1.029   3.792   6.043 -0.6277  0.8550 -0.4359
 7430TIP3   OH243780   6.142   4.830   0.606 -0.2320  0.7483 -0.5740
 7430TIP3    H143781   6.116   4.740   0.628 -0.1357  0.9051  0.2125
 7430TIP3    H243782   6.222   4.819   0.555  0.2861  0.4022  0.2783
 7431TIP3   OH243783   2.448   5.374  12.575  0.0852  0.2155  0.4026
 7431TIP3    H143784   2.525   5.399  12.626  0.4259  1.1203 -0.5325
 7431TIP3    H243785   2.481   5.363  12.486 -0.3595 -2.0366  0.4563
 7432TIP3   OH243786   6.067   2.841  14.681  0.1530 -0.0085 -0.4386
 7432TIP3    H143787   6.137   2.778  14.664  0.8271  0.5703  0.1505
 7432TIP3    H243788   6.010   2.834  14.605  0.2962 -1.2200 -0.4629
 7433TIP3   OH243789   4.371   4.612   1.193 -0.2080 -0.2219 -0.1237
 7433TIP3    H143790   4.293   4.612   1.138  0.7411  1.1803 -1.5518
 7433TIP3    H243791   4.394   4.704   1.202 -1.5071 -0.0883  4.5017
 7434TIP3   OH243792   6.363   6.520   5.387 -0.0439 -0.4942 -0.5682
 7434TIP3    H143793   6.338   6.602   5.346 -1.9738 -0.8051 -0.1031
 7434TIP3    H243794   6.432   6.544   5.449 -2.8209  1.4610  2.0533
 7435TIP3   OH243795   4.894   2.641   4.544 -0.2431 -0.2525 -0.0865
 7435TIP3    H143796   4.860   2.721   4.585  0.9086  0.6231 -0.7803
 7435TIP3    H243797   4.980   2.666   4.511  0.2927 -1.8922 -0.0142
 7436TIP3   OH243798   6.669   5.426   1.386  0.0093 -0.0600  0.4438
 7436TIP3    H143799   6.694   5.426   1.479  0.1008  1.2529  0.4378
 7436TIP3    H243800   6.575   5.408   1.386  0.3468 -2.0323  0.6487
 7437TIP3   OH243801   6.815   1.143  17.005 -0.1164 -0.1162  0.1878
 7437TIP3    H143802   6.862   1.082  16.949  0.1402 -0.9616  1.2691
 7437TIP3    H243803   6.816   1.101  17.092 -0.4863  1.1341  0.8256
 7438TIP3   OH243804   4.768   6.761  17.117 -0.1783 -0.6072  0.0651
 7438TIP3    H143805   4.673   6.767  17.109 -0.1719 -1.0862 -0.4355
 7438TIP3    H243806   4.783   6.674  17.155  0.1223 -1.2325 -1.4110
 7439TIP3   OH243807   2.582   1.569  11.639 -0.3226  0.1369 -0.5691
 7439TIP3    H143808   2.674   1.593  11.637 -0.1912 -0.1553  0.7774
 7439TIP3    H243809   2.538   1.648  11.672 -0.3815 -0.1474  0.0467
 7440TIP3   OH243810   4.198   0.882  13.397  0.0993 -0.0581 -0.0917
 7440TIP3    H143811   4.257   0.903  13.469  0.9452  0.2154 -0.8564
 7440TIP3    H243812   4.154   0.802  13.426 -0.6134  0.7911  1.3311
 7441TIP3   OH243813   3.493   3.699   3.897  0.1287 -0.3293 -0.0639
 7441TIP3    H143814   3.545   3.688   3.817  0.1815 -0.1443 -0.0542
 7441TIP3    H243815   3.455   3.786   3.889  0.1309 -0.3124  0.1133
 7442TIP3   OH243816   1.991   0.644  17.180  0.0755 -0.2443  0.0362
 7442TIP3    H143817   1.899   0.655  17.154 -0.6074 -1.8309  1.6131
 7442TIP3    H243818   2.037   0.628  17.097 -1.1665 -0.0664 -0.7158
 7443TIP3   OH243819   0.251   4.725   4.900  0.1759  0.4216 -0.2016
 7443TIP3    H143820   0.332   4.742   4.852 -0.8177  1.3299 -1.6421
 7443TIP3    H243821   0.181   4.755   4.841 -1.1577  0.9042  1.5335
 7444TIP3   OH243822   2.923   4.891  14.315  0.0306  0.0261 -0.0324
 7444TIP3    H143823   2.929   4.862  14.224  1.4052 -0.1720  0.1046
 7444TIP3    H243824   2.993   4.844  14.360  0.1959  1.1001  0.8708
 7445TIP3   OH243825   4.002   5.488   4.606  0.4899  0.0440 -0.8110
 7445TIP3    H143826   3.939   5.486   4.534 -0.8350 -3.0356  0.2711
 7445TIP3    H243827   3.951   5.518   4.682 -0.0165 -3.0807  0.2219
 7446TIP3   OH243828   6.018   5.066  10.976 -0.1286 -0.3942 -0.0567
 7446TIP3    H143829   6.027   4.980  11.016  1.0857  0.3766  1.4292
 7446TIP3    H243830   6.094   5.074  10.919 -0.2426 -0.3099 -0.1965
 7447TIP3   OH243831   1.916   0.004  13.022  0.6468  0.0734  0.0762
 7447TIP3    H143832   1.855   0.077  13.031  0.1588 -0.3320  0.1015
 7447TIP3    H243833   1.967   0.025  12.944 -1.1533 -0.7275 -1.3893
 7448TIP3   OH243834   0.956   4.080   0.808  0.4723  0.8507  0.1520
 7448TIP3    H143835   0.894   4.153   0.806 -0.0827  0.4207  0.9240
 7448TIP3    H243836   0.900   4.002   0.815  1.0845  0.4172  0.2914
 7449TIP3   OH243837   0.222   2.328   6.176  0.3376  0.0627 -0.1924
 7449TIP3    H143838   0.232   2.275   6.255 -0.1939  1.4305  0.8468
 7449TIP3    H243839   0.236   2.267   6.104  1.5831 -1.0741  0.9533
 7450TIP3   OH243840   2.266   1.861   1.746  0.2987  0.4379 -0.4212
 7450TIP3    H143841   2.331   1.800   1.712 -1.1497 -0.5088 -1.5839
 7450TIP3    H243842   2.268   1.934   1.685  0.0404  0.2536 -0.6524
 7451TIP3   OH243843   0.868   6.627   0.338  0.1674 -0.6257  0.1011
 7451TIP3    H143844   0.777   6.654   0.339  0.9643  2.5356 -0.7052
 7451TIP3    H243845   0.885   6.601   0.247  0.1223 -0.9043  0.1744
 7452TIP3   OH243846   6.721   1.317   6.435 -0.1535 -0.3576 -0.1263
 7452TIP3    H143847   6.732   1.388   6.498  1.1710 -2.4024  2.0917
 7452TIP3    H243848   6.706   1.239   6.488 -0.4487 -1.9663 -2.4235
 7453TIP3   OH243849   6.363   6.647   1.385  0.9152 -0.1045  0.3204
 7453TIP3    H143850   6.296   6.707   1.418 -0.1255 -0.3998 -1.1518
 7453TIP3    H243851   6.384   6.680   1.298 -0.2810 -2.2745 -0.8781
 7454TIP3   OH243852   0.232   4.419  17.016 -0.1256  0.1361 -0.3020
 7454TIP3    H143853   0.269   4.331  17.027  0.8913  0.5994  0.1471
 7454TIP3    H243854   0.138   4.405  17.015 -0.0428 -0.8198  1.2327
 7455TIP3   OH243855   0.222   6.304   5.131  0.1048  0.4064  0.2313
 7455TIP3    H143856   0.161   6.329   5.062  0.7797  0.4647 -0.3582
 7455TIP3    H243857   0.177   6.235   5.180 -0.8686  1.2168  0.4963
 7456TIP3   OH243858   5.449   3.813   0.490 -0.1383 -0.1923 -0.6999
 7456TIP3    H143859   5.419   3.867   0.563  0.5369  0.4237 -0.8730
 7456TIP3    H243860   5.543   3.805   0.502 -0.1158 -0.6679 -1.1255
 7457TIP3   OH243861   2.880   4.657   1.973 -0.5107  0.4392 -0.5071
 7457TIP3    H143862   2.958   4.711   1.965  0.6182 -0.7565  1.6232
 7457TIP3    H243863   2.848   4.673   2.062 -3.8146  2.2288 -1.7996
 7458TIP3   OH243864   2.076   2.183  15.168 -0.0826  0.0331  0.1618
 7458TIP3    H143865   2.064   2.099  15.123 -0.4076 -0.4969  1.2039
 7458TIP3    H243866   1.998   2.234  15.145  0.0106 -0.0309 -0.3015
 7459TIP3   OH243867   5.476   5.736   2.594  0.7051 -0.4855  0.0293
 7459TIP3    H143868   5.482   5.640   2.592 -0.7175 -0.6201  1.0604
 7459TIP3    H243869   5.400   5.756   2.540  1.0126  0.0821 -0.2009
 7460TIP3   OH243870   6.204   0.246  12.737 -0.4989  0.3264  0.3536
 7460TIP3    H143871   6.274   0.202  12.690 -0.4812  1.4731 -0.7656
 7460TIP3    H243872   6.249   0.308  12.795 -0.5557  0.1430  0.5933
 7461TIP3   OH243873   0.068   0.669   1.077 -0.7643  0.8037 -0.5173
 7461TIP3    H143874   0.061   0.693   0.985 -1.1356  1.7144 -0.2616
 7461TIP3    H243875   0.125   0.735   1.116 -1.6399  1.1950  0.1572
 7462TIP3   OH243876   0.362   6.698   0.360  0.5054 -0.0361  0.5117
 7462TIP3    H143877   0.281   6.675   0.315 -1.4407  3.4275  1.8469
 7462TIP3    H243878   0.410   6.752   0.297  1.0423 -0.7313  0.3082
 7463TIP3   OH243879   2.570   6.048  17.201  0.4004  0.2957 -0.8773
 7463TIP3    H143880   2.474   6.055  17.194  0.4061  0.3743 -0.8844
 7463TIP3    H243881   2.602   6.130  17.162  0.4702  0.2725 -0.8684
 7464TIP3   OH243882   4.013   6.427   0.664 -1.0402  0.0536  0.2636
 7464TIP3    H143883   3.965   6.426   0.746  0.5188  1.0450  1.2353
 7464TIP3    H243884   3.951   6.462   0.600 -1.7926  0.7408  1.3423
 7465TIP3   OH243885   4.455   5.869  17.056  0.5995 -0.4240  0.0120
 7465TIP3    H143886   4.457   5.778  17.083  0.5513 -0.6420 -0.7094
 7465TIP3    H243887   4.400   5.870  16.978 -0.3390  0.3968  0.6521
 7466TIP3   OH243888   2.480   3.843  11.434 -0.2721  0.0242 -0.6555
 7466TIP3    H143889   2.528   3.794  11.366  0.8554  2.1194 -1.4708
 7466TIP3    H243890   2.388   3.832  11.411 -0.1827 -2.8150  0.0233
 7467TIP3   OH243891   1.840   3.955   0.753  0.0653  0.3663  0.2357
 7467TIP3    H143892   1.746   3.966   0.766 -0.1846 -0.9632 -0.2689
 7467TIP3    H243893   1.848   3.924   0.662  0.9701  0.3228  0.3182
 7468TIP3   OH243894   0.495   4.314   2.427 -0.4980  0.3862  0.7447
 7468TIP3    H143895   0.484   4.370   2.351  1.2153  0.8697  0.8095
 7468TIP3    H243896   0.545   4.367   2.489 -0.0450 -0.7146  1.3604
 7469TIP3   OH243897   3.751   2.466  13.560  0.3423 -0.7448  0.1867
 7469TIP3    H143898   3.787   2.395  13.507  1.3083  0.2444 -0.5195
 7469TIP3    H243899   3.826   2.522  13.581 -0.5882  0.8070 -0.4229
 7470TIP3   OH243900   3.823   1.549  12.387 -0.0252 -0.1097  0.1992
 7470TIP3    H143901   3.751   1.543  12.324 -0.2072  2.8569 -0.0144
 7470TIP3    H243902   3.859   1.637  12.374  2.7004 -0.9516  1.3386
 7471TIP3   OH243903   2.500   3.259  10.522 -0.1826 -0.3501 -0.2033
 7471TIP3    H143904   2.451   3.338  10.543  1.0609  0.3432  0.1671
 7471TIP3    H243905   2.509   3.213  10.606  0.1373 -0.2788 -0.1977
 7472TIP3   OH243906   5.119   1.786  12.441  0.1383 -0.2509  0.1315
 7472TIP3    H143907   5.047   1.788  12.504  0.3885  0.1877  0.4108
 7472TIP3    H243908   5.119   1.697  12.407  0.1448 -0.5624  0.9294
 7473TIP3   OH243909   0.060   5.287  12.793 -0.3043 -0.2230  0.3675
 7473TIP3    H143910   0.011   5.219  12.840 -1.1646  0.9875  1.2900
 7473TIP3    H243911   0.023   5.370  12.826  0.2164  0.6871 -1.2365
 7474TIP3   OH243912   3.530   0.134   6.150  0.1958  0.1554  0.2511
 7474TIP3    H143913   3.436   0.118   6.161  0.0122  0.6397 -0.5013
 7474TIP3    H243914   3.568   0.048   6.133 -0.0500 -0.0960  0.9689
 7475TIP3   OH243915   5.460   6.812   5.137 -0.4661  0.3039 -0.2920
 7475TIP3    H143916   5.493   6.725   5.160  0.8063  1.2559  1.7898
 7475TIP3    H243917   5.423   6.845   5.218 -0.9233  1.7190 -1.0570
 7476TIP3   OH243918   2.547   3.075   0.611  0.0911  0.8590 -0.4548
 7476TIP3    H143919   2.456   3.105   0.605 -0.0748  0.4372 -0.1045
 7476TIP3    H243920   2.542   2.992   0.658  0.6675  0.8720 -0.3616
 7477TIP3   OH243921   5.404   1.211   2.059 -0.5625 -0.0067 -0.1752
 7477TIP3    H143922   5.341   1.222   1.987  1.5559  2.6196 -1.7976
 7477TIP3    H243923   5.482   1.258   2.030  0.6210  0.6923  3.6262
 7478TIP3   OH243924   1.448   0.598   5.470 -0.0999  0.2083 -0.0514
 7478TIP3    H143925   1.421   0.644   5.390 -1.2737  0.3084  0.3925
 7478TIP3    H243926   1.498   0.523   5.438  1.0427  1.2558 -0.8146
 7479TIP3   OH243927   2.268   2.817  11.005 -0.8833 -0.2303  0.0808
 7479TIP3    H143928   2.347   2.862  10.976  0.7231 -2.0213  1.4554
 7479TIP3    H243929   2.270   2.733  10.959 -2.2903 -0.1129 -0.2521
 7480TIP3   OH243930   0.496   0.409   0.934 -0.3516 -0.7619 -0.3290
 7480TIP3    H143931   0.410   0.366   0.935 -0.1068 -1.2807  0.8099
 7480TIP3    H243932   0.554   0.346   0.976  0.0734  0.5694  1.1853
 7481TIP3   OH243933   6.710   2.341  16.749 -0.1648  0.4631 -1.0671
 7481TIP3    H143934   6.668   2.325  16.664 -1.6602 -1.6750 -0.0161
 7481TIP3    H243935   6.702   2.436  16.761 -2.7546  0.4447 -1.9682
 7482TIP3   OH243936   4.187   6.317  13.151  0.0453 -0.5191 -0.4817
 7482TIP3    H143937   4.096   6.305  13.123 -0.5799 -1.0926  1.6005
 7482TIP3    H243938   4.182   6.319  13.246  2.3256 -1.4923 -0.2933
 7483TIP3   OH243939   4.567   3.526   2.651 -0.3178 -0.2734 -0.1878
 7483TIP3    H143940   4.607   3.613   2.647  1.1419 -0.9193 -0.1516
 7483TIP3    H243941   4.630   3.472   2.699 -1.3276 -1.2957  0.0431
 7484TIP3   OH243942   4.806   1.636  13.281 -0.3457 -0.2287  0.3949
 7484TIP3    H143943   4.749   1.601  13.213 -0.0775  0.1149 -0.0149
 7484TIP3    H243944   4.820   1.727  13.255 -0.0998 -0.1430  0.8213
 7485TIP3   OH243945   1.773   4.073  10.333  0.0711  0.0659 -0.1130
 7485TIP3    H143946   1.854   4.119  10.311  0.8056 -0.6223  0.9841
 7485TIP3    H243947   1.763   4.008  10.263  0.4785  0.1537 -0.2574
 7486TIP3   OH243948   4.165   5.385   1.120 -0.6057 -0.2698  0.6523
 7486TIP3    H143949   4.080   5.361   1.156 -0.0648 -4.0896 -0.1673
 7486TIP3    H243950   4.222   5.391   1.196 -0.8588 -1.5999  0.9761
 7487TIP3   OH243951   1.923   3.116  13.845  0.0373  0.4981 -0.3552
 7487TIP3    H143952   1.914   3.160  13.930 -0.4998  0.0328 -0.1583
 7487TIP3    H243953   2.000   3.156  13.805 -0.2457  1.3854 -0.0468
 7488TIP3   OH243954   4.787   4.996  14.236  0.1824  0.1847  0.0489
 7488TIP3    H143955   4.691   4.994  14.237  0.1835  0.2838  0.9234
 7488TIP3    H243956   4.812   4.977  14.326  1.0189 -1.7092 -0.5184
 7489TIP3   OH243957   6.288   5.756  16.276  0.2958  0.0051 -0.5839
 7489TIP3    H143958   6.354   5.706  16.228 -0.6244 -2.5295  0.6176
 7489TIP3    H243959   6.317   5.753  16.367 -1.2022 -0.8211 -0.0898
 7490TIP3   OH243960   6.762   6.413  16.226  0.2885 -0.0114 -0.8445
 7490TIP3    H143961   6.812   6.482  16.270 -1.3697  0.5592  0.2049
 7490TIP3    H243962   6.770   6.337  16.283 -1.6383  0.6515  0.3732
 7491TIP3   OH243963   2.676   5.208   4.498 -0.0058  0.2575  0.3247
 7491TIP3    H143964   2.674   5.284   4.556 -0.2780 -0.1660  0.8727
 7491TIP3    H243965   2.768   5.197   4.476  0.2863 -0.4416  1.8174
 7492TIP3   OH243966   1.498   0.608   1.260  0.6425 -0.2139  0.2949
 7492TIP3    H143967   1.460   0.695   1.274 -1.5044 -0.8423 -1.0896
 7492TIP3    H243968   1.586   0.626   1.227  0.8859  1.3715  1.6647
 7493TIP3   OH243969   3.447   4.031  13.963  0.7643 -0.1996  0.0031
 7493TIP3    H143970   3.361   4.035  14.004  1.2123 -0.3337  0.9753
 7493TIP3    H243971   3.469   4.122  13.942 -0.3435 -0.3039 -1.8473
 7494TIP3   OH243972   0.553   3.780  16.283 -0.1559 -0.5487  0.4871
 7494TIP3    H143973   0.581   3.787  16.374 -1.8514  0.2048  0.9913
 7494TIP3    H243974   0.464   3.815  16.282 -0.5352 -1.4146 -1.2933
 7495TIP3   OH243975   1.524   2.688  11.682  0.4094  0.2339 -0.0196
 7495TIP3    H143976   1.580   2.741  11.738 -0.1193 -0.2128  0.9483
 7495TIP3    H243977   1.537   2.724  11.594  3.1899 -0.6438 -0.0720
 7496TIP3   OH243978   0.575   0.998  13.003 -0.3000  0.1548  0.1835
 7496TIP3    H143979   0.634   1.048  13.059 -2.4056  2.1355  0.7703
 7496TIP3    H243980   0.549   0.923  13.057  0.3615  0.1803  0.5431
 7497TIP3   OH243981   5.445   6.434   4.510  0.2206 -0.5321  0.0222
 7497TIP3    H143982   5.383   6.389   4.568  1.0531 -2.0087 -0.1957
 7497TIP3    H243983   5.447   6.380   4.431  0.2774  0.6124 -0.7799
 7498TIP3   OH243984   1.538   0.799  13.665 -0.4563 -0.2521 -0.0400
 7498TIP3    H143985   1.597   0.740  13.713 -1.1502 -1.4065 -0.5511
 7498TIP3    H243986   1.581   0.810  13.580  0.0982  0.7005  0.3458
 7499TIP3   OH243987   6.419   2.434  13.085 -0.8046 -0.0510 -0.5224
 7499TIP3    H143988   6.510   2.465  13.085 -1.2991  1.5507 -1.6050
 7499TIP3    H243989   6.395   2.431  13.178  0.1731  0.0549 -0.2487
 7500TIP3   OH243990   5.829   0.843  14.727  0.2211  0.1209  0.4812
 7500TIP3    H143991   5.858   0.827  14.817 -0.5321  0.4755  0.7934
 7500TIP3    H243992   5.863   0.930  14.707  2.1967 -0.7845 -0.3413
 7501TIP3   OH243993   2.477   5.431  10.963 -0.0404  0.5721 -0.4211
 7501TIP3    H143994   2.445   5.522  10.966 -0.3113  0.5145 -1.4206
 7501TIP3    H243995   2.408   5.383  10.917  0.1800 -0.1154 -0.0369
 7502TIP3   OH243996   6.240   6.116   2.383  0.1879 -0.5052 -0.9815
 7502TIP3    H143997   6.271   6.188   2.438  0.7937 -1.0298 -0.6281
 7502TIP3    H243998   6.273   6.137   2.296 -0.4196  0.1112 -1.0744
 7503TIP3   OH243999   1.122   6.267  16.732 -0.8970 -0.0088  0.3248
 7503TIP3    H144000   1.064   6.327  16.778 -0.5346  0.3782  0.2851
 7503TIP3    H244001   1.068   6.233  16.660 -0.8551  0.9259 -0.1691
 7504TIP3   OH244002   6.762   0.044  12.962 -0.0678  0.2616  0.6536
 7504TIP3    H144003   6.814   0.065  13.039  1.1183 -2.7754  0.8026
 7504TIP3    H244004   6.826   0.014  12.897 -1.3218 -0.4393 -0.3152
 7505TIP3   OH244005   5.133   0.016  12.342  0.4214 -0.1928  0.1997
 7505TIP3    H144006   5.163  -0.074  12.329  2.1060  0.2591  0.6912
 7505TIP3    H244007   5.210   0.070  12.321 -0.4922  1.1194  0.1394
 7506TIP3   OH244008   6.430   3.230   4.633 -0.0884 -0.2037 -1.1611
 7506TIP3    H144009   6.433   3.323   4.654 -0.5215 -0.6020  0.8537
 7506TIP3    H244010   6.520   3.208   4.611  0.9421 -0.0781  2.2820
 7507TIP3   OH244011   2.978   3.742  10.844  0.4315  0.0475 -0.4769
 7507TIP3    H144012   3.058   3.689  10.835  0.4039  0.2081 -1.9957
 7507TIP3    H244013   2.996   3.822  10.795  0.6389  1.7390  2.1762
 7508TIP3   OH244014   2.743   0.251  16.118 -0.3034  0.0772 -0.7446
 7508TIP3    H144015   2.701   0.330  16.153 -0.7815 -0.8564  0.9442
 7508TIP3    H244016   2.714   0.247  16.027 -2.3996  0.5106 -0.1677
 7509TIP3   OH244017   5.971   1.660   0.207 -0.3189 -0.0587 -0.3972
 7509TIP3    H144018   5.994   1.621   0.123  2.4186  0.9967 -0.2201
 7509TIP3    H244019   5.974   1.587   0.269  1.2242 -0.2476 -0.6549
 7510TIP3   OH244020   5.312   1.861   0.460  0.1539  0.0990  0.2607
 7510TIP3    H144021   5.360   1.832   0.538 -0.9557  0.4613  1.1060
 7510TIP3    H244022   5.244   1.919   0.494  0.2159  1.0046 -1.0791
 7511TIP3   OH244023   5.843   6.578   1.318 -0.1654 -0.0482  0.4130
 7511TIP3    H144024   5.928   6.550   1.284 -0.2566  0.7779 -0.5098
 7511TIP3    H244025   5.865   6.629   1.397  0.2173  0.4089  0.0186
 7512TIP3   OH244026   3.009   2.830   4.041  0.2295  0.5251 -0.1199
 7512TIP3    H144027   2.916   2.823   4.063  0.6215 -0.4560  1.4426
 7512TIP3    H244028   3.040   2.907   4.090  0.4935  0.0768  0.4344
 7513TIP3   OH244029   2.309   2.231  10.877 -0.3124 -0.6230 -0.3643
 7513TIP3    H144030   2.265   2.260  10.797  1.0639  2.6485 -0.1023
 7513TIP3    H244031   2.402   2.239  10.856  0.0766 -1.0826  1.1056
 7514TIP3   OH244032   0.147   3.337   5.376  0.6021  0.6276 -0.0404
 7514TIP3    H144033   0.144   3.326   5.471 -1.2050 -1.5288 -0.2569
 7514TIP3    H244034   0.237   3.314   5.352  1.4710  2.5264  1.2236
 7515TIP3   OH244035   2.262   2.545   3.568  0.4842  0.0687 -0.2792
 7515TIP3    H144036   2.236   2.623   3.518  0.5379  1.2947  1.4789
 7515TIP3    H244037   2.348   2.568   3.605  0.6789 -0.9885 -0.0470
 7516TIP3   OH244038   1.060   2.427   2.350 -0.8932  0.0131  0.4922
 7516TIP3    H144039   1.021   2.500   2.398 -1.5305 -1.1233  1.7703
 7516TIP3    H244040   1.152   2.452   2.339 -1.8160  2.8559 -2.7830
 7517TIP3   OH244041   3.397   1.112   4.325 -0.3260  0.1553  0.0296
 7517TIP3    H144042   3.330   1.180   4.324 -0.5309 -0.0478 -0.0855
 7517TIP3    H244043   3.480   1.160   4.327 -0.4565  0.4108 -0.5557
 7518TIP3   OH244044   2.422   0.333  13.730 -0.0124 -0.5239 -0.4398
 7518TIP3    H144045   2.494   0.377  13.775 -0.0408 -0.7176 -0.2094
 7518TIP3    H244046   2.465   0.265  13.677  0.3660  1.5942 -3.0901
 7519TIP3   OH244047   3.159   3.367  11.447 -0.2718 -0.4591 -0.0183
 7519TIP3    H144048   3.106   3.325  11.379  2.2943 -0.6482 -2.0508
 7519TIP3    H244049   3.219   3.425  11.399  1.0515  0.1080  2.1698
 7520TIP3   OH244050   1.202   6.179  12.109  0.2801  0.3736  0.3418
 7520TIP3    H144051   1.226   6.087  12.116  2.1344  0.4100 -3.1177
 7520TIP3    H244052   1.265   6.225  12.164 -0.4852 -0.3483  1.8636
 7521TIP3   OH244053   2.360   1.021   6.235 -0.4010  0.1094 -0.6599
 7521TIP3    H144054   2.382   1.099   6.184 -2.4482  0.4676 -1.0691
 7521TIP3    H244055   2.347   1.054   6.324  1.8570 -0.3117 -0.1122
 7522TIP3   OH244056   2.883   1.041  11.913 -0.0567  0.3924 -0.2748
 7522TIP3    H144057   2.972   1.062  11.943  1.0514 -0.9804 -2.4124
 7522TIP3    H244058   2.891   0.957  11.869 -1.7514  1.6866 -3.3635
 7523TIP3   OH244059   0.957   4.394  11.134 -0.2922  0.2439  0.2718
 7523TIP3    H144060   0.965   4.398  11.039  0.1099  1.6263  0.3338
 7523TIP3    H244061   1.006   4.317  11.160 -0.8088 -0.4273 -0.6697
 7524TIP3   OH244062   1.726   3.209  13.233  0.2255 -0.6276 -0.1563
 7524TIP3    H144063   1.820   3.194  13.224  0.3844 -0.0436  0.4155
 7524TIP3    H244064   1.705   3.176  13.321  0.6996  2.7073  1.3832
 7525TIP3   OH244065   2.043   4.235  14.323  0.0427  0.1915  0.9461
 7525TIP3    H144066   2.100   4.158  14.320  1.2563  1.0736 -1.0926
 7525TIP3    H244067   1.955   4.200  14.332  0.3368 -1.6241 -2.0001
 7526TIP3   OH244068   3.066   6.047  16.089 -0.7154 -0.2108 -0.2392
 7526TIP3    H144069   3.103   6.135  16.095 -0.0946 -0.4715 -0.1732
 7526TIP3    H244070   2.997   6.045  16.154 -0.0081 -0.1182  0.5355
 7527TIP3   OH244071   0.438   2.882  10.748 -0.4571  0.1058  0.0570
 7527TIP3    H144072   0.358   2.892  10.801 -0.7070 -1.3562  0.0178
 7527TIP3    H244073   0.495   2.953  10.776 -1.4280  0.6354  0.7454
 7528TIP3   OH244074   0.671   0.799   5.808 -0.6054  0.0093 -0.5022
 7528TIP3    H144075   0.637   0.876   5.762 -0.0963  1.0715  0.8511
 7528TIP3    H244076   0.611   0.787   5.882  0.5280  0.4117  0.5044
 7529TIP3   OH244077   3.825   1.594  16.201  0.1457 -0.0750  0.1880
 7529TIP3    H144078   3.755   1.658  16.186 -0.5209 -0.1705  2.4711
 7529TIP3    H244079   3.889   1.641  16.254  0.3793 -0.8404  0.5991
 7530TIP3   OH244080   1.930   2.128   3.770 -0.1802 -0.5926 -0.2082
 7530TIP3    H144081   1.863   2.081   3.720 -0.4591 -0.6820  0.2518
 7530TIP3    H244082   1.913   2.221   3.752  0.2797 -0.6521 -0.9984
 7531TIP3   OH244083   2.281   1.278   2.754 -0.2020  0.2209  0.1590
 7531TIP3    H144084   2.198   1.243   2.785 -0.8356  1.6581  0.1594
 7531TIP3    H244085   2.329   1.300   2.834  0.4682 -1.1889  0.1734
 7532TIP3   OH244086   1.749   1.266   2.783 -0.3348 -0.1716 -0.6116
 7532TIP3    H144087   1.759   1.248   2.690  2.1897 -0.4444 -0.3573
 7532TIP3    H244088   1.765   1.360   2.792  0.3186 -0.2972 -0.3806
 7533TIP3   OH244089   0.831   4.038   1.122  0.8468 -0.0715  0.2586
 7533TIP3    H144090   0.896   4.106   1.104 -0.5047  0.5974 -2.8006
 7533TIP3    H244091   0.761   4.083   1.170  0.9077  0.1699  0.1210
 7534TIP3   OH244092   4.512   4.909  14.336  0.0431 -0.2497 -0.0968
 7534TIP3    H144093   4.544   4.880  14.422 -1.6863 -2.0789  0.0242
 7534TIP3    H244094   4.431   4.956  14.356 -0.2418 -0.4745 -0.6985
 7535TIP3   OH244095   0.005   3.109   3.774 -0.6671  0.1383  0.4079
 7535TIP3    H144096  -0.036   3.171   3.834 -0.6991 -0.1768  0.7163
 7535TIP3    H244097   0.090   3.147   3.754 -1.2530  0.9960 -0.5467
 7536TIP3   OH244098   3.208   5.013  10.670 -0.0373  0.5949 -0.3877
 7536TIP3    H144099   3.199   4.951  10.598  0.9359  1.3576 -1.2017
 7536TIP3    H244100   3.258   4.966  10.737  0.5630  0.4465 -0.9318
 7537TIP3   OH244101   1.657   1.706  13.776 -0.3059  0.2646 -0.1523
 7537TIP3    H144102   1.563   1.697  13.796 -0.0155 -1.6224  0.5862
 7537TIP3    H244103   1.664   1.685  13.683 -0.6188  0.4052 -0.2097
 7538TIP3   OH244104   5.269   3.510  15.978  0.3775  0.4518 -0.1115
 7538TIP3    H144105   5.360   3.498  15.951 -0.0780  0.0741 -1.5266
 7538TIP3    H244106   5.259   3.606  15.982  0.7874  0.4991 -0.0689
 7539TIP3   OH244107   0.799   1.387  11.751 -0.5063  0.4329 -0.0875
 7539TIP3    H144108   0.877   1.438  11.732  0.1355 -0.8930 -1.1626
 7539TIP3    H244109   0.743   1.398  11.673 -0.3845 -0.4358 -0.3054
 7540TIP3   OH244110   5.074   0.516  12.294 -0.9884 -1.1985  0.4095
 7540TIP3    H144111   5.013   0.565  12.349  0.0681  0.8223 -0.1221
 7540TIP3    H244112   5.153   0.509  12.346  0.1688  1.0940 -0.8470
 7541TIP3   OH244113   2.589   3.900   4.966 -0.1357  0.1985  0.3004
 7541TIP3    H144114   2.612   3.843   5.040  1.6272  1.5936  0.8931
 7541TIP3    H244115   2.597   3.989   5.001 -0.6201  0.8732 -1.2186
 7542TIP3   OH244116   3.575   6.152   3.560 -0.8509 -0.7387  0.8847
 7542TIP3    H144117   3.581   6.133   3.653 -0.0687 -0.9280  0.7967
 7542TIP3    H244118   3.664   6.177   3.534 -1.3150  0.5924  0.4675
 7543TIP3   OH244119   4.186   5.167  12.021  0.0536 -0.1015 -0.0663
 7543TIP3    H144120   4.226   5.232  11.964 -0.4069  0.4811  0.2695
 7543TIP3    H244121   4.257   5.138  12.079  0.0553  0.7560  0.3726
 7544TIP3   OH244122   6.165   4.760   3.391 -0.1705 -0.5272 -0.4051
 7544TIP3    H144123   6.111   4.803   3.325 -0.5517 -0.5377 -0.1002
 7544TIP3    H244124   6.227   4.828   3.418 -1.5788  0.2596  0.9993
 7545TIP3   OH244125   1.591   4.290   3.894 -0.2426 -0.4360 -0.0662
 7545TIP3    H144126   1.560   4.200   3.901 -1.2385 -0.1667 -0.7573
 7545TIP3    H244127   1.666   4.286   3.834 -1.3024 -0.5962 -1.4134
 7546TIP3   OH244128   1.494   3.850  12.093 -0.5138 -0.2777 -0.3089
 7546TIP3    H144129   1.451   3.788  12.152  0.2342 -0.1169  0.4297
 7546TIP3    H244130   1.588   3.830  12.101 -0.3212  0.4717 -0.5987
 7547TIP3   OH244131   4.948   3.937  12.018 -0.5730  0.2381  0.0074
 7547TIP3    H144132   5.013   4.005  12.001 -0.9036  0.3272 -0.9878
 7547TIP3    H244133   4.916   3.912  11.931  0.6850 -2.3703  0.1952
 7548TIP3   OH244134   0.905   2.802  17.071  0.4207  0.4418 -0.1960
 7548TIP3    H144135   0.935   2.713  17.089 -0.4557  0.3076  0.6968
 7548TIP3    H244136   0.853   2.794  16.990  0.5553  0.1868 -0.2571
 7549TIP3   OH244137   6.775   3.986   3.412 -0.7275 -0.6624 -0.3371
 7549TIP3    H144138   6.722   4.065   3.401 -1.2009 -0.7577  1.0450
 7549TIP3    H244139   6.802   3.963   3.323  0.6655  1.8805 -0.6819
 7550TIP3   OH244140   4.004   2.073   1.908 -0.4730  0.4642  0.1408
 7550TIP3    H144141   4.020   1.992   1.957  0.5571 -1.0474 -2.4940
 7550TIP3    H244142   4.017   2.143   1.973  1.6855 -1.3394  1.8284
 7551TIP3   OH244143   2.663   0.161  15.844 -0.0891  0.2450 -0.6779
 7551TIP3    H144144   2.714   0.082  15.829  0.9974  0.1405  2.7783
 7551TIP3    H244145   2.705   0.228  15.790  1.8468 -0.5423 -0.2165
 7552TIP3   OH244146   1.495   2.852   2.106 -0.8551 -0.0907 -0.5072
 7552TIP3    H144147   1.501   2.936   2.152  0.5318 -1.1791  1.4447
 7552TIP3    H244148   1.403   2.828   2.111 -2.0405  2.7457 -4.0415
 7553TIP3   OH244149   4.559   2.819  11.509  0.2677  0.1150 -0.1866
 7553TIP3    H144150   4.602   2.805  11.425 -0.3509 -2.0789 -0.1992
 7553TIP3    H244151   4.582   2.742  11.561 -0.6147  0.6843  1.1089
 7554TIP3   OH244152   0.271   5.552  15.159 -0.3446  0.5319 -0.5788
 7554TIP3    H144153   0.264   5.468  15.112 -1.2396  0.4970 -0.3947
 7554TIP3    H244154   0.349   5.593  15.122  0.9964 -1.0244  0.3675
 7555TIP3   OH244155   5.719   1.871   1.390 -0.2223  0.0715  0.2600
 7555TIP3    H144156   5.667   1.931   1.335 -0.1921  0.1765  0.3466
 7555TIP3    H244157   5.667   1.860   1.469  0.3627  0.9786  0.7763
 7556TIP3   OH244158   1.443   0.070   1.543  0.2416  0.3706  0.3610
 7556TIP3    H144159   1.514   0.083   1.480  1.0521 -0.8860  0.9768
 7556TIP3    H244160   1.376   0.024   1.494 -0.2522  1.6960 -0.2675
 7557TIP3   OH244161   3.394   1.928  10.524 -0.0072  0.0411  0.2591
 7557TIP3    H144162   3.434   1.960  10.443 -2.2822 -0.7102 -1.2673
 7557TIP3    H244163   3.433   1.981  10.593  1.8855  0.8409 -1.3342
 7558TIP3   OH244164   6.676   4.267   3.280  0.2984 -0.0382  0.0393
 7558TIP3    H144165   6.696   4.360   3.278 -1.4132  0.3431 -1.5384
 7558TIP3    H244166   6.659   4.248   3.373 -0.2259  1.4263  0.2590
 7559TIP3   OH244167   1.034   3.159  14.968 -0.0644  0.4551  0.0624
 7559TIP3    H144168   1.024   3.248  14.935 -3.2345  0.2583  0.1420
 7559TIP3    H244169   0.944   3.129  14.984  0.9333 -2.3901  1.0555
 7560TIP3   OH244170   4.151   0.396  16.681  0.2152  0.4303  0.1321
 7560TIP3    H144171   4.181   0.437  16.762 -1.5653  0.1677  0.9647
 7560TIP3    H244172   4.187   0.307  16.684 -1.3554 -0.2115  1.6012
 7561TIP3   OH244173   3.256   1.161   3.726 -0.2445 -0.1941  0.0451
 7561TIP3    H144174   3.172   1.148   3.682 -1.4215  1.8888  1.4915
 7561TIP3    H244175   3.234   1.164   3.819  1.6523 -0.9036  0.5601
 7562TIP3   OH244176   4.248   1.354  16.612 -0.0452  0.3906  0.1867
 7562TIP3    H144177   4.332   1.324  16.649 -0.4107 -1.0130 -0.0698
 7562TIP3    H244178   4.192   1.366  16.689  0.1576  0.5814  0.3068
 7563TIP3   OH244179   6.645   3.324   0.537  0.4823 -0.1132  0.0336
 7563TIP3    H144180   6.590   3.342   0.614  0.4797  2.2427 -0.4608
 7563TIP3    H244181   6.582   3.302   0.468  0.2918  0.5644 -0.0113
 7564TIP3   OH244182   1.858   1.367   5.336  0.4108  0.1767 -0.5319
 7564TIP3    H144183   1.918   1.300   5.369  1.0256  1.9586  2.2886
 7564TIP3    H244184   1.779   1.319   5.314  2.5780 -2.2453 -4.1886
 7565TIP3   OH244185   4.594   2.480  15.333  0.5897  0.3756 -0.5387
 7565TIP3    H144186   4.534   2.424  15.384  0.4898 -2.0275 -3.0378
 7565TIP3    H244187   4.551   2.490  15.248  1.8423  2.1913 -1.0256
 7566TIP3   OH244188   2.241   5.687  10.494 -0.4853  0.5129 -0.1576
 7566TIP3    H144189   2.328   5.727  10.490  0.3295 -1.1682  0.0863
 7566TIP3    H244190   2.229   5.645  10.408 -0.4045 -0.5280  0.3254
 7567TIP3   OH244191   0.513   5.913  13.329 -0.2093 -0.3814  0.6392
 7567TIP3    H144192   0.419   5.919  13.346 -0.2374 -1.5530  0.9891
 7567TIP3    H244193   0.554   5.913  13.415  0.0757 -0.3429  0.5076
 7568TIP3   OH244194   4.604   3.720  13.976  0.7329 -0.0797  0.1350
 7568TIP3    H144195   4.667   3.782  13.939 -0.3547 -0.1591 -2.0570
 7568TIP3    H244196   4.582   3.662  13.903  0.2332 -1.8292  1.6014
 7569TIP3   OH244197   0.312   2.938  16.398 -0.0331  0.6305 -0.0759
 7569TIP3    H144198   0.353   2.859  16.363 -0.4912  0.7243 -0.8391
 7569TIP3    H244199   0.218   2.924  16.384 -0.3519  0.2124  2.0567
 7570TIP3   OH244200   6.122   5.365  15.328  0.5849  0.3347 -0.3210
 7570TIP3    H144201   6.161   5.327  15.249  2.5416 -1.2644  1.3012
 7570TIP3    H244202   6.190   5.423  15.363 -0.5377  1.6034 -0.1458
 7571TIP3   OH244203   0.439   6.340  13.466  0.4284 -0.5428  0.2008
 7571TIP3    H144204   0.430   6.279  13.539  0.2346 -0.1790  0.4894
 7571TIP3    H244205   0.373   6.311  13.402 -0.0983 -0.2632  0.6077
 7572TIP3   OH244206   4.856   6.492  15.482  0.2974  0.7275 -0.1542
 7572TIP3    H144207   4.809   6.475  15.563  2.1926  0.3540  0.9409
 7572TIP3    H244208   4.949   6.488  15.507  0.9744  3.6484 -1.6899
 7573TIP3   OH244209   3.182   1.490   2.073  0.3180  0.0612 -0.6756
 7573TIP3    H144210   3.110   1.544   2.106  0.1669  0.9838 -2.4094
 7573TIP3    H244211   3.142   1.405   2.055 -0.2480  0.4313 -1.1999
 7574TIP3   OH244212   4.360   1.172  16.996  0.2539  0.2322 -0.0951
 7574TIP3    H144213   4.440   1.123  17.018  1.8923  2.5109 -0.6408
 7574TIP3    H244214   4.296   1.104  16.974  1.6160 -1.7388  1.5884
 7575TIP3   OH244215   2.183   1.340  16.587 -0.5078  0.1401 -0.2429
 7575TIP3    H144216   2.224   1.324  16.502  0.5662 -1.1135  0.4755
 7575TIP3    H244217   2.144   1.427  16.579  0.2974  0.3947 -1.7375
 7576TIP3   OH244218   1.430   5.731   0.400 -0.8276 -0.0373 -0.1759
 7576TIP3    H144219   1.340   5.700   0.390 -0.5072 -1.1346  0.2196
 7576TIP3    H244220   1.455   5.757   0.312 -1.2322 -0.5979 -0.4712
 7577TIP3   OH244221   1.281   3.417  11.799  0.6708  0.0802  0.2434
 7577TIP3    H144222   1.187   3.398  11.805  0.5710  0.6823  0.6433
 7577TIP3    H244223   1.302   3.460  11.882  0.9734  1.3381 -0.4688
 7578TIP3   OH244224   2.695   6.565   1.152 -0.3206 -0.0627 -0.0717
 7578TIP3    H144225   2.790   6.564   1.138 -0.2496 -1.0232  0.3358
 7578TIP3    H244226   2.662   6.497   1.092 -0.7822  0.4494 -0.4014
 7579TIP3   OH244227   4.532   4.251   0.204  0.4464  0.2414  0.0168
 7579TIP3    H144228   4.545   4.170   0.153  0.5991 -0.8143  1.6635
 7579TIP3    H244229   4.444   4.241   0.241  0.5875  0.7078  0.4788
 7580TIP3   OH244230   4.849   6.174  12.703 -0.2485 -0.2294 -0.3401
 7580TIP3    H144231   4.822   6.090  12.739  2.0142 -0.2958  1.4135
 7580TIP3    H244232   4.898   6.153  12.624  0.9976 -0.6736  0.5211
 7581TIP3   OH244233   3.343   1.341   2.430 -0.2428 -0.1760 -0.3139
 7581TIP3    H144234   3.431   1.336   2.393 -0.8735  0.5331 -1.9821
 7581TIP3    H244235   3.289   1.290   2.371 -1.2127  0.6331 -0.1467
 7582TIP3   OH244236   3.081   3.918   3.410 -0.2777  0.2451 -0.1589
 7582TIP3    H144237   3.030   3.959   3.481 -1.6537  1.2406 -1.6429
 7582TIP3    H244238   3.168   3.905   3.448 -0.2490  2.9970  0.9679
 7583TIP3   OH244239   3.332   6.476  12.813 -0.1280  0.5886 -0.9192
 7583TIP3    H144240   3.298   6.534  12.881  0.3488  0.4387 -0.5447
 7583TIP3    H244241   3.386   6.412  12.861 -1.0607 -0.4879 -1.2468
 7584TIP3   OH244242   2.204   2.023   3.271  0.0361 -0.0364 -0.2092
 7584TIP3    H144243   2.275   2.084   3.293  1.5588 -2.0445  0.7844
 7584TIP3    H244244   2.210   1.954   3.337 -2.7800 -0.3826 -0.2042
 7585TIP3   OH244245   0.528   4.048  15.964  0.8401 -0.5009 -0.2690
 7585TIP3    H144246   0.524   4.138  15.934 -0.1102 -0.9336 -1.4912
 7585TIP3    H244247   0.443   4.010  15.941  1.2237 -1.7210  0.2036
 7586TIP3   OH244248   0.526   5.364   3.552  0.4364  0.3085 -0.0650
 7586TIP3    H144249   0.548   5.271   3.556  1.2446  0.3224 -2.6999
 7586TIP3    H244250   0.479   5.375   3.470  1.7164  2.4551 -0.6104
 7587TIP3   OH244251   6.507   1.224   2.128  0.0728  0.7241  0.9097
 7587TIP3    H144252   6.553   1.152   2.086 -2.9711 -0.5178 -0.5960
 7587TIP3    H244253   6.477   1.188   2.212  2.0238  1.6439  2.0555
 7588TIP3   OH244254   2.811   5.831   1.185 -0.2310 -0.3529  0.3596
 7588TIP3    H144255   2.721   5.812   1.209 -0.2287  0.3109  0.9510
 7588TIP3    H244256   2.852   5.746   1.171 -1.3833 -0.6384 -1.6175
 7589TIP3   OH244257   3.601   2.569  11.240  0.2103 -0.5058 -0.2143
 7589TIP3    H144258   3.568   2.575  11.151  0.5335 -0.9184 -0.3642
 7589TIP3    H244259   3.529   2.529  11.290 -0.7382  1.5177  0.1363
 7590TIP3   OH244260   5.125   1.934  13.436  0.0890 -0.9624 -0.6868
 7590TIP3    H144261   5.134   1.921  13.342 -1.7390  0.1263 -1.0514
 7590TIP3    H244262   5.056   2.000  13.445  0.7316 -0.4910  1.3938
 7591TIP3   OH244263   2.384   5.836   4.984  0.0684  0.3908  0.1959
 7591TIP3    H144264   2.452   5.770   4.974  0.6116  0.6329  1.9923
 7591TIP3    H244265   2.419   5.914   4.940  0.9518  0.4974  1.0560
 7592TIP3   OH244266   0.942   1.262  15.157  0.7586  1.1040 -0.8247
 7592TIP3    H144267   0.870   1.213  15.115 -0.2459  2.3675 -0.6554
 7592TIP3    H244268   0.908   1.283  15.244  2.4584 -0.6693  0.3281
 7593TIP3   OH244269   6.346   5.749  14.171  0.2656 -0.0465 -0.5021
 7593TIP3    H144270   6.357   5.810  14.098  0.5465 -0.9261 -1.2153
 7593TIP3    H244271   6.254   5.721  14.166  0.0262  0.6264  0.0767
 7594TIP3   OH244272   1.631   6.593  13.977  0.5893 -0.2668 -0.2062
 7594TIP3    H144273   1.562   6.643  13.935 -0.0063 -0.0335  1.0082
 7594TIP3    H244274   1.668   6.652  14.043  0.8897 -0.9049  0.2184
 7595TIP3   OH244275   5.971   3.349  11.901  0.2078 -0.1354  0.2913
 7595TIP3    H144276   5.971   3.429  11.954  0.1159 -1.0144  1.6677
 7595TIP3    H244277   6.014   3.374  11.820  0.0332  1.3515  0.6347
 7596TIP3   OH244278   0.096   1.984  14.779  0.1534 -0.0342  0.4229
 7596TIP3    H144279   0.182   2.025  14.764 -0.3767  0.0968 -3.0163
 7596TIP3    H244280   0.105   1.896  14.742 -1.2619  0.0728 -0.2106
 7597TIP3   OH244281   2.159   5.274   4.643  0.4310  0.2812 -0.0222
 7597TIP3    H144282   2.204   5.300   4.562 -1.2902  1.7218 -0.5645
 7597TIP3    H244283   2.204   5.324   4.711  1.6077 -0.6125 -0.1000
 7598TIP3   OH244284   3.656   4.944  15.950  0.3281  0.3113 -0.3950
 7598TIP3    H144285   3.608   4.990  16.019  1.0417  1.1228 -0.4153
 7598TIP3    H244286   3.742   4.987  15.948  0.4535  0.0449 -1.5222
 7599TIP3   OH244287   4.451   4.080   3.027  0.2509 -0.8229 -0.3946
 7599TIP3    H144288   4.504   4.055   2.951  2.4981 -1.4087  1.2864
 7599TIP3    H244289   4.499   4.047   3.103 -2.3393 -0.9992  1.2921
 7600TIP3   OH244290   0.060   2.654  14.215 -0.4879 -0.2733 -0.3239
 7600TIP3    H144291   0.071   2.740  14.256 -0.2458 -0.0888 -0.7697
 7600TIP3    H244292   0.006   2.670  14.138  0.2064 -0.3876 -0.8452
 7601TIP3   OH244293   3.239   1.085   5.488  0.1157 -0.1833 -0.1729
 7601TIP3    H144294   3.322   1.106   5.445 -0.0158  1.1752  0.2030
 7601TIP3    H244295   3.192   1.168   5.492 -0.6363 -0.6442  0.9751
 7602TIP3   OH244296   3.527   3.472  14.927  0.3158 -0.0289  0.0030
 7602TIP3    H144297   3.439   3.509  14.932 -0.1055 -1.0518  0.3711
 7602TIP3    H244298   3.540   3.454  14.834 -0.4637 -1.2200  0.0909
 7603TIP3   OH244299   1.503   6.178  12.439  0.2989  0.0586  0.0418
 7603TIP3    H144300   1.465   6.180  12.351  0.1374  0.0590  0.1108
 7603TIP3    H244301   1.550   6.095  12.443 -1.2024 -0.8100  0.5696
 7604TIP3   OH244302   4.342   1.042   0.352  0.1944  0.6264  0.1906
 7604TIP3    H144303   4.433   1.027   0.327  0.3391  0.1537  0.9834
 7604TIP3    H244304   4.322   1.129   0.318  0.9522  0.7495  0.0413
 7605TIP3   OH244305   2.204   4.833  15.977  0.1819  0.6855  0.3677
 7605TIP3    H144306   2.256   4.910  16.000 -1.0102  1.6043  0.0611
 7605TIP3    H244307   2.116   4.867  15.961  0.3426 -0.1788 -3.2838
 7606TIP3   OH244308   5.205   0.977  13.828  0.3435 -0.4160  0.8394
 7606TIP3    H144309   5.244   0.973  13.915  1.0896 -0.9926  0.4976
 7606TIP3    H244310   5.256   1.043  13.782  1.1900 -1.4244  0.2786
 7607TIP3   OH244311   6.681   3.740  14.220  0.2030  0.6807 -0.1186
 7607TIP3    H144312   6.748   3.769  14.282 -0.5703  2.1212  0.0668
 7607TIP3    H244313   6.727   3.730  14.137  0.7697  1.0525  0.1499
 7608TIP3   OH244314   0.716   3.968  10.701  1.2745 -0.1424  0.5272
 7608TIP3    H144315   0.645   4.032  10.693  1.0123 -0.4528  0.2700
 7608TIP3    H244316   0.784   4.012  10.751  0.4409 -0.2240  1.7680
 7609TIP3   OH244317   1.168   6.280  12.804 -0.2202 -0.2357 -0.6575
 7609TIP3    H144318   1.158   6.273  12.899 -0.4166  1.8546 -0.4659
 7609TIP3    H244319   1.251   6.235  12.786 -0.4755 -1.1767  0.4129
 7610TIP3   OH244320   5.024   3.812  16.245  0.0720 -0.2759  0.3241
 7610TIP3    H144321   4.979   3.845  16.322 -0.6613  1.3692 -0.7506
 7610TIP3    H244322   4.989   3.724  16.232 -1.9253  0.4744  0.2795
 7611TIP3   OH244323   6.744   5.272  15.920  0.2730 -0.1284  0.1578
 7611TIP3    H144324   6.822   5.313  15.884 -0.2855  1.0100  0.2204
 7611TIP3    H244325   6.715   5.213  15.851  0.8912 -0.1825 -0.0665
 7612TIP3   OH244326   0.661   6.641   3.822  0.1038 -0.1786 -0.1198
 7612TIP3    H144327   0.717   6.601   3.756 -0.0204 -0.8750  0.1853
 7612TIP3    H244328   0.591   6.683   3.773 -0.4591 -1.4246 -0.3988
 7613TIP3   OH244329   5.368   6.538  15.383  0.4745  0.5044  0.1351
 7613TIP3    H144330   5.442   6.483  15.408  1.2997  1.3667 -0.3373
 7613TIP3    H244331   5.301   6.521  15.450  1.6976  0.9134  1.5102
 7614TIP3   OH244332   6.031   0.765  15.671  0.6648 -0.7032  0.1064
 7614TIP3    H144333   6.007   0.837  15.613  1.3323 -0.0078  0.6839
 7614TIP3    H244334   6.124   0.750  15.654  0.2958 -2.1967 -0.8258
 7615TIP3   OH244335   2.680   2.072   2.830 -0.1382 -0.5187 -0.6640
 7615TIP3    H144336   2.720   2.058   2.916  0.8494  0.1391 -1.0008
 7615TIP3    H244337   2.591   2.104   2.850  0.3998  0.5468  0.1327
 7616TIP3   OH244338   4.752   4.298  16.426  0.0092  0.1189  0.1508
 7616TIP3    H144339   4.664   4.294  16.464  0.1444 -2.3480  0.3102
 7616TIP3    H244340   4.809   4.261  16.494  1.3362  2.3193  0.3334
 7617TIP3   OH244341   4.710   0.313  13.414  0.3793  0.1809 -0.2280
 7617TIP3    H144342   4.638   0.307  13.351 -0.5887 -1.4797  0.9662
 7617TIP3    H244343   4.766   0.383  13.380 -0.4646 -0.1879 -2.5475
 7618TIP3   OH244344   3.300   2.556  15.177  0.0769 -0.3169 -0.0092
 7618TIP3    H144345   3.380   2.564  15.126 -0.3265 -0.8255 -0.7308
 7618TIP3    H244346   3.230   2.550  15.112 -0.3576 -2.0086  0.5657
 7619TIP3   OH244347   2.462   1.760  11.226  0.6303 -0.3148  0.3893
 7619TIP3    H144348   2.410   1.694  11.273 -1.0000  0.5304 -0.1520
 7619TIP3    H244349   2.429   1.756  11.136  2.4055 -0.6027 -0.2772
 7620TIP3   OH244350   2.112   0.370  14.452 -0.0699  0.3743 -0.3403
 7620TIP3    H144351   2.078   0.453  14.419 -2.4617 -0.3081  0.2574
 7620TIP3    H244352   2.063   0.303  14.405  1.5049 -0.7403 -0.4868
 7621TIP3   OH244353   1.357   3.911   5.833 -0.2395 -0.3995 -0.2648
 7621TIP3    H144354   1.263   3.897   5.839 -0.6988  2.0349 -0.7015
 7621TIP3    H244355   1.389   3.895   5.921 -1.3637  0.4396  0.3252
 7622TIP3   OH244356   1.463   0.795   5.282 -0.2926 -0.0836 -0.4253
 7622TIP3    H144357   1.540   0.783   5.227 -0.9848 -2.2718 -1.0153
 7622TIP3    H244358   1.399   0.838   5.225 -0.0619  0.2860 -0.4134
 7623TIP3   OH244359   4.981   3.702   3.334  0.4133 -0.3031 -0.2171
 7623TIP3    H144360   4.939   3.666   3.256  0.7634  0.8636 -0.9757
 7623TIP3    H244361   4.985   3.796   3.318  1.0394 -0.1075  0.9484
 7624TIP3   OH244362   5.896   4.252   3.849 -0.1103 -0.4903 -0.1377
 7624TIP3    H144363   5.911   4.346   3.849 -0.5818 -0.4029 -1.0862
 7624TIP3    H244364   5.872   4.231   3.758 -1.4204 -1.2826  0.3628
 7625TIP3   OH244365   4.965   5.263  13.884 -0.4472  0.6814 -0.0205
 7625TIP3    H144366   5.002   5.351  13.873 -0.7582  0.8854  0.5336
 7625TIP3    H244367   4.935   5.261  13.974  0.9012 -0.5244  0.4329
 7626TIP3   OH244368   4.125   5.057  11.476  1.2494 -0.6571  0.1328
 7626TIP3    H144369   4.043   5.013  11.451  0.4190  1.2707 -0.7512
 7626TIP3    H244370   4.103   5.105  11.556  2.4509 -2.6200  1.7211
 7627TIP3   OH244371   4.105   6.154  16.399 -0.3051  0.6088  0.2640
 7627TIP3    H144372   4.116   6.138  16.493  1.2947 -1.1471 -0.1755
 7627TIP3    H244373   4.187   6.127  16.360 -1.7593 -0.9748 -1.9173
 7628TIP3   OH244374   2.093   5.372  11.683 -0.2034  0.0193 -0.4283
 7628TIP3    H144375   2.066   5.418  11.604  2.2022 -1.2631 -2.1259
 7628TIP3    H244376   2.035   5.296  11.687 -0.6445  0.3407 -0.6966
 7629TIP3   OH244377   0.523   4.009  13.811  0.2572 -0.1377  0.4919
 7629TIP3    H144378   0.439   4.015  13.856  0.5089 -0.4447  1.0276
 7629TIP3    H244379   0.530   4.090  13.760 -0.9789 -0.7499 -0.6790
 7630TIP3   OH244380   3.167   3.416  14.342  0.7849  0.1324 -0.0147
 7630TIP3    H144381   3.144   3.442  14.431 -2.1070  1.0847 -0.9305
 7630TIP3    H244382   3.169   3.320  14.345 -0.1795  0.1161  0.9153
 7631TIP3   OH244383   2.021   3.204  13.228 -0.4396 -0.4775  0.2955
 7631TIP3    H144384   2.061   3.269  13.285 -0.1381 -1.0176  0.6991
 7631TIP3    H244385   2.037   3.120  13.271 -2.2571 -0.6888  0.6312
 7632TIP3   OH244386   6.414   4.869  15.940 -0.6876  0.3350 -0.1869
 7632TIP3    H144387   6.490   4.881  15.882 -0.5354 -0.3196 -0.1235
 7632TIP3    H244388   6.412   4.949  15.992 -0.2159  0.4897 -0.3925
 7633TIP3   OH244389   4.111   2.622   4.601  0.2741 -0.6067  0.7891
 7633TIP3    H144390   4.148   2.539   4.572  1.7852  0.3521 -0.1516
 7633TIP3    H244391   4.069   2.658   4.523 -0.7035 -0.6340  1.2851
 7634TIP3   OH244392   2.712   5.174   3.956  0.4432  0.2812  0.0894
 7634TIP3    H144393   2.802   5.150   3.978  0.1400 -0.2989  0.7579
 7634TIP3    H244394   2.719   5.220   3.872  1.1911 -1.1543 -0.6765
 7635TIP3   OH244395   5.183   3.341  13.879  0.4100  0.3989  0.1943
 7635TIP3    H144396   5.151   3.431  13.880  0.2430  0.4884 -3.1126
 7635TIP3    H244397   5.163   3.309  13.791 -0.0396 -3.1090  1.4131
 7636TIP3   OH244398   1.103   4.966   2.320 -0.4747 -0.0262  0.1565
 7636TIP3    H144399   1.157   4.893   2.288 -1.0285 -0.2413 -0.2912
 7636TIP3    H244400   1.115   5.035   2.254 -0.8085 -0.1054  0.0097
 7637TIP3   OH244401   0.646   2.913  16.568 -0.3236 -0.0822 -0.1321
 7637TIP3    H144402   0.614   2.996  16.531 -2.1589 -0.4376  0.5933
 7637TIP3    H244403   0.664   2.858  16.491 -2.4793 -0.2236 -0.5822
 7638TIP3   OH244404   1.152   3.069  15.208  0.1081  0.0932 -0.4984
 7638TIP3    H144405   1.116   3.088  15.295  0.6884  0.2423 -0.2879
 7638TIP3    H244406   1.117   3.139  15.153  0.7058  0.6949 -0.1248
 7639TIP3   OH244407   1.865   5.988  11.952 -0.1742  0.2920  0.1070
 7639TIP3    H144408   1.948   6.036  11.952  0.7179 -1.2008 -0.2465
 7639TIP3    H244409   1.838   5.986  11.860 -0.3826  0.3798  0.1645
 7640TIP3   OH244410   5.759   4.236   5.416  0.3769  0.3938  0.2018
 7640TIP3    H144411   5.725   4.147   5.405 -0.8805  0.4100  3.0270
 7640TIP3    H244412   5.827   4.228   5.482 -0.8174  1.6743  1.6668
 7641TIP3   OH244413   0.377   3.492   5.593  0.4850  0.1357  0.3881
 7641TIP3    H144414   0.375   3.548   5.670 -1.3057  0.2858  0.2803
 7641TIP3    H244415   0.285   3.474   5.574  0.9657 -2.2559 -0.0238
 7642TIP3   OH244416   4.922   4.243   0.153 -0.6361  0.5623  0.0668
 7642TIP3    H144417   4.973   4.237   0.234 -1.4804 -0.6732  0.5458
 7642TIP3    H244418   4.914   4.336   0.136 -1.5592  0.9301  2.1696
 7643TIP3   OH244419   1.334   1.277  11.020 -0.4487  0.2951 -0.4451
 7643TIP3    H144420   1.398   1.207  11.035 -2.4393 -1.2250  1.5725
 7643TIP3    H244421   1.297   1.257  10.934  0.2412 -0.0820 -0.6626
 7644TIP3   OH244422   2.225   6.307   2.907 -0.2258  0.2790  0.4686
 7644TIP3    H144423   2.213   6.216   2.881 -1.8329  0.6777 -0.3209
 7644TIP3    H244424   2.160   6.321   2.975 -0.4178  0.9919  0.1514
 7645TIP3   OH244425   0.905   4.478   0.088  0.7083  0.0137 -0.0832
 7645TIP3    H144426   0.950   4.543   0.141  0.4654 -0.6066  0.9027
 7645TIP3    H244427   0.849   4.529   0.029  1.6355  0.7384 -0.3635
 7646TIP3   OH244428   3.737   5.655   0.177  1.0182  0.6504  0.3323
 7646TIP3    H144429   3.686   5.576   0.195 -1.7406  2.6779  2.4291
 7646TIP3    H244430   3.822   5.639   0.218  0.4306 -1.1390  0.9249
 7647TIP3   OH244431   4.405   4.100   5.680  0.0180  0.4670  0.7767
 7647TIP3    H144432   4.410   4.067   5.769  1.9290 -0.5899  0.3303
 7647TIP3    H244433   4.320   4.069   5.647 -1.4332  2.1970  2.6642
 7648TIP3   OH244434   5.439   3.531  16.946 -0.2531 -0.5239 -0.7114
 7648TIP3    H144435   5.376   3.591  16.906 -0.0683  0.2920  0.1850
 7648TIP3    H244436   5.521   3.546  16.898 -0.9154 -2.2810 -2.5341
 7649TIP3   OH244437   4.078   3.866  10.704  0.1753  0.1720  0.1724
 7649TIP3    H144438   4.145   3.907  10.649 -1.4413  1.6018 -0.8175
 7649TIP3    H244439   4.061   3.931  10.772 -0.0716 -0.2768  0.5426
 7650TIP3   OH244440   1.182   1.158  16.848  0.5619  0.2500  0.0545
 7650TIP3    H144441   1.257   1.112  16.886  1.5237  1.2488 -0.5856
 7650TIP3    H244442   1.220   1.221  16.787 -0.7902  0.9902 -0.0694
 7651TIP3   OH244443   2.334   1.301  15.475 -0.3076 -0.1479  0.5178
 7651TIP3    H144444   2.425   1.298  15.507 -0.0177  2.2150  0.1458
 7651TIP3    H244445   2.281   1.295  15.554  0.0533 -2.9877  0.6367
 7652TIP3   OH244446   5.920   6.429  14.109  0.3046  0.3898 -0.0788
 7652TIP3    H144447   5.952   6.504  14.159  0.4685  1.3068 -1.4940
 7652TIP3    H244448   5.983   6.418  14.038 -0.8044  0.2326 -1.0829
 7653TIP3   OH244449   5.079   4.829  11.453 -0.5202 -0.4162  0.0256
 7653TIP3    H144450   4.997   4.878  11.461 -0.6017 -0.7653  1.6626
 7653TIP3    H244451   5.120   4.863  11.373 -1.9301  0.2397 -0.4450
 7654TIP3   OH244452   3.663   0.427   0.534 -0.2740 -0.2286  0.3752
 7654TIP3    H144453   3.715   0.357   0.573 -0.1701 -0.7206 -0.6124
 7654TIP3    H244454   3.605   0.456   0.605  1.3101  0.3322  1.4883
 7655TIP3   OH244455   2.672   3.665  15.671 -0.1400 -0.0248 -0.0762
 7655TIP3    H144456   2.664   3.641  15.578  0.8845 -0.9606  0.0621
 7655TIP3    H244457   2.624   3.747  15.678 -1.1500 -0.4856 -1.2144
 7656TIP3   OH244458   6.085   2.647   6.369 -0.2105 -0.0151  0.2045
 7656TIP3    H144459   6.056   2.592   6.442 -0.8452 -2.3889 -1.6710
 7656TIP3    H244460   6.180   2.653   6.379 -0.3562  0.2855  1.5652
 7657TIP3   OH244461   3.812   2.986  15.606 -0.7687 -0.1642  0.1623
 7657TIP3    H144462   3.800   2.908  15.551 -2.5796  1.1956 -1.4774
 7657TIP3    H244463   3.907   3.001  15.605 -0.1837 -3.0405  1.6407
 7658TIP3   OH244464   0.347   6.721  11.828 -0.2710 -0.6793 -0.4833
 7658TIP3    H144465   0.310   6.792  11.776 -0.7303 -0.9227 -0.4958
 7658TIP3    H244466   0.441   6.723  11.808 -0.6234 -1.7607 -2.5875
 7659TIP3   OH244467   6.410   2.173  13.881 -0.1585 -0.0425 -0.3016
 7659TIP3    H144468   6.321   2.157  13.848  0.0452 -0.5352 -0.6227
 7659TIP3    H244469   6.455   2.089  13.870  0.8424  0.6334 -1.6984
 7660TIP3   OH244470   2.805   5.288  16.892 -0.1648 -0.0516 -0.4195
 7660TIP3    H144471   2.753   5.345  16.948 -0.7873 -1.0825  0.0773
 7660TIP3    H244472   2.895   5.318  16.904 -0.2549 -0.3625  1.2891
 7661TIP3   OH244473   4.172   6.124   5.345 -0.1045  0.2935 -0.5320
 7661TIP3    H144474   4.198   6.198   5.400  0.0083 -0.1578  0.0213
 7661TIP3    H244475   4.124   6.066   5.403 -0.1168 -0.1203 -0.9466
 7662TIP3   OH244476   2.438   0.325  17.168  0.0815 -0.4811 -0.2925
 7662TIP3    H144477   2.358   0.282  17.139 -0.6753  0.2452  0.6557
 7662TIP3    H244478   2.412   0.375  17.245  1.2182  0.6260 -0.5966
 7663TIP3   OH244479   3.244   5.520   4.646 -0.4626 -0.0758 -0.2283
 7663TIP3    H144480   3.301   5.594   4.667  0.4587 -1.0572  0.8309
 7663TIP3    H244481   3.300   5.443   4.654 -1.9368 -1.0828  0.8697
 7664TIP3   OH244482   3.202   3.684  16.960 -0.2587 -0.2103 -0.4899
 7664TIP3    H144483   3.267   3.633  16.911 -2.1346 -2.4872 -0.8056
 7664TIP3    H244484   3.172   3.749  16.897  2.1821  1.4228 -0.0890
 7665TIP3   OH244485   0.958   2.377   2.664 -0.6651  0.1943 -0.3066
 7665TIP3    H144486   1.025   2.309   2.666  1.2010  1.9321 -0.9804
 7665TIP3    H244487   0.884   2.335   2.618 -0.4508 -2.0373  1.2319
 7666TIP3   OH244488   5.110   1.400  12.617 -0.3407  0.0810 -0.2924
 7666TIP3    H144489   5.114   1.413  12.522  0.2495  1.5181 -0.0824
 7666TIP3    H244490   5.190   1.439  12.651 -0.4409 -0.6110  0.7936
 7667TIP3   OH244491   5.347   1.717  14.119  0.7782 -0.2887 -0.0419
 7667TIP3    H144492   5.421   1.712  14.179 -1.0082 -0.6415  2.2362
 7667TIP3    H244493   5.318   1.627  14.108  0.2581 -0.0896 -0.3595
 7668TIP3   OH244494   1.813   2.427  10.722  0.7249 -0.1067 -0.9381
 7668TIP3    H144495   1.872   2.497  10.748 -0.2884  0.4876 -0.1396
 7668TIP3    H244496   1.860   2.380  10.653  1.3406  1.4702 -1.6423
 7669TIP3   OH244497   6.051   6.197   4.239 -0.5566  0.1973  0.2830
 7669TIP3    H144498   6.122   6.173   4.297  1.4570  2.5238 -1.0373
 7669TIP3    H244499   6.070   6.151   4.157 -1.6616 -0.6285  0.4577
 7670TIP3   OH244500   0.257   0.992  12.427  0.2848 -0.4493  0.1512
 7670TIP3    H144501   0.349   1.010  12.449  0.8621  0.0827 -2.3992
 7670TIP3    H244502   0.213   1.076  12.441 -0.0807 -0.9236  2.2540
 7671TIP3   OH244503   1.605   2.505  12.204 -0.0458 -0.3186  0.4821
 7671TIP3    H144504   1.509   2.503  12.199 -0.0791  0.5121  0.6045
 7671TIP3    H244505   1.633   2.525  12.114  0.0504 -1.3795  0.2732
 7672TIP3   OH244506   3.648   1.054   1.463 -0.5639 -0.1293  0.1477
 7672TIP3    H144507   3.713   0.994   1.498 -2.2874 -2.6068 -0.5670
 7672TIP3    H244508   3.667   1.058   1.369 -1.4215 -0.9321 -0.0792
 7673TIP3   OH244509   5.740   6.023  15.745  0.7993  0.0718  0.0103
 7673TIP3    H144510   5.738   6.008  15.650 -0.8275 -0.8093  0.1517
 7673TIP3    H244511   5.727   6.117  15.754 -1.3084 -0.1231 -0.6131
 7674TIP3   OH244512   4.688   2.827  13.835 -0.6857  0.9641 -0.0548
 7674TIP3    H144513   4.661   2.812  13.745  1.9034 -1.5714 -0.5380
 7674TIP3    H244514   4.652   2.753  13.884  1.0082  0.2810  0.2216
 7675TIP3   OH244515   0.444   5.559  13.682 -0.3429  0.0423  1.0015
 7675TIP3    H144516   0.524   5.515  13.711  0.4948  0.0745 -1.1422
 7675TIP3    H244517   0.376   5.492  13.687  0.5500 -1.0213 -0.4660
 7676TIP3   OH244518   6.654   4.456   1.665 -0.1935  0.7526 -0.3241
 7676TIP3    H144519   6.650   4.454   1.569 -0.0755  0.7054 -0.3285
 7676TIP3    H244520   6.576   4.504   1.691 -0.4648  0.3653 -0.4216
 7677TIP3   OH244521   6.015   5.046  14.295 -0.4114 -0.4245  0.1992
 7677TIP3    H144522   5.996   4.952  14.303 -0.4948 -0.4609 -0.3536
 7677TIP3    H244523   5.948   5.079  14.235  0.8359 -0.4183 -1.2507
 7678TIP3   OH244524   1.207   4.446   2.004 -0.2265 -0.1819 -0.0285
 7678TIP3    H144525   1.149   4.383   1.962 -1.0906  0.2226  0.5189
 7678TIP3    H244526   1.201   4.524   1.949 -3.0989  1.1235  1.9248
 7679TIP3   OH244527   1.668   2.378   2.605  0.8471  0.2365  0.0978
 7679TIP3    H144528   1.754   2.351   2.571  2.0282  1.6804  1.7710
 7679TIP3    H244529   1.667   2.473   2.595 -0.1187  0.3448  1.0685
 7680TIP3   OH244530   3.214   2.182  16.754 -0.0435 -0.1887  0.1808
 7680TIP3    H144531   3.283   2.248  16.751  0.5396 -0.8275 -1.6058
 7680TIP3    H244532   3.249   2.112  16.808 -0.3123  0.5495  1.3463
 7681TIP3   OH244533   4.221   3.094  16.602 -0.1665 -0.9143  0.3050
 7681TIP3    H144534   4.265   3.097  16.517  0.2232  1.1008  0.5262
 7681TIP3    H244535   4.155   3.026  16.592  0.4465 -1.3228 -1.3182
 7682TIP3   OH244536   0.288   2.532  13.774 -0.1479  0.1991  0.1745
 7682TIP3    H144537   0.206   2.564  13.737 -0.8103  0.8535  2.1010
 7682TIP3    H244538   0.281   2.551  13.867  0.5111 -3.2762  1.0733
 7683TIP3   OH244539   4.156   3.773  14.238  0.0995  0.0982 -0.1273
 7683TIP3    H144540   4.087   3.799  14.300 -0.7618 -0.6007 -0.7607
 7683TIP3    H244541   4.110   3.762  14.155  0.8552 -1.0719 -0.4054
 7684TIP3   OH244542   2.131   4.387  14.112 -0.5266  0.6996 -0.1957
 7684TIP3    H144543   2.080   4.337  14.176 -1.2373 -0.2366 -1.4501
 7684TIP3    H244544   2.158   4.466  14.159 -0.6760 -0.1452  1.3770
 7685TIP3   OH244545   0.361   3.442   4.586 -0.0135  0.1050 -0.6477
 7685TIP3    H144546   0.315   3.503   4.644  0.9177 -0.5053  0.8036
 7685TIP3    H244547   0.416   3.497   4.531  0.3899  0.6258  0.2513
 7686TIP3   OH244548   1.945   4.072   4.281  0.2295 -0.5621 -0.1708
 7686TIP3    H144549   1.957   4.120   4.198  0.0761 -1.1191 -0.5200
 7686TIP3    H244550   1.854   4.041   4.278  0.3219 -0.8582  0.0550
 7687TIP3   OH244551   3.209   0.491   0.216  0.3823 -0.3868 -0.0628
 7687TIP3    H144552   3.192   0.469   0.124 -1.0480 -1.3256  0.3814
 7687TIP3    H244553   3.230   0.407   0.257 -2.4653 -0.6217  1.1299
 7688TIP3   OH244554   3.007   0.395  16.710  0.5142  0.2162  0.1772
 7688TIP3    H144555   2.991   0.435  16.625 -0.4115  0.1130  0.2911
 7688TIP3    H244556   2.923   0.355  16.733  0.6374  0.6125  1.3385
 7689TIP3   OH244557   1.986   2.744   2.372 -0.0429  0.1441  0.4223
 7689TIP3    H144558   1.929   2.669   2.390  1.0409 -0.8496 -0.1206
 7689TIP3    H244559   2.020   2.728   2.284 -1.4367  2.3999 -0.6152
 7690TIP3   OH244560   4.483   6.638  15.134  0.2969  0.1028 -0.8209
 7690TIP3    H144561   4.549   6.697  15.170  0.5656 -0.5937 -0.1584
 7690TIP3    H244562   4.444   6.596  15.210  0.8719 -1.3986 -1.3246
 7691TIP3   OH244563   0.062   6.716   0.294  0.3839 -0.6674 -0.3084
 7691TIP3    H144564  -0.003   6.725   0.364  1.8288 -1.9365  1.2680
 7691TIP3    H244565   0.064   6.622   0.275  3.9086 -1.2187  1.9496
 7692TIP3   OH244566   2.031   4.554  12.637  0.1893 -0.1602  0.0367
 7692TIP3    H144567   2.035   4.555  12.732 -0.1090  0.4295  0.0454
 7692TIP3    H244568   2.020   4.461  12.614 -2.0796 -0.0953  0.6792
 7693TIP3   OH244569   5.431   3.601  12.778 -0.2859 -0.0652 -0.0962
 7693TIP3    H144570   5.487   3.531  12.745  1.0889  1.3647 -0.9375
 7693TIP3    H244571   5.427   3.586  12.872  2.8020  0.5774  0.2383
 7694TIP3   OH244572   2.141   1.195  13.077 -0.3079 -0.8384 -0.3200
 7694TIP3    H144573   2.074   1.179  13.143  1.5642 -1.7447  1.4783
 7694TIP3    H244574   2.215   1.231  13.127 -0.2907  2.6966 -2.5764
 7695TIP3   OH244575   1.763   2.309  16.224  0.0736  0.5174 -0.7420
 7695TIP3    H144576   1.844   2.263  16.246 -0.2063  1.1136  1.8328
 7695TIP3    H244577   1.777   2.399  16.256 -0.4692  1.5217 -3.0741
 7696TIP3   OH244578   0.463   5.756  17.081  0.1880 -0.4716 -0.5779
 7696TIP3    H144579   0.493   5.675  17.124 -1.0111  0.0196  1.3161
 7696TIP3    H244580   0.433   5.727  16.995 -1.7618 -2.3802  0.6406
 7697TIP3   OH244581   4.430   0.051  15.989  0.7465  0.1046 -0.1294
 7697TIP3    H144582   4.431  -0.020  16.053  2.0343  0.2683  0.0648
 7697TIP3    H244583   4.471   0.125  16.035  2.2419  0.0526 -1.3143
 7698TIP3   OH244584   5.639   2.192  16.594  0.1257 -0.3073 -0.4475
 7698TIP3    H144585   5.547   2.176  16.615  0.0872  0.2684 -0.1639
 7698TIP3    H244586   5.652   2.147  16.511 -1.2395  2.0416 -2.0856
 7699TIP3   OH244587   5.673   0.433   2.175 -0.1620  0.6625  0.0392
 7699TIP3    H144588   5.650   0.485   2.098  1.8129  0.7072 -0.5580
 7699TIP3    H244589   5.742   0.374   2.146  1.7254  1.6981  2.1000
 7700TIP3   OH244590   4.361   0.162   3.950 -0.2983 -0.0473  0.3023
 7700TIP3    H144591   4.269   0.187   3.948 -0.0193  1.0259  0.4673
 7700TIP3    H244592   4.381   0.150   4.042 -0.2568 -0.2274  0.2704
 7701TIP3   OH244593   1.590   0.744  11.308  0.1575 -0.7008  0.5384
 7701TIP3    H144594   1.579   0.680  11.238 -2.0659  0.4042 -0.2267
 7701TIP3    H244595   1.500   0.765  11.334  0.9008  0.1537  2.6008
 7702TIP3   OH244596   4.382   5.837  12.966  0.7425  0.1385  0.2389
 7702TIP3    H144597   4.363   5.779  13.040  2.5583  0.8461  1.3430
 7702TIP3    H244598   4.456   5.797  12.922  1.1311  0.8938  0.1854
 7703TIP3   OH244599   2.073   0.164   0.057  0.1045 -0.3042 -0.3388
 7703TIP3    H144600   2.152   0.174   0.004  1.6341 -3.7646  1.0293
 7703TIP3    H244601   2.018   0.103   0.007  0.6878 -2.0221  1.0141
 7704TIP3   OH244602   1.379   6.149  11.620 -0.4574  0.0379  0.1943
 7704TIP3    H144603   1.461   6.121  11.579 -1.4782 -2.6633 -0.1825
 7704TIP3    H244604   1.407   6.191  11.702  1.3224  0.3378 -0.5057
 7705TIP3   OH244605   1.951   5.759  17.098  0.1126  0.1394 -0.5032
 7705TIP3    H144606   1.881   5.711  17.143 -0.1951  1.1928  0.1937
 7705TIP3    H244607   1.973   5.830  17.159  1.4174  0.1481 -0.9548
 7706TIP3   OH244608   3.982   2.494   1.688  0.7998  0.0334 -0.6172
 7706TIP3    H144609   4.062   2.475   1.640  0.7021 -0.7883 -0.4684
 7706TIP3    H244610   4.009   2.549   1.760  1.3689 -0.8859 -0.1064
 7707TIP3   OH244611   2.593   2.151  13.410 -0.5278  0.5700 -0.3859
 7707TIP3    H144612   2.658   2.146  13.339 -0.3802 -0.9778 -0.1729
 7707TIP3    H244613   2.520   2.098  13.379 -0.8057  0.5536  0.2940
 7708TIP3   OH244614   3.284   5.409   2.155  0.4629  0.2742 -0.3348
 7708TIP3    H144615   3.307   5.461   2.077 -0.2102  0.6747 -0.2748
 7708TIP3    H244616   3.191   5.428   2.170  0.4239 -0.2967  0.1937
 7709TIP3   OH244617   3.510   1.585   2.124  0.1989 -0.4877 -0.4326
 7709TIP3    H144618   3.470   1.516   2.071  2.7162 -1.6638 -0.9460
 7709TIP3    H244619   3.601   1.558   2.134 -0.0966 -0.5686  4.8615
 7710TIP3   OH244620   0.488   3.570  13.055 -0.2830 -0.6838 -0.0825
 7710TIP3    H144621   0.410   3.530  13.092 -0.1309  0.4794  1.6176
 7710TIP3    H244622   0.544   3.588  13.131  0.4727  0.9082 -0.9621
 7711TIP3   OH244623   1.050   2.086  15.280  0.5146  0.2271 -0.1390
 7711TIP3    H144624   1.132   2.106  15.236  0.1902  0.7415 -0.5171
 7711TIP3    H244625   1.076   2.049  15.365  1.1278  0.4639 -0.2240
 7712TIP3   OH244626   0.149   1.809  17.004 -0.5496  0.4506 -0.0614
 7712TIP3    H144627   0.235   1.843  17.028 -0.5897 -0.1404  0.9507
 7712TIP3    H244628   0.087   1.877  17.030 -0.6664 -0.4751  2.3226
 7713TIP3   OH244629   5.032   4.950   4.522  0.4648  0.0149  0.1134
 7713TIP3    H144630   4.952   4.996   4.499 -0.3141 -0.2883  2.0116
 7713TIP3    H244631   5.068   4.920   4.438 -2.4868 -1.6287 -0.7189
 7714TIP3   OH244632   5.263   1.225  13.150 -0.1006 -0.0365  0.0955
 7714TIP3    H144633   5.261   1.223  13.055  1.8315  3.1807 -0.1553
 7714TIP3    H244634   5.341   1.176  13.174  0.3134  0.5089 -0.1169
 7715TIP3   OH244635   5.423   3.608  12.374 -0.1230 -0.2565 -0.4417
 7715TIP3    H144636   5.406   3.685  12.320  0.2550 -0.7822 -1.3282
 7715TIP3    H244637   5.507   3.626  12.416 -0.4262  0.1593  0.0073
 7716TIP3   OH244638   1.928   5.080  12.264  0.0997 -0.0036 -0.5202
 7716TIP3    H144639   1.994   5.140  12.231  1.8141 -1.4253  0.1563
 7716TIP3    H244640   1.938   5.084  12.359 -0.3986 -0.6711 -0.4335
 7717TIP3   OH244641   5.167   1.665   1.397  0.1985 -0.0947 -0.1224
 7717TIP3    H144642   5.149   1.658   1.304  0.2732 -1.5704 -0.0497
 7717TIP3    H244643   5.083   1.687   1.437  0.6414  3.1998 -0.7386
 7718TIP3   OH244644   5.679   6.044  15.178  0.1393 -0.1602  0.0594
 7718TIP3    H144645   5.678   6.123  15.123 -0.7552 -0.9544 -1.1015
 7718TIP3    H244646   5.605   5.993  15.148  0.7907 -1.5262  0.7011
 7719TIP3   OH244647   0.755   1.367   3.181 -0.8047  0.2909 -0.3213
 7719TIP3    H144648   0.754   1.356   3.086 -0.0458  0.8736 -0.4041
 7719TIP3    H244649   0.691   1.303   3.213 -0.7429 -0.2193 -1.1892
 7720TIP3   OH244650   3.431   2.084  14.949  0.3899  0.2771 -0.5368
 7720TIP3    H144651   3.478   2.165  14.966  2.2589 -0.8339 -0.1182
 7720TIP3    H244652   3.497   2.015  14.958 -0.9251 -1.2350 -1.7291
 7721TIP3   OH244653   1.313   1.708   5.568  0.1898 -0.5112  0.2081
 7721TIP3    H144654   1.332   1.633   5.624  0.3933 -1.3230 -0.9304
 7721TIP3    H244655   1.255   1.763   5.621  1.3001 -0.6759  1.6656
 7722TIP3   OH244656   5.663   1.219  12.004  0.3896  0.5887  0.1461
 7722TIP3    H144657   5.680   1.284  12.072  1.4973  0.2694  0.2032
 7722TIP3    H244658   5.646   1.138  12.052  0.1948  0.5755  0.0561
 7723TIP3   OH244659   3.238   4.551  10.696  0.2229  0.1243  0.1556
 7723TIP3    H144660   3.306   4.576  10.758  0.9038  0.6367 -0.7584
 7723TIP3    H244661   3.218   4.460  10.716  0.2224  0.3578  1.2860
 7724TIP3   OH244662   2.724   6.714  12.904 -0.5824  0.0341  0.5051
 7724TIP3    H144663   2.694   6.694  12.815 -0.8732  0.4117  0.5166
 7724TIP3    H244664   2.745   6.628  12.942  0.1578 -0.0835 -0.1398
 7725TIP3   OH244665   4.757   5.758  14.195 -0.3006  0.1488 -0.3936
 7725TIP3    H144666   4.696   5.816  14.241 -0.5646 -0.4824  0.0705
 7725TIP3    H244667   4.720   5.671  14.206  2.5135 -0.8509  3.2093
 7726TIP3   OH244668   6.100   0.379  17.208  0.1340  0.1081  0.7547
 7726TIP3    H144669   6.159   0.419  17.273 -2.4910  0.7895  2.9202
 7726TIP3    H244670   6.034   0.447  17.191  0.4951 -0.1981 -2.4486
 7727TIP3   OH244671   1.142   4.651  15.399 -0.3987 -0.2923  0.1399
 7727TIP3    H144672   1.177   4.705  15.328 -0.8945 -0.1720 -0.0190
 7727TIP3    H244673   1.119   4.568  15.357  0.3528 -0.6323  0.3829
 7728TIP3   OH244674   1.795   6.829  10.988 -0.4653  0.1416 -0.0657
 7728TIP3    H144675   1.870   6.884  11.010 -0.9223  0.2267  1.4089
 7728TIP3    H244676   1.719   6.878  11.021 -1.3605  0.6906 -2.6647
 7729TIP3   OH244677   5.729   0.123  13.618  0.1168 -0.3582 -0.1221
 7729TIP3    H144678   5.780   0.043  13.608  3.5931  1.7428 -0.8512
 7729TIP3    H244679   5.759   0.180  13.547 -1.2069  2.0679  1.1218
 7730TIP3   OH244680   2.468   2.020  15.657  0.2173  0.6592 -0.0866
 7730TIP3    H144681   2.528   1.956  15.696 -0.1065  0.4246  0.0288
 7730TIP3    H244682   2.525   2.077  15.605  0.5712  0.5901  0.2195
 7731TIP3   OH244683   3.313   0.743   4.483  0.0361 -0.5514  0.0465
 7731TIP3    H144684   3.357   0.789   4.411 -0.5198 -1.6082 -1.0106
 7731TIP3    H244685   3.226   0.783   4.486  0.1216 -0.3812  0.2570
 7732TIP3   OH244686   4.396   2.820  13.993 -0.0368 -0.3458  0.3016
 7732TIP3    H144687   4.463   2.853  13.933 -0.0398 -1.9993 -0.6524
 7732TIP3    H244688   4.320   2.876  13.976  1.4845  2.7820  2.6850
 7733TIP3   OH244689   3.033   4.775   5.421 -0.4438  1.0718  0.4248
 7733TIP3    H144690   3.015   4.708   5.355 -0.7163 -1.4974  2.9273
 7733TIP3    H244691   2.949   4.820   5.433 -0.7137  0.7223 -0.1186
 7734TIP3   OH244692   0.255   6.294   2.581  0.7518 -0.9452 -1.0458
 7734TIP3    H144693   0.200   6.359   2.538  0.6455 -0.4491 -0.1885
 7734TIP3    H244694   0.344   6.317   2.556  0.7072 -0.5275 -0.8262
 7735TIP3   OH244695   1.675   1.764  16.271 -0.3538 -0.2831  0.0352
 7735TIP3    H144696   1.633   1.834  16.322  0.1731  0.1313 -0.0842
 7735TIP3    H244697   1.731   1.811  16.209  0.3177 -0.8250  0.2282
 7736TIP3   OH244698   5.051   0.082   1.981 -0.3815 -0.5484 -0.3581
 7736TIP3    H144699   4.964   0.102   2.016 -0.6789 -1.4232 -0.5749
 7736TIP3    H244700   5.099   0.045   2.055  0.0070  0.4503 -0.0887
 7737TIP3   OH244701   1.534   2.489   1.746 -0.8005  0.4548  0.5645
 7737TIP3    H144702   1.619   2.464   1.709  0.0157  2.2392  1.1605
 7737TIP3    H244703   1.545   2.480   1.840 -1.4367  0.2592  0.6247
 7738TIP3   OH244704   5.593   0.601  16.401  0.0566 -0.2944 -0.0703
 7738TIP3    H144705   5.679   0.598  16.360  0.2765 -1.4039  0.4361
 7738TIP3    H244706   5.532   0.605  16.328  0.5214  0.5741 -0.4321
 7739TIP3   OH244707   5.646   4.835  10.764 -0.1665 -0.0460 -0.8269
 7739TIP3    H144708   5.600   4.802  10.687 -0.4804  0.1921 -0.7429
 7739TIP3    H244709   5.695   4.911  10.731  0.9267 -0.8565 -1.1221
 7740TIP3   OH244710   3.212   3.585  12.827 -0.4776 -0.3967 -0.5359
 7740TIP3    H144711   3.151   3.584  12.900 -0.2304 -1.1726 -0.3392
 7740TIP3    H244712   3.226   3.493  12.805 -0.5456 -0.1758 -1.5525
 7741TIP3   OH244713   2.058   6.576  15.429  0.1776 -0.4924  0.5766
 7741TIP3    H144714   2.086   6.487  15.448  1.6305 -0.2521 -0.2805
 7741TIP3    H244715   2.138   6.628  15.435  0.0936  0.1791 -2.4758
 7742TIP3   OH244716   0.383   6.086  14.787  0.3423  0.5170 -0.5875
 7742TIP3    H144717   0.436   6.166  14.782 -0.1475  0.8720 -0.2568
 7742TIP3    H244718   0.293   6.116  14.772  0.0529  0.1589  0.3207
 7743TIP3   OH244719   2.487   4.505  16.410  0.1147 -0.0812  0.3548
 7743TIP3    H144720   2.526   4.540  16.490  1.1747 -1.5574  0.5227
 7743TIP3    H244721   2.555   4.448  16.373 -0.5678  0.1018 -1.2941
 7744TIP3   OH244722   1.420   5.196  16.266  0.3841  0.1609  0.5170
 7744TIP3    H144723   1.409   5.101  16.275  1.1771 -0.1377 -1.1720
 7744TIP3    H244724   1.515   5.208  16.259  0.2335  0.9429 -0.3784
 7745TIP3   OH244725   6.149   3.799  15.434 -0.0131  0.4010  0.2903
 7745TIP3    H144726   6.058   3.813  15.407 -0.0706 -0.5932 -0.0388
 7745TIP3    H244727   6.144   3.782  15.528 -0.1788  0.2260  0.2498
 7746TIP3   OH244728   3.153   2.938   0.011  0.2110 -0.0072 -0.4305
 7746TIP3    H144729   3.107   2.869  -0.036  1.8622 -1.3771 -0.1428
 7746TIP3    H244730   3.246   2.917  -0.001  0.7149  0.7616  1.7364
 7747TIP3   OH244731   1.756   0.372   4.627 -0.2270 -0.0095 -0.0771
 7747TIP3    H144732   1.833   0.330   4.666  0.1206  1.5363  1.0021
 7747TIP3    H244733   1.712   0.413   4.701 -3.3340 -2.5972 -0.2890
 7748TIP3   OH244734   3.929   1.119   3.331 -0.0856  1.0176 -0.8445
 7748TIP3    H144735   3.952   1.048   3.391 -1.1191  1.9496  0.7038
 7748TIP3    H244736   4.011   1.165   3.315  0.0888  1.1273  0.3395
 7749TIP3   OH244737   5.494   2.064  14.139 -0.1243 -0.9307  0.0808
 7749TIP3    H144738   5.515   2.042  14.230 -0.3341 -1.4189  0.0160
 7749TIP3    H244739   5.537   1.995  14.088 -1.3714 -1.6085 -0.0927
 7750TIP3   OH244740   0.585   5.051   1.106  0.5809 -0.0174 -0.0764
 7750TIP3    H144741   0.510   5.065   1.165 -0.6989 -2.2256 -1.0330
 7750TIP3    H244742   0.623   5.138   1.095 -2.5094  1.4490 -0.4084
 7751TIP3   OH244743   1.740   3.366   5.103  0.2265  0.4000 -0.1561
 7751TIP3    H144744   1.729   3.299   5.170 -0.0485 -1.2809 -1.8214
 7751TIP3    H244745   1.723   3.449   5.149 -0.5359 -0.7259  1.6952
 7752TIP3   OH244746   3.391   5.481  15.233 -0.1893  0.3879  0.0627
 7752TIP3    H144747   3.370   5.392  15.205 -1.9237  0.4833  0.9183
 7752TIP3    H244748   3.485   5.479  15.248 -0.1944 -1.3212  0.1445
 7753TIP3   OH244749   4.805   2.838  11.120  0.0434  0.2172  0.3408
 7753TIP3    H144750   4.738   2.902  11.097  0.5719  0.4746 -0.5550
 7753TIP3    H244751   4.790   2.764  11.061  0.0207 -0.0862  0.7223
 7754TIP3   OH244752   2.518   3.322   3.383  0.2658  0.5375  0.5534
 7754TIP3    H144753   2.430   3.334   3.418 -0.4437  0.5098 -1.1065
 7754TIP3    H244754   2.504   3.297   3.292  2.0018  1.3708  0.0085
 7755TIP3   OH244755   6.329   3.748   2.976 -0.3677 -0.1104  0.3011
 7755TIP3    H144756   6.387   3.724   2.903 -1.8442  0.0780 -0.9681
 7755TIP3    H244757   6.299   3.836   2.955 -2.1345 -0.6921  0.2359
 7756TIP3   OH244758   1.707   4.492   4.875 -0.0258  0.4724 -0.0744
 7756TIP3    H144759   1.701   4.573   4.925 -1.4435  0.4074 -0.0957
 7756TIP3    H244760   1.691   4.519   4.784 -0.0545  0.2321 -0.1411
 7757TIP3   OH244761   5.179   0.429  15.247  0.3509  0.3546  0.1917
 7757TIP3    H144762   5.133   0.449  15.328 -0.8310 -0.1846 -0.3219
 7757TIP3    H244763   5.118   0.375  15.197  1.4628 -0.2165 -0.6112
 7758TIP3   OH244764   4.693   0.905   2.437 -0.0640 -0.0532  0.4542
 7758TIP3    H144765   4.772   0.851   2.431  0.9737  1.4086  0.6083
 7758TIP3    H244766   4.623   0.847   2.405  1.0703 -1.3253  0.1579
 7759TIP3   OH244767   1.081   1.999   4.577 -0.5792  0.3140 -0.1067
 7759TIP3    H144768   1.062   2.020   4.669 -0.1697 -0.2078  0.1005
 7759TIP3    H244769   1.024   2.058   4.527  0.8304  2.2413  0.4213
 7760TIP3   OH244770   5.893   4.039  10.398  0.0774 -0.2565 -0.1532
 7760TIP3    H144771   5.852   3.958  10.365  1.7590 -0.3376 -2.2831
 7760TIP3    H244772   5.957   4.009  10.463  2.2012 -0.9774 -2.4201
 7761TIP3   OH244773   4.816   6.052   4.473 -0.0646  0.0701 -0.0278
 7761TIP3    H144774   4.818   6.083   4.564 -0.7826  0.9358 -0.2842
 7761TIP3    H244775   4.723   6.050   4.451  0.1305  0.6605 -0.9884
 7762TIP3   OH244776   4.499   3.012  11.697  0.0372  0.1632  0.5830
 7762TIP3    H144777   4.581   3.026  11.744 -0.9480  1.2542  2.0615
 7762TIP3    H244778   4.518   2.938  11.638  1.4309 -1.0873  2.4812
 7763TIP3   OH244779   4.573   2.564  13.362  0.4193  0.1541 -0.2142
 7763TIP3    H144780   4.493   2.511  13.354  1.4983 -1.8229  1.4135
 7763TIP3    H244781   4.633   2.526  13.298  1.1306 -0.4659  0.8141
 7764TIP3   OH244782   6.019   3.982   6.211 -0.1460 -0.2346  0.2050
 7764TIP3    H144783   5.925   3.990   6.229  0.3906  1.1155  2.8959
 7764TIP3    H244784   6.038   3.889   6.226 -0.8052 -0.2425  1.0463
 7765TIP3   OH244785   1.166   4.748   5.938  0.3563 -0.1877  0.2643
 7765TIP3    H144786   1.144   4.807   6.009  1.6081  1.8928 -0.9635
 7765TIP3    H244787   1.248   4.706   5.966  0.9532  0.7759  0.0076
 7766TIP3   OH244788   4.945   3.006   6.098  0.1353 -0.1856  0.2389
 7766TIP3    H144789   4.872   2.969   6.148 -1.3050 -0.1508 -1.7187
 7766TIP3    H244790   4.983   2.930   6.053 -0.3167  0.1491 -0.7163
 7767TIP3   OH244791   2.284   1.604  11.325  0.0866  0.3764 -0.0150
 7767TIP3    H144792   2.213   1.610  11.261  1.6962  0.5525 -1.8546
 7767TIP3    H244793   2.283   1.513  11.354 -0.9379  0.4024  0.0788
 7768TIP3   OH244794   1.997   2.978   4.513  0.0023 -0.3703  0.5102
 7768TIP3    H144795   2.062   2.937   4.570  0.6539  0.2166  0.2033
 7768TIP3    H244796   1.980   3.063   4.554 -1.3771 -0.9268  1.1710
 7769TIP3   OH244797   1.576   6.184  14.981 -0.0346  0.4687 -0.4546
 7769TIP3    H144798   1.524   6.241  14.924 -0.5560  0.9390  0.4688
 7769TIP3    H244799   1.515   6.155  15.049  0.4800 -0.3878 -0.3358
 7770TIP3   OH244800   2.338   1.345   3.675  0.2316 -0.0551 -0.2913
 7770TIP3    H144801   2.333   1.336   3.580 -0.6822 -0.0378 -0.2565
 7770TIP3    H244802   2.268   1.407   3.697 -0.3375 -0.9455  0.4908
 7771TIP3   OH244803   5.393   4.483  10.828  0.4477 -0.0627  0.1685
 7771TIP3    H144804   5.331   4.555  10.836 -1.4392 -1.1191 -3.1203
 7771TIP3    H244805   5.347   4.407  10.865  0.9595 -0.2902  0.3536
 7772TIP3   OH244806   5.335   0.649   5.586 -0.1284 -0.1859  0.7918
 7772TIP3    H144807   5.321   0.703   5.508  2.0148 -0.0722  0.4204
 7772TIP3    H244808   5.264   0.673   5.646 -0.0638  1.9795  0.0608
 7773TIP3   OH244809   5.054   2.203  17.119 -0.4352 -0.4287 -0.2963
 7773TIP3    H144810   5.148   2.199  17.103 -0.3945  0.7301 -0.4003
 7773TIP3    H244811   5.046   2.198  17.214 -0.1190  1.4298 -0.1343
 7774TIP3   OH244812   5.463   3.560  15.534 -0.1286  0.1822 -0.6028
 7774TIP3    H144813   5.384   3.545  15.482 -0.7675 -0.7713  0.5803
 7774TIP3    H244814   5.446   3.641  15.582 -0.5406 -0.1766 -0.1246
 7775TIP3   OH244815   0.486   6.242  14.495 -0.0755 -0.3503  0.1013
 7775TIP3    H144816   0.483   6.295  14.416  0.8168  0.3621  0.5258
 7775TIP3    H244817   0.522   6.301  14.562 -0.9428 -0.8893  1.0767
 7776TIP3   OH244818   1.721   3.249   3.022  0.0909 -0.0664 -0.4938
 7776TIP3    H144819   1.762   3.167   2.995  0.7465 -0.4238  1.4505
 7776TIP3    H244820   1.627   3.228   3.026  0.0471 -0.1779 -1.7617
 7777TIP3   OH244821   1.624   1.443   2.412 -0.0575  0.0830  0.7542
 7777TIP3    H144822   1.580   1.464   2.330  2.1885 -0.4953 -0.6856
 7777TIP3    H244823   1.556   1.403   2.467 -1.1785 -1.4922 -1.6190
 7778TIP3   OH244824   0.162   2.571  16.234  0.2181  0.1833 -0.0380
 7778TIP3    H144825   0.183   2.537  16.147  2.2790  0.6104  0.2306
 7778TIP3    H244826   0.218   2.521  16.293  0.1473  1.0859  0.8250
 7779TIP3   OH244827   3.351   3.007  13.454  0.0753  0.2233 -0.3854
 7779TIP3    H144828   3.434   2.980  13.415 -0.3188 -1.8024  0.0907
 7779TIP3    H244829   3.358   2.982  13.546 -1.4033 -0.9029 -0.5438
 7780TIP3   OH244830   4.983   5.823  13.443 -0.0142 -0.2719  0.4403
 7780TIP3    H144831   4.961   5.890  13.379  1.8505 -0.6302 -0.6241
 7780TIP3    H244832   5.073   5.798  13.423  0.6070 -0.4882  3.1239
 7781TIP3   OH244833   5.130   6.333  15.935  0.7711  0.1414  0.5068
 7781TIP3    H144834   5.074   6.339  16.013  0.3158  0.3468  0.1680
 7781TIP3    H244835   5.129   6.422  15.898  0.7331 -0.0301  0.0895
 7782TIP3   OH244836   1.493   3.819  11.231 -0.1947  0.2642 -0.7444
 7782TIP3    H144837   1.556   3.751  11.205  0.0104 -0.0057  0.4022
 7782TIP3    H244838   1.452   3.784  11.310 -2.6176 -0.0720 -2.0505
 7783TIP3   OH244839   0.167   3.125   5.079  0.0189 -0.2119 -0.1545
 7783TIP3    H144840   0.220   3.186   5.131 -0.9026  0.6526 -0.1927
 7783TIP3    H244841   0.108   3.182   5.030 -0.1314 -1.0998 -1.0232
 7784TIP3   OH244842   2.307   0.646   4.069 -0.0388  0.0546 -0.7973
 7784TIP3    H144843   2.239   0.606   4.124  0.4406 -1.5511 -1.3101
 7784TIP3    H244844   2.370   0.681   4.132  0.4383 -1.6426 -0.2759
 7785TIP3   OH244845   5.388   3.893  17.029 -0.3233  0.7237 -0.7660
 7785TIP3    H144846   5.379   3.818  16.969 -1.6359  0.1716  0.0875
 7785TIP3    H244847   5.419   3.855  17.110  1.6884  1.5086 -1.1184
 7786TIP3   OH244848   5.923   1.679  13.070 -0.0292 -0.5424  0.1226
 7786TIP3    H144849   5.879   1.652  12.990  0.3902  2.2900 -1.1828
 7786TIP3    H244850   5.863   1.653  13.140 -2.3967  0.4591 -1.4048
 7787TIP3   OH244851   5.196   1.639  11.658  0.0755 -0.1690 -0.5886
 7787TIP3    H144852   5.133   1.599  11.717  0.1715 -0.5017 -0.7056
 7787TIP3    H244853   5.143   1.689  11.596 -0.1789 -1.4255 -1.4333
 7788TIP3   OH244854   6.044   2.051   3.575 -0.0981 -0.0362 -0.4158
 7788TIP3    H144855   5.969   2.088   3.622 -0.0566 -0.9956  0.4384
 7788TIP3    H244856   6.005   2.001   3.504 -0.2483 -0.1371 -0.2640
 7789TIP3   OH244857   3.817   2.376  10.892  0.2835  0.0995  0.5080
 7789TIP3    H144858   3.817   2.301  10.833  1.0258  0.1791  0.4044
 7789TIP3    H244859   3.890   2.430  10.863 -1.0828  1.5964 -0.3507
 7790TIP3   OH244860   0.505   1.228   3.669 -0.5232 -0.0707 -0.3676
 7790TIP3    H144861   0.594   1.214   3.702 -0.3618  0.0327 -0.7557
 7790TIP3    H244862   0.503   1.185   3.584 -0.5096  0.8411 -0.8444
 7791TIP3   OH244863   1.589   6.144  15.685 -0.3019 -0.0069 -0.1446
 7791TIP3    H144864   1.574   6.237  15.672  1.6556  0.3453 -0.1200
 7791TIP3    H244865   1.655   6.140  15.755 -1.4741 -1.4727  0.9530
 7792TIP3   OH244866   5.185   3.402  16.208  0.1072 -0.1175 -0.2758
 7792TIP3    H144867   5.244   3.338  16.247  1.2288  1.0261 -0.0241
 7792TIP3    H244868   5.215   3.410  16.118  1.7599  1.9740  0.3742
 7793TIP3   OH244869   6.174   0.240  13.023  0.5500 -0.7007 -0.5128
 7793TIP3    H144870   6.227   0.187  13.082  2.4773 -1.3828 -2.6650
 7793TIP3    H244871   6.231   0.314  13.000 -1.4096  1.4247  0.9941
 7794TIP3   OH244872   4.780   1.809   2.685 -0.0074  0.3035  0.0514
 7794TIP3    H144873   4.715   1.739   2.695 -0.3403  0.7745  1.3023
 7794TIP3    H244874   4.728   1.889   2.675  0.3606  0.6772  0.9830
 7795TIP3   OH244875   5.252   6.316   2.442 -0.1131  0.0495 -0.1530
 7795TIP3    H144876   5.200   6.318   2.361  0.5069  1.3813 -0.5648
 7795TIP3    H244877   5.335   6.357   2.417  0.6493 -0.8855  0.8028
 7796TIP3   OH244878   2.323   4.925  14.160 -0.7393  0.8970 -0.2238
 7796TIP3    H144879   2.311   4.983  14.235  1.5020  0.0353  0.9003
 7796TIP3    H244880   2.402   4.957  14.117  0.0306 -0.6984 -0.1035
 7797TIP3   OH244881   1.498   3.636   5.044 -0.1183  0.8208  0.3503
 7797TIP3    H144882   1.490   3.620   4.950 -1.2932 -0.3055  0.6035
 7797TIP3    H244883   1.584   3.674   5.055  0.2500  0.4791 -1.1318
 7798TIP3   OH244884   4.391   5.138   5.859  0.5689  0.2921  0.1752
 7798TIP3    H144885   4.481   5.117   5.883  1.8881  3.3761 -1.4186
 7798TIP3    H244886   4.358   5.059   5.816  2.1514 -1.2001  1.5590
 7799TIP3   OH244887   6.070   1.069   5.904 -0.0558  0.3095  0.4108
 7799TIP3    H144888   6.068   1.089   5.810 -0.9988  0.3674  0.4331
 7799TIP3    H244889   6.164   1.065   5.925  0.2809 -2.4225 -1.0955
 7800TIP3   OH244890   4.323   5.860  14.768 -0.3350  0.1311 -0.0585
 7800TIP3    H144891   4.257   5.915  14.725  0.0303 -0.4542 -1.4485
 7800TIP3    H244892   4.386   5.841  14.699  0.3801 -0.7258  0.8039
 7801TIP3   OH244893   0.599   0.594   3.820 -1.1964  0.3745 -0.3982
 7801TIP3    H144894   0.588   0.556   3.907 -2.1296 -0.4261 -0.8434
 7801TIP3    H244895   0.573   0.685   3.830 -0.0000  0.6576  0.4425
 7802TIP3   OH244896   4.177   2.239   6.469 -0.5805 -0.1809 -0.1119
 7802TIP3    H144897   4.134   2.322   6.449  0.2350  0.1087 -0.7167
 7802TIP3    H244898   4.204   2.247   6.560  1.0324  0.9355 -0.6544
 7803TIP3   OH244899   6.579   0.352  12.711 -0.2892  0.3775  0.3458
 7803TIP3    H144900   6.598   0.264  12.682  0.2086  0.0233  1.6654
 7803TIP3    H244901   6.663   0.397  12.711 -0.3495  0.4954  0.8118
 7804TIP3   OH244902   1.641   0.512   2.831  0.0322 -0.1063  0.0469
 7804TIP3    H144903   1.722   0.544   2.873  1.5092 -3.5455  0.1065
 7804TIP3    H244904   1.571   0.558   2.877  1.8600  1.4413  1.4669
 7805TIP3   OH244905   5.093   2.960  13.228 -0.3068 -0.0181  0.6022
 7805TIP3    H144906   5.005   2.947  13.193 -0.0736 -0.7129  0.2542
 7805TIP3    H244907   5.150   2.960  13.150  0.1456 -0.9442  0.9192
 7806TIP3   OH244908   5.835   6.042  14.631 -0.2168  0.6986  0.1129
 7806TIP3    H144909   5.751   6.040  14.677 -1.2447  1.1780 -1.6672
 7806TIP3    H244910   5.856   5.949  14.616 -1.8583  0.5611 -1.8273
 7807TIP3   OH244911   6.811   2.475   4.722  0.1166 -0.2355 -0.7891
 7807TIP3    H144912   6.854   2.559   4.738  0.5886 -0.7420  0.7261
 7807TIP3    H244913   6.733   2.477   4.777 -0.3787 -0.4214 -1.4689
 7808TIP3   OH244914   1.158   5.897  15.770 -0.3607  0.2787  0.1380
 7808TIP3    H144915   1.252   5.908  15.778 -0.2170 -0.7094 -0.0561
 7808TIP3    H244916   1.125   5.905  15.859 -0.3830  2.8124 -0.0182
 7809TIP3   OH244917   0.610   4.586  13.627 -0.1069  0.1002  0.4622
 7809TIP3    H144918   0.521   4.554  13.641 -0.0660  0.1139  0.7474
 7809TIP3    H244919   0.599   4.677  13.598 -0.2335 -0.2221 -0.5585
 7810TIP3   OH244920   3.784   0.922   6.611 -0.3383  0.0105 -0.1818
 7810TIP3    H144921   3.784   0.827   6.602 -1.2470  0.0019 -0.1780
 7810TIP3    H244922   3.863   0.951   6.567 -0.4562 -0.6865 -0.8597
 7811TIP3   OH244923   5.926   4.853  12.484  0.0652  0.1425 -0.2804
 7811TIP3    H144924   6.020   4.862  12.473  0.1646  1.4733  1.1967
 7811TIP3    H244925   5.891   4.938  12.458 -0.8352 -0.6350 -1.6733
 7812TIP3   OH244926   6.612   4.672   0.619 -0.1588 -0.1452 -0.3282
 7812TIP3    H144927   6.644   4.735   0.683 -0.7807 -1.1730  1.0556
 7812TIP3    H244928   6.532   4.710   0.584 -0.0830  0.2044 -0.1175
 7813TIP3   OH244929   4.331   4.678   0.167  0.2681  0.2248  0.6463
 7813TIP3    H144930   4.285   4.655   0.086 -2.9184  3.3155  1.3050
 7813TIP3    H244931   4.422   4.690   0.141 -0.6644  1.2964 -2.5941
 7814TIP3   OH244932   1.480   4.087  14.514 -0.7017 -0.1423  0.0339
 7814TIP3    H144933   1.440   4.171  14.538 -1.0918  0.2889 -1.9639
 7814TIP3    H244934   1.571   4.095  14.544 -0.9176  0.7033  0.5159
 7815TIP3   OH244935   0.677   6.152   3.112  0.6244 -0.0919  0.4847
 7815TIP3    H144936   0.719   6.070   3.086  0.5643  0.0243  0.0124
 7815TIP3    H244937   0.750   6.211   3.132  0.7068  0.2394 -0.7355
 7816TIP3   OH244938   2.579   6.457  13.272  0.1991  0.5718  0.6701
 7816TIP3    H144939   2.568   6.438  13.179  0.2178 -2.1060  1.1311
 7816TIP3    H244940   2.524   6.534  13.288 -0.6474  0.4368 -1.3383
 7817TIP3   OH244941   2.805   5.015  11.410  0.4174  1.0042  0.0098
 7817TIP3    H144942   2.887   5.029  11.364  0.6193 -0.4229 -0.1322
 7817TIP3    H244943   2.831   4.971  11.492 -0.2142  0.1663 -0.2199
 7818TIP3   OH244944   3.849   4.398  12.198 -0.3266 -0.0377  0.1483
 7818TIP3    H144945   3.862   4.457  12.124  0.3502 -0.8131 -0.3552
 7818TIP3    H244946   3.771   4.348  12.175  2.3254 -3.5319 -2.2964
 7819TIP3   OH244947   1.525   3.221   1.767  0.2379  0.3768  0.1488
 7819TIP3    H144948   1.446   3.234   1.819  0.1430  1.9603 -0.3480
 7819TIP3    H244949   1.500   3.246   1.678  0.2806 -2.6177 -0.8415
 7820TIP3   OH244950   0.624   2.009  11.816 -0.5802  0.0799  0.1841
 7820TIP3    H144951   0.614   2.020  11.721 -0.5969 -2.4980 -0.1662
 7820TIP3    H244952   0.707   2.053  11.836  1.2154 -2.1718 -1.6695
 7821TIP3   OH244953   3.944   4.771  12.166 -0.2339  0.2954  0.0272
 7821TIP3    H144954   3.947   4.710  12.092 -0.9609  0.6851 -0.3343
 7821TIP3    H244955   4.001   4.731  12.233 -2.0965 -1.7373  0.5117
 7822TIP3   OH244956   4.083   4.386   4.829  0.3093  0.3036  0.5536
 7822TIP3    H144957   4.099   4.304   4.782  1.2479  0.0405  1.2991
 7822TIP3    H244958   4.045   4.359   4.912  0.1320  0.6669  0.5913
 7823TIP3   OH244959   2.848   1.154  15.567  0.4726  0.4559 -0.3788
 7823TIP3    H144960   2.889   1.173  15.483 -0.0645  1.5477 -0.4091
 7823TIP3    H244961   2.921   1.145  15.628  0.7989  1.7882 -0.5467
 7824TIP3   OH244962   1.527   6.766   0.202  0.7390 -0.3204  0.8366
 7824TIP3    H144963   1.443   6.737   0.237  0.7273  1.3126  2.2822
 7824TIP3    H244964   1.506   6.805   0.117 -0.3746  2.0630  2.1175
 7825TIP3   OH244965   3.725   1.771  15.383 -0.6054  0.3009  0.2476
 7825TIP3    H144966   3.818   1.756  15.399 -0.7977 -0.0926  1.0505
 7825TIP3    H244967   3.681   1.732  15.459 -1.5654 -1.5443 -1.2062
 7826TIP3   OH244968   4.279   2.571   4.270  0.1105 -0.0870  0.1462
 7826TIP3    H144969   4.250   2.659   4.295 -0.7544  0.2416 -1.8179
 7826TIP3    H244970   4.346   2.586   4.203 -0.0370 -0.9194 -0.1966
 7827TIP3   OH244971   1.645   4.635   1.673 -0.1684  0.1079  0.0702
 7827TIP3    H144972   1.555   4.607   1.664 -0.6838  1.3323  1.0648
 7827TIP3    H244973   1.695   4.579   1.613 -1.8519  0.7720 -2.0932
 7828TIP3   OH244974   0.894   3.403   5.834  0.5298  0.3123  0.0890
 7828TIP3    H144975   0.916   3.317   5.870 -0.1825  0.1259  0.0856
 7828TIP3    H244976   0.949   3.412   5.757  0.5470 -0.1766  0.0433
 7829TIP3   OH244977   1.235   0.439  15.662 -0.0284 -0.4664 -0.2213
 7829TIP3    H144978   1.227   0.347  15.637 -0.9859 -1.4256  3.0094
 7829TIP3    H244979   1.227   0.438  15.758 -1.5787  3.1303 -0.1496
 7830TIP3   OH244980   3.930   2.743  11.439 -0.3955  0.1434  0.0435
 7830TIP3    H144981   3.970   2.757  11.353 -0.5706  0.4657  0.0129
 7830TIP3    H244982   3.913   2.649  11.442  1.6202 -0.2454  0.6026
 7831TIP3   OH244983   2.939   4.111   0.466 -0.4327  0.1801 -0.0000
 7831TIP3    H144984   2.987   4.147   0.392  1.8115 -0.8858  0.8470
 7831TIP3    H244985   2.945   4.178   0.534 -0.2855  0.1170  0.0497
 7832TIP3   OH244986   2.657   4.030   6.197  0.2032  0.7439  0.0668
 7832TIP3    H144987   2.739   4.079   6.198  0.2470  0.6610  1.0340
 7832TIP3    H244988   2.670   3.963   6.129  0.6412  1.2260 -0.3282
 7833TIP3   OH244989   3.804   3.438   0.017  0.2538 -0.3879  0.2547
 7833TIP3    H144990   3.882   3.383   0.010  0.6700  0.2584 -0.3125
 7833TIP3    H244991   3.826   3.517  -0.033 -0.7764 -0.2150  0.0570
 7834TIP3   OH244992   3.249   0.948  12.912 -0.7483 -0.3016 -0.4046
 7834TIP3    H144993   3.258   0.983  13.001  1.9345 -0.6206 -0.4655
 7834TIP3    H244994   3.214   1.021  12.861  0.0025  0.6978  0.4489
 7835TIP3   OH244995   5.831   6.340   4.310 -0.5641  0.1037 -0.2103
 7835TIP3    H144996   5.816   6.286   4.388 -3.6406 -2.0543 -2.0507
 7835TIP3    H244997   5.917   6.311   4.277  0.4180  0.5000  1.8398
 7836TIP3   OH244998   0.367   3.943  12.946  0.3057 -0.2444  0.1664
 7836TIP3    H144999   0.366   3.860  12.898  1.6370 -0.6066  0.7048
 7836TIP3    H245000   0.297   3.995  12.906 -0.5820 -1.6286 -0.1640
 7837TIP3   OH245001   3.801   4.109   1.112  0.3770  0.1509 -0.3272
 7837TIP3    H145002   3.785   4.120   1.205 -1.5054 -2.0958 -0.3064
 7837TIP3    H245003   3.724   4.146   1.069  1.1133  0.9492 -1.0121
 7838TIP3   OH245004   5.343   2.721  12.983 -0.5497  0.1994 -0.3896
 7838TIP3    H145005   5.273   2.680  12.933  0.2339 -1.9889  0.1677
 7838TIP3    H245006   5.417   2.662  12.973  0.3697  0.9757  1.3067
 7839TIP3   OH245007   2.939   4.735  13.320  0.1864 -0.2261  0.2718
 7839TIP3    H145008   2.857   4.693  13.293 -0.7012  1.8664 -0.4446
 7839TIP3    H245009   2.942   4.721  13.415  0.0313 -2.0357  0.0414
 7840TIP3   OH245010   0.986   0.064  11.578  0.3247  0.1886 -0.1247
 7840TIP3    H145011   1.022   0.029  11.659  0.8993 -1.4256 -1.0438
 7840TIP3    H245012   1.050   0.041  11.511 -1.0719 -0.2873 -1.3523
 7841TIP3   OH245013   6.714   6.781   0.473 -0.1894 -0.7438 -0.1022
 7841TIP3    H145014   6.686   6.850   0.533 -0.0338 -1.0224  0.2978
 7841TIP3    H245015   6.640   6.770   0.413 -0.4469 -0.6378  0.1937
 7842TIP3   OH245016   0.141   5.819  16.807  0.3006  0.6467 -0.1332
 7842TIP3    H145017   0.214   5.768  16.773  0.5611  1.1394 -0.3172
 7842TIP3    H245018   0.070   5.755  16.816  0.2564  0.4685 -1.4825
 7843TIP3   OH245019   6.696   5.623  16.946  0.0526  0.3085 -0.2233
 7843TIP3    H145020   6.688   5.686  16.875  0.8388  0.6806  0.0052
 7843TIP3    H245021   6.754   5.555  16.911  1.1453  0.9192  0.3236
 7844TIP3   OH245022   0.324   1.874   6.419  0.6855  0.2123 -0.3377
 7844TIP3    H145023   0.328   1.819   6.497  0.4337 -2.1097 -1.8734
 7844TIP3    H245024   0.414   1.907   6.408  1.0601 -0.6435  0.0921
 7845TIP3   OH245025   5.579   5.934   3.794 -0.5502 -0.1607  0.3595
 7845TIP3    H145026   5.617   5.853   3.761 -1.9914 -0.6635 -0.1397
 7845TIP3    H245027   5.649   5.973   3.847  0.7319 -0.9010 -0.7007
 7846TIP3   OH245028   3.223   0.221  13.630 -0.0039 -0.6409  0.3095
 7846TIP3    H145029   3.282   0.156  13.591  0.9760  0.1282  0.4838
 7846TIP3    H245030   3.247   0.222  13.722  0.3566  0.3455  0.2100
 7847TIP3   OH245031   4.063   2.274  12.529 -0.3876 -0.3881 -0.3347
 7847TIP3    H145032   4.033   2.364  12.538  1.1147 -0.0013  1.1956
 7847TIP3    H245033   4.019   2.242  12.450  1.5944  2.7329 -2.9694
 7848TIP3   OH245034   0.494   1.676   3.793 -0.1645 -0.1817  0.4178
 7848TIP3    H145035   0.410   1.697   3.833 -0.5735  1.8223 -1.3225
 7848TIP3    H245036   0.559   1.726   3.843 -0.5065  1.2204 -0.4820
 7849TIP3   OH245037   3.723   2.974   3.708 -0.0763  0.6362  0.0073
 7849TIP3    H145038   3.745   2.886   3.736  0.4654  0.0786 -1.9956
 7849TIP3    H245039   3.756   3.031   3.778 -0.0654 -0.7045  1.1246
 7850TIP3   OH245040   6.154   4.070  15.232  0.3474  0.0326  0.1614
 7850TIP3    H145041   6.165   3.984  15.193 -0.5208  0.9514 -2.3677
 7850TIP3    H245042   6.241   4.095  15.262  0.7191 -1.4552  0.3796
 7851TIP3   OH245043   0.086   0.881  12.763  0.4129  0.3393  0.1353
 7851TIP3    H145044   0.011   0.940  12.755 -0.2520 -0.5629 -0.4323
 7851TIP3    H245045   0.130   0.908  12.844 -0.3344  1.0893  0.2981
 7852TIP3   OH245046   4.515   1.539   3.212 -0.3572 -0.4238 -0.3812
 7852TIP3    H145047   4.434   1.502   3.177 -0.5902 -2.4050  1.9395
 7852TIP3    H245048   4.488   1.585   3.291  0.5244  0.9582 -0.8622
 7853TIP3   OH245049   2.111   3.704  13.818  0.2671 -0.0694  0.0379
 7853TIP3    H145050   2.081   3.755  13.894  0.6224 -0.3921  0.3991
 7853TIP3    H245051   2.038   3.708  13.756  0.1259  0.5187  0.2389
 7854TIP3   OH245052   2.003   0.091  14.605  1.1277  0.0695  0.6553
 7854TIP3    H145053   1.951   0.026  14.557 -0.5324  1.6193  0.2442
 7854TIP3    H245054   1.999   0.063  14.696  1.2867 -0.9337  0.3656
 7855TIP3   OH245055   2.820   3.370  13.192  0.7052 -0.1371  0.7739
 7855TIP3    H145056   2.746   3.316  13.220  1.0813 -1.0421  0.0692
 7855TIP3    H245057   2.781   3.438  13.137  0.6083 -2.3901 -2.1991
 7856TIP3   OH245058   4.591   5.632  11.686  0.5072  0.0479 -0.2096
 7856TIP3    H145059   4.518   5.605  11.630 -0.8860  1.4783  0.8210
 7856TIP3    H245060   4.665   5.639  11.626 -0.1309 -1.6156 -1.2561
 7857TIP3   OH245061   1.415   2.400   3.552 -0.1932 -0.3094 -0.2829
 7857TIP3    H145062   1.465   2.472   3.512 -0.4925  1.7018  2.6409
 7857TIP3    H245063   1.324   2.428   3.544 -0.4261 -1.0433 -0.2717
 7858TIP3   OH245064   5.894   1.236  15.599 -0.3532 -0.6416  0.5285
 7858TIP3    H145065   5.971   1.246  15.544 -0.0464 -0.1145  1.0447
 7858TIP3    H245066   5.922   1.176  15.669  0.1298  0.8459  1.6626
 7859TIP3   OH245067   0.374   1.999   1.746  0.5059 -0.0063  0.7834
 7859TIP3    H145068   0.397   1.938   1.675  2.6682  1.9665 -0.3519
 7859TIP3    H245069   0.438   1.981   1.814  0.6813  0.4987  0.7515
 7860TIP3   OH245070   3.520   2.764   0.394 -0.0847 -0.7100 -0.3706
 7860TIP3    H145071   3.504   2.856   0.418 -0.6356 -0.8117 -0.3565
 7860TIP3    H245072   3.443   2.717   0.424 -0.8309 -0.8407 -2.3518
 7861TIP3   OH245073   4.793   4.604   0.212  0.5483 -0.1241 -0.1792
 7861TIP3    H145074   4.874   4.587   0.164  1.2841  0.0310  0.9671
 7861TIP3    H245075   4.819   4.666   0.281 -0.3049 -0.9212  0.8912
 7862TIP3   OH245076   2.401   0.270  16.748  0.4395 -0.0532  0.5039
 7862TIP3    H145077   2.413   0.218  16.828  2.0320 -1.5159 -0.5926
 7862TIP3    H245078   2.459   0.228  16.685 -1.5323  0.4138 -1.7400
 7863TIP3   OH245079   2.570   0.326  10.596 -0.4280  0.2556  0.1417
 7863TIP3    H145080   2.650   0.364  10.631 -0.6340  0.6688  0.1689
 7863TIP3    H245081   2.595   0.237  10.571 -0.2471 -0.0115  1.2249
 7864TIP3   OH245082   2.001   2.297  12.555  0.3108 -0.3214 -0.1918
 7864TIP3    H145083   2.042   2.313  12.640  0.7083 -0.9424 -0.2619
 7864TIP3    H245084   2.066   2.329  12.491  0.9249 -1.7634 -0.3186
 7865TIP3   OH245085   3.625   0.364  16.136  0.0896 -0.4660  0.6570
 7865TIP3    H145086   3.562   0.317  16.081  0.8781 -1.6337  0.7185
 7865TIP3    H245087   3.597   0.347  16.226 -0.6388  0.6553  0.6674
 7866TIP3   OH245088   2.261   2.630   4.159 -0.2396  0.4626  0.3902
 7866TIP3    H145089   2.307   2.690   4.218 -0.4505 -0.4498  1.5213
 7866TIP3    H245090   2.173   2.668   4.152  0.2492  1.4617 -0.6819
 7867TIP3   OH245091   3.676   2.797  13.626  0.4862 -0.5477  0.3014
 7867TIP3    H145092   3.720   2.738  13.566  0.6768  0.1510 -0.2579
 7867TIP3    H245093   3.746   2.851  13.663  0.0979  0.8770 -0.9326
 7868TIP3   OH245094   6.604   1.607  15.982 -0.8921  0.5880  0.0768
 7868TIP3    H145095   6.585   1.647  16.067  2.1617 -1.5004  1.9348
 7868TIP3    H245096   6.524   1.559  15.960 -1.9208  1.5507  1.5143
 7869TIP3   OH245097   4.676   0.128  12.705  0.4160 -0.8649 -0.5486
 7869TIP3    H145098   4.723   0.208  12.726 -0.4977 -0.3548 -0.3679
 7869TIP3    H245099   4.669   0.082  12.789 -4.4202  1.8054  0.9426
 7870TIP3   OH245100   6.675   4.288  10.542  0.5932  0.1323  0.3038
 7870TIP3    H145101   6.591   4.242  10.551 -1.0960  2.1622 -3.1185
 7870TIP3    H245102   6.652   4.381  10.544  3.1682  0.8469  1.7040
 7871TIP3   OH245103   3.551   5.488   4.862 -0.9658  0.0741  0.2191
 7871TIP3    H145104   3.518   5.407   4.823  1.0180 -0.5318 -0.2669
 7871TIP3    H245105   3.487   5.555   4.835 -1.3420 -0.8951 -1.4322
 7872TIP3   OH245106   0.352   5.356  13.201 -0.2185  0.2284  0.2666
 7872TIP3    H145107   0.354   5.449  13.222 -2.3946 -0.0345  1.9490
 7872TIP3    H245108   0.260   5.336  13.185  0.3006 -1.4792 -0.9510
 7873TIP3   OH245109   4.272   2.255   5.703 -0.4695  0.2868  0.5188
 7873TIP3    H145110   4.331   2.316   5.747  0.6171  0.5387 -1.1882
 7873TIP3    H245111   4.203   2.238   5.767  1.0752  0.5167  2.3466
 7874TIP3   OH245112   5.905   2.323   1.719 -0.0304 -0.2579 -0.0723
 7874TIP3    H145113   5.817   2.353   1.696  0.6934  1.4262 -0.8328
 7874TIP3    H245114   5.913   2.238   1.676 -0.7727  0.2354 -1.2524
 7875TIP3   OH245115   4.823   4.769  13.587  0.0454 -0.0882 -0.0067
 7875TIP3    H145116   4.734   4.802  13.579  0.1793  0.0398 -1.1243
 7875TIP3    H245117   4.818   4.702  13.655 -0.5379  1.1475  1.1995
 7876TIP3   OH245118   1.895   1.769  16.719  0.5497 -0.6463  0.7524
 7876TIP3    H145119   1.821   1.799  16.666 -1.3366 -2.5778  2.1123
 7876TIP3    H245120   1.903   1.835  16.788  2.9471  1.8207 -1.6386
 7877TIP3   OH245121   0.536   2.015  13.161  0.2526 -0.2712  0.0755
 7877TIP3    H145122   0.552   2.073  13.235 -1.0761 -0.7999  0.8075
 7877TIP3    H245123   0.458   2.051  13.118 -0.8862 -1.7146  0.8192
 7878TIP3   OH245124   3.536   5.834  11.448  0.5146 -0.7910 -0.0203
 7878TIP3    H145125   3.595   5.854  11.375  0.1349 -0.1146 -0.1511
 7878TIP3    H245126   3.592   5.838  11.525  0.8898 -1.3548 -0.2572
 7879TIP3   OH245127   1.244   0.119   3.005 -0.6674  0.8880  0.1572
 7879TIP3    H145128   1.154   0.137   3.033 -0.3645 -0.7918  2.4931
 7879TIP3    H245129   1.282   0.206   2.994 -1.8911  1.6812  1.6609
 7880TIP3   OH245130   4.014   5.527  12.456  0.4683  0.4144  0.3651
 7880TIP3    H145131   4.050   5.492  12.375  0.9117  0.2928  0.6109
 7880TIP3    H245132   3.946   5.588  12.428 -1.9426 -2.2988 -0.0745
 7881TIP3   OH245133   3.487   5.389  10.877  0.5965  0.0765 -0.2455
 7881TIP3    H145134   3.551   5.412  10.809  1.1511 -1.3273 -0.2221
 7881TIP3    H245135   3.408   5.367  10.829  0.9990 -0.9467 -0.4619
 7882TIP3   OH245136   5.447   0.412  15.254  0.0439 -0.2168 -0.1641
 7882TIP3    H145137   5.351   0.410  15.250  0.0142 -0.4430  0.6207
 7882TIP3    H245138   5.475   0.350  15.186 -0.3529  0.1052 -0.6309
 7883TIP3   OH245139   2.506   1.188   3.199 -0.1804  0.4938 -0.2070
 7883TIP3    H145140   2.464   1.135   3.131  0.0272  1.2546 -0.9475
 7883TIP3    H245141   2.553   1.125   3.253  0.3194 -0.0535 -1.2560
 7884TIP3   OH245142   0.578   1.602  16.444  0.1146 -0.0901  0.1064
 7884TIP3    H145143   0.504   1.636  16.495 -0.1850 -2.4188  1.3234
 7884TIP3    H245144   0.538   1.552  16.373  0.4608 -1.4552  0.8312
 7885TIP3   OH245145   5.269   5.640  12.056  0.0603 -0.0343 -0.3563
 7885TIP3    H145146   5.359   5.611  12.040  0.2895  0.3126  0.2711
 7885TIP3    H245147   5.278   5.723  12.102 -0.5336 -1.1417  1.9125
 7886TIP3   OH245148   6.277   6.295  12.182 -0.8988 -0.2984  0.3751
 7886TIP3    H145149   6.264   6.388  12.167  0.7166 -0.1560 -0.3417
 7886TIP3    H245150   6.359   6.289  12.231 -1.0821 -1.3282  0.5812
 7887TIP3   OH245151   0.087   4.527   1.712 -0.3332  0.1071  0.0411
 7887TIP3    H145152  -0.006   4.511   1.691 -0.3427 -0.9247  0.8356
 7887TIP3    H245153   0.128   4.441   1.706  0.3348  0.3568  0.8875
 7888TIP3   OH245154   0.907   6.106   0.087 -0.0651  0.5415  0.2292
 7888TIP3    H145155   1.000   6.083   0.082 -0.6147 -1.8038 -2.9324
 7888TIP3    H245156   0.865   6.027   0.122 -1.1684 -0.1437 -2.3814
 7889TIP3   OH245157   4.411   0.715  11.681 -0.3190  0.0174  0.2495
 7889TIP3    H145158   4.360   0.763  11.616  0.9823  0.0553 -0.7909
 7889TIP3    H245159   4.478   0.670  11.630 -0.2953 -1.3115  1.4155
 7890TIP3   OH245160   0.966   1.498   0.916  0.2040 -0.7615 -0.0816
 7890TIP3    H145161   0.887   1.538   0.880 -0.3348 -0.2315  1.5606
 7890TIP3    H245162   1.036   1.523   0.856 -0.7874 -0.7763 -1.2721
 7891TIP3   OH245163   1.177   3.618   1.367 -0.5983  0.6764  0.1955
 7891TIP3    H145164   1.095   3.636   1.411  0.0660 -0.4131  2.0106
 7891TIP3    H245165   1.195   3.526   1.387  1.1396  0.9375 -0.0112
 7892TIP3   OH245166   2.703   4.814   6.660  0.3003 -0.5931 -0.0002
 7892TIP3    H145167   2.751   4.883   6.614  1.8315 -0.4258  1.7383
 7892TIP3    H245168   2.625   4.800   6.606  2.0375 -0.5569 -2.7169
 7893TIP3   OH245169   3.413   0.386  13.776 -0.3720  0.1885 -0.1162
 7893TIP3    H145170   3.471   0.327  13.727 -0.5670  0.0029 -0.1242
 7893TIP3    H245171   3.372   0.331  13.842  1.1432  0.7548  1.3806
 7894TIP3   OH245172   1.810   2.225  15.258 -0.3304 -0.1127  0.4222
 7894TIP3    H145173   1.781   2.151  15.205  0.5963  1.0038 -1.7792
 7894TIP3    H245174   1.750   2.227  15.332 -2.7226 -0.8594 -1.3769
 7895TIP3   OH245175   6.116   2.000   5.627 -0.0864 -0.1119  0.5351
 7895TIP3    H145176   6.164   1.929   5.585  0.1175 -0.1026  0.7470
 7895TIP3    H245177   6.102   1.970   5.717 -2.5835 -1.1451 -0.1310
 7896TIP3   OH245178   1.241   0.745  16.803 -0.3277  0.1179 -0.0562
 7896TIP3    H145179   1.232   0.757  16.897 -1.1452  0.5932 -0.1830
 7896TIP3    H245180   1.243   0.651  16.790  0.1548  0.0490  0.4586
 7897TIP3   OH245181   3.478   6.000   0.164  0.2813 -0.5783 -0.9253
 7897TIP3    H145182   3.551   5.993   0.103  1.5467  1.7442  0.2063
 7897TIP3    H245183   3.474   5.915   0.208  3.3936 -0.2915  0.1141
 7898TIP3   OH245184   5.104   3.475   5.847  0.4203  0.2466  0.2160
 7898TIP3    H145185   5.060   3.410   5.902 -0.6746 -0.2122 -1.1451
 7898TIP3    H245186   5.035   3.536   5.822  0.5300 -0.3940 -1.8359
 7899TIP3   OH245187   1.687   4.181   3.483  0.3547  0.3688 -0.6569
 7899TIP3    H145188   1.704   4.132   3.403 -1.6201 -0.1212 -0.8363
 7899TIP3    H245189   1.634   4.256   3.454 -1.7490 -0.6554  0.3078
 7900TIP3   OH245190   4.593   2.770  13.554  0.5688 -0.1779 -0.2736
 7900TIP3    H145191   4.640   2.848  13.524 -0.0729  0.2309 -0.2330
 7900TIP3    H245192   4.609   2.705  13.485  0.0931  0.3786 -0.9204
 7901TIP3   OH245193   4.890   4.578   4.781 -0.1015  0.0523  0.7470
 7901TIP3    H145194   4.901   4.672   4.791  0.2774 -0.1778  2.8906
 7901TIP3    H245195   4.802   4.560   4.814 -0.5476 -0.2578 -0.5443
 7902TIP3   OH245196   1.504   1.615   1.636 -0.1532 -0.1996  0.0375
 7902TIP3    H145197   1.429   1.672   1.647 -0.8790 -0.8040 -1.4685
 7902TIP3    H245198   1.470   1.539   1.588  1.1563 -1.0588  0.4002
 7903TIP3   OH245199   6.771   3.676   1.655 -1.0066  0.9343 -0.3315
 7903TIP3    H145200   6.779   3.633   1.740 -1.5914 -1.8995 -1.5911
 7903TIP3    H245201   6.728   3.760   1.674  1.3193  1.6668  2.4203
 7904TIP3   OH245202   3.032   6.027   5.545 -0.2311  0.0602  0.3783
 7904TIP3    H145203   3.016   6.071   5.462 -0.9399 -1.5994 -0.4096
 7904TIP3    H245204   3.013   6.093   5.612  0.5455  1.4855 -0.7532
 7905TIP3   OH245205   3.791   2.476   2.035 -0.2524  0.1402  0.3654
 7905TIP3    H145206   3.715   2.418   2.046 -0.3240  0.3400  0.9445
 7905TIP3    H245207   3.792   2.495   1.941 -0.1724 -0.8737  0.1420
 7906TIP3   OH245208   6.638   5.385  13.091 -0.0654  0.0519 -0.1711
 7906TIP3    H145209   6.591   5.368  13.010 -3.4904  0.8939  1.4268
 7906TIP3    H245210   6.606   5.471  13.119 -1.1960 -1.3143  3.3414
 7907TIP3   OH245211   1.170   6.106  11.789  0.4370 -0.6203  0.3725
 7907TIP3    H145212   1.198   6.161  11.862  0.8869 -0.4148  0.0514
 7907TIP3    H245213   1.221   6.138  11.714 -0.4699 -0.4218 -0.1685
 7908TIP3   OH245214   1.852   0.679  11.420  0.3680  0.1863  0.9696
 7908TIP3    H145215   1.854   0.593  11.460  0.0179 -0.7085 -0.8197
 7908TIP3    H245216   1.766   0.684  11.378 -0.1874  1.9891  2.2090
 7909TIP3   OH245217   4.691   0.182   0.440 -0.3073 -0.0074  0.1221
 7909TIP3    H145218   4.664   0.154   0.528  0.7936  1.3302  0.9234
 7909TIP3    H245219   4.756   0.117   0.413 -0.1630 -0.0574  0.5801
 7910TIP3   OH245220   2.908   3.651   6.142  0.5089  0.1682 -0.2785
 7910TIP3    H145221   3.000   3.672   6.159  0.7744 -0.5282 -0.7789
 7910TIP3    H245222   2.883   3.594   6.215  0.5914  0.0461 -0.3450
 7911TIP3   OH245223   6.051   5.149   1.688 -0.3109  0.0519  0.2263
 7911TIP3    H145224   5.995   5.166   1.763 -1.5757 -1.7221 -0.2479
 7911TIP3    H245225   6.025   5.215   1.623 -1.5249 -0.4126  0.2094
 7912TIP3   OH245226   3.286   6.163   5.645 -0.3962  0.2831 -0.4810
 7912TIP3    H145227   3.346   6.125   5.581 -0.7453  1.2233 -1.3911
 7912TIP3    H245228   3.200   6.159   5.603 -0.2732  3.2704 -1.2316
 7913TIP3   OH245229   0.029   5.410  14.172 -0.3037 -0.2233 -0.5906
 7913TIP3    H145230  -0.020   5.450  14.244 -1.0327 -0.0822 -1.1532
 7913TIP3    H245231  -0.037   5.363  14.121  0.1152  0.1054 -1.4647
 7914TIP3   OH245232   4.000   2.503  13.030  0.0124  0.0078  0.0598
 7914TIP3    H145233   4.012   2.594  13.005  0.2443  0.4481  1.6477
 7914TIP3    H245234   3.945   2.466  12.961 -1.8303  1.9054  0.3837
 7915TIP3   OH245235   6.260   5.061  15.272  0.3811 -0.3316 -0.3020
 7915TIP3    H145236   6.168   5.083  15.258  0.9693  1.3986 -1.7228
 7915TIP3    H245237   6.267   5.050  15.367 -0.9641  1.0658 -0.0056
 7916TIP3   OH245238   6.186   3.358   5.107  0.0503 -0.4218  1.0380
 7916TIP3    H145239   6.133   3.422   5.154 -0.1348 -0.4497  0.8694
 7916TIP3    H245240   6.128   3.323   5.040  0.5186  0.1206  0.3380
 7917TIP3   OH245241   4.526   6.436  14.467  0.2391 -0.2876  0.2473
 7917TIP3    H145242   4.486   6.401  14.388 -2.3165  0.2586  1.2116
 7917TIP3    H245243   4.453   6.448  14.528  2.0331 -0.1221  2.4937
 7918TIP3   OH245244   3.706   2.413  15.189 -0.2090  0.0368 -0.0160
 7918TIP3    H145245   3.626   2.465  15.196  0.0407  0.2492  1.7549
 7918TIP3    H245246   3.767   2.468  15.140  0.0595  1.4734  1.8411
 7919TIP3   OH245247   5.197   4.972  12.201  0.7067  0.4346  0.3173
 7919TIP3    H145248   5.239   5.020  12.130  1.1498  1.7674  1.4332
 7919TIP3    H245249   5.206   4.880  12.177  1.7212  0.8182 -0.8594
 7920TIP3   OH245250   3.818   4.818  14.873  0.5221 -0.5470  0.7413
 7920TIP3    H145251   3.758   4.884  14.838  0.3540 -0.5023  1.1129
 7920TIP3    H245252   3.824   4.838  14.966  1.7193 -0.0671  0.5815
 7921TIP3   OH245253   3.512   3.359   2.101 -0.4317  0.3899 -0.1718
 7921TIP3    H145254   3.425   3.326   2.082 -1.2285  1.8971  0.6024
 7921TIP3    H245255   3.496   3.444   2.143  1.3773  0.2127  0.9667
 7922TIP3   OH245256   4.080   2.369   4.213 -0.6155 -0.0440  0.5455
 7922TIP3    H145257   4.142   2.434   4.248 -0.7626 -0.0913  0.8900
 7922TIP3    H245258   4.036   2.415   4.141 -1.5867  0.6530  1.5633
 7923TIP3   OH245259   1.600   2.817   0.547 -0.3743  0.2243  0.4484
 7923TIP3    H145260   1.559   2.763   0.479  0.4230 -0.6499  0.6531
 7923TIP3    H245261   1.690   2.785   0.553 -0.2777  0.6547  1.5398
 7924TIP3   OH245262   6.551   5.639  11.258 -0.1981  0.0947  0.6839
 7924TIP3    H145263   6.577   5.646  11.166 -0.7289 -0.2623  0.5047
 7924TIP3    H245264   6.627   5.673  11.307  0.5245 -0.7294  0.1712
 7925TIP3   OH245265   4.512   6.621  12.377 -0.4983 -0.5781  0.4406
 7925TIP3    H145266   4.449   6.659  12.316  0.6258  2.1687  0.8519
 7925TIP3    H245267   4.466   6.617  12.460 -1.1393 -1.7103  0.0550
 7926TIP3   OH245268   5.969   1.572  16.016  0.1421 -0.1599  0.3110
 7926TIP3    H145269   5.921   1.544  16.094  0.1793  0.1628  0.4536
 7926TIP3    H245270   6.060   1.551  16.036 -0.0637 -1.9386 -0.4766
 7927TIP3   OH245271   4.614   0.474   1.602 -0.1640  0.1127  0.0868
 7927TIP3    H145272   4.631   0.568   1.604  0.8251 -0.0530  0.2759
 7927TIP3    H245273   4.607   0.452   1.509 -1.5782  0.5557  0.0717
 7928TIP3   OH245274   4.967   0.961   2.284 -0.1004  0.1582  0.2181
 7928TIP3    H145275   4.919   1.041   2.307 -1.6866 -1.2832  2.2552
 7928TIP3    H245276   5.059   0.984   2.295 -0.5106  1.7799  0.4484
 7929TIP3   OH245277   5.632   1.061   0.410 -0.0102  0.1639 -0.0845
 7929TIP3    H145278   5.593   0.975   0.395  0.2249  0.3797 -2.3430
 7929TIP3    H245279   5.587   1.119   0.348  1.2047  1.2206 -0.0371
 7930TIP3   OH245280   6.797   1.831  11.034  0.3113 -0.3241  0.2686
 7930TIP3    H145281   6.856   1.818  11.108 -0.3809  1.2496  1.1520
 7930TIP3    H245282   6.855   1.846  10.959  1.0328 -0.4917  0.7846
 7931TIP3   OH245283   3.090   2.984  16.711  0.7947 -0.1699 -0.3781
 7931TIP3    H145284   3.069   2.890  16.720  2.5875 -0.7267 -1.6098
 7931TIP3    H245285   3.088   3.000  16.617 -0.6423  1.3572 -0.1297
 7932TIP3   OH245286   1.090   1.069   1.350  0.2354 -0.8011  0.3415
 7932TIP3    H145287   1.079   1.020   1.432 -1.5146 -1.8635 -0.4694
 7932TIP3    H245288   1.117   1.003   1.286 -1.3584 -0.6004 -0.5908
 7933TIP3   OH245289   4.923   2.313  13.607 -0.5701 -0.2345  0.9793
 7933TIP3    H145290   4.924   2.232  13.658  0.2911 -0.4119  0.7002
 7933TIP3    H245291   4.993   2.366  13.645  1.0169 -0.9070 -0.8145
 7934TIP3   OH245292   0.935   1.250   5.509 -0.0221 -0.0608 -0.8114
 7934TIP3    H145293   1.001   1.182   5.488 -1.0283 -0.2536 -3.9136
 7934TIP3    H245294   0.981   1.332   5.493  0.2703 -0.0870 -0.1516
 7935TIP3   OH245295   2.736   2.098   2.005  0.4145 -0.3689 -0.1539
 7935TIP3    H145296   2.733   2.059   2.093 -0.1971  2.6069  1.2634
 7935TIP3    H245297   2.655   2.149   2.000  1.8663  1.9389 -1.2362
 7936TIP3   OH245298   3.444   2.187   0.813 -0.0218  0.0814  0.3120
 7936TIP3    H145299   3.513   2.252   0.797  0.4525 -0.8700 -1.9815
 7936TIP3    H245300   3.370   2.237   0.846  0.7290  1.6167 -0.2469
 7937TIP3   OH245301   2.890   0.382  12.996  0.0971  0.1668  0.0535
 7937TIP3    H145302   2.899   0.436  13.075 -2.9392 -1.6525  1.8660
 7937TIP3    H245303   2.924   0.296  13.022 -0.6129 -0.3578 -0.7073
 7938TIP3   OH245304   5.387   1.687   0.685  0.5553  0.0444 -0.1887
 7938TIP3    H145305   5.293   1.702   0.672  0.6028  0.9454  0.4464
 7938TIP3    H245306   5.394   1.661   0.777  0.9843  0.5462 -0.0754
 7939TIP3   OH245307   1.384   0.077  11.754  0.3317  0.5274  0.1935
 7939TIP3    H145308   1.324   0.011  11.788  0.4952 -0.1106 -0.7220
 7939TIP3    H245309   1.410   0.128  11.831  0.8409 -0.9899  1.0592
 7940TIP3   OH245310   1.327   5.884   4.568 -0.3300  0.6203  0.1617
 7940TIP3    H145311   1.304   5.888   4.661  1.4078 -0.9057  0.7040
 7940TIP3    H245312   1.245   5.866   4.523 -0.9851  0.1547  1.5185
 7941TIP3   OH245313   2.489   3.562  11.025 -0.0475 -0.2537 -0.1315
 7941TIP3    H145314   2.476   3.641  10.972  1.3196 -1.6107 -2.6229
 7941TIP3    H245315   2.455   3.491  10.971 -0.3267 -1.5212  1.6361
 7942TIP3   OH245316   4.384   1.434   5.050 -0.0458 -0.1222  0.0976
 7942TIP3    H145317   4.462   1.476   5.013 -1.4255  1.8812 -0.7864
 7942TIP3    H245318   4.407   1.413   5.140  1.3684  0.8232 -0.0180
 7943TIP3   OH245319   6.681   3.296  12.453 -0.4382  0.6567 -0.0738
 7943TIP3    H145320   6.694   3.209  12.492 -2.8530 -0.3008 -1.1661
 7943TIP3    H245321   6.758   3.309  12.398  0.6368 -0.1642  1.1848
 7944TIP3   OH245322   2.917   4.459   5.404  0.5138 -0.1174 -0.6730
 7944TIP3    H145323   2.888   4.459   5.496  2.1794 -1.4587 -0.0829
 7944TIP3    H245324   3.004   4.499   5.407  0.3359  0.3744 -1.7810
 7945TIP3   OH245325   6.203   4.556   4.992 -0.3877  0.8016  0.2537
 7945TIP3    H145326   6.251   4.480   5.024 -2.1961  0.0305  1.3141
 7945TIP3    H245327   6.239   4.630   5.041  0.6924  0.4811 -0.0411
 7946TIP3   OH245328   6.817   4.513   0.694 -0.1115  0.0051 -0.0598
 7946TIP3    H145329   6.887   4.578   0.688 -1.0379  1.0634  0.2007
 7946TIP3    H245330   6.741   4.555   0.652 -1.1711 -0.2270  1.5110
 7947TIP3   OH245331   0.592   3.419   0.361  0.2248 -1.1015  0.0640
 7947TIP3    H145332   0.550   3.500   0.332  1.8758 -0.7828 -1.7043
 7947TIP3    H245333   0.607   3.432   0.455  0.3446  0.6158 -0.1524
 7948TIP3   OH245334   1.719   6.123  17.064 -1.0565  0.5525 -0.0042
 7948TIP3    H145335   1.792   6.158  17.115 -0.6933 -0.2837  0.0791
 7948TIP3    H245336   1.649   6.187  17.074 -0.6276  0.9253  0.6591
 7949TIP3   OH245337   3.969   4.629   1.498 -0.0355  0.1673  0.0405
 7949TIP3    H145338   4.053   4.673   1.494  0.3058 -0.4878 -0.1700
 7949TIP3    H245339   3.959   4.604   1.589 -0.6954  1.5398  0.3724
 7950TIP3   OH245340   2.248   6.106  13.279  0.0990  0.6491 -0.3298
 7950TIP3    H145341   2.207   6.183  13.317 -2.4656  0.1309 -1.8441
 7950TIP3    H245342   2.222   6.107  13.187  1.3905 -1.1529 -0.7938
 7951TIP3   OH245343   4.846   3.758   6.410 -0.7395 -0.2964 -0.3884
 7951TIP3    H145344   4.824   3.850   6.422 -0.6125 -0.5180  2.0323
 7951TIP3    H245345   4.926   3.759   6.358  0.5748  1.1437  1.5063
 7952TIP3   OH245346   5.948   1.453   1.413 -0.2502 -0.2933 -0.1970
 7952TIP3    H145347   5.914   1.439   1.502  1.0851  1.0689  0.5757
 7952TIP3    H245348   6.038   1.422   1.417 -0.8228 -2.4032 -1.7816
 7953TIP3   OH245349   4.835   2.022   4.959 -0.2635  0.1875  0.5302
 7953TIP3    H145350   4.873   2.003   5.044  0.6624 -0.1193  0.0610
 7953TIP3    H245351   4.907   2.056   4.907 -0.4305 -1.1083 -0.6105
 7954TIP3   OH245352   1.267   5.808  14.000  0.4137 -0.0690  0.3639
 7954TIP3    H145353   1.356   5.782  14.023  1.0615  0.7925 -1.0566
 7954TIP3    H245354   1.236   5.739  13.942  0.5022  0.0948  0.1203
 7955TIP3   OH245355   2.154   2.260  12.269 -0.1776 -0.1311 -0.8798
 7955TIP3    H145356   2.249   2.258  12.262 -0.1576  0.7836 -0.9285
 7955TIP3    H245357   2.127   2.330  12.210 -0.8589 -0.1558 -0.6052
 7956TIP3   OH245358   6.005   4.325   0.293 -0.4198 -0.3631 -0.1229
 7956TIP3    H145359   6.032   4.234   0.305  0.2801 -0.4583 -2.1404
 7956TIP3    H245360   5.909   4.323   0.297 -0.4213 -0.5581  3.4791
 7957TIP3   OH245361   4.033   1.491  11.466 -0.5072  0.1448  0.1365
 7957TIP3    H145362   4.037   1.572  11.516  0.5548  2.4008 -3.2604
 7957TIP3    H245363   4.125   1.466  11.454 -0.7469 -0.4364 -0.5419
 7958TIP3   OH245364   2.077   5.480  17.087  0.6864 -0.2969 -0.2872
 7958TIP3    H145365   2.091   5.574  17.094  3.9891 -0.7893  2.0857
 7958TIP3    H245366   2.062   5.465  16.993  1.4929  2.4425 -0.9391
 7959TIP3   OH245367   5.428   4.343  12.784 -0.4472 -0.1779 -0.3684
 7959TIP3    H145368   5.494   4.412  12.790 -0.9236  0.4461 -1.8512
 7959TIP3    H245369   5.477   4.265  12.757 -0.3985  0.5530 -2.6315
 7960TIP3   OH245370   4.874   0.251  14.871  0.1733 -0.1294  0.8650
 7960TIP3    H145371   4.913   0.226  14.955  1.8714 -0.3880  0.0571
 7960TIP3    H245372   4.830   0.171  14.841 -1.0792  0.1752  1.8111
 7961TIP3   OH245373   5.415   4.310  13.796 -0.2367 -0.1853  0.1425
 7961TIP3    H145374   5.342   4.370  13.784  0.4041  0.8725  1.2947
 7961TIP3    H245375   5.492   4.366  13.798  0.5667 -1.2186 -0.4345
 7962TIP3   OH245376   0.579   0.213   5.036  0.0153 -0.0541  0.0221
 7962TIP3    H145377   0.619   0.128   5.020  0.4391 -0.2381  1.8534
 7962TIP3    H245378   0.641   0.258   5.094 -1.2584  0.6093  0.9125
 7963TIP3   OH245379   4.185   0.491   4.106  0.0122  0.7437 -0.1839
 7963TIP3    H145380   4.114   0.436   4.137 -1.0305  2.2487  0.1911
 7963TIP3    H245381   4.251   0.487   4.175 -0.9403  1.5763  0.8043
 7964TIP3   OH245382   2.588   0.434   2.868  0.2119  0.1855 -0.1029
 7964TIP3    H145383   2.545   0.511   2.831  0.2741 -0.3598 -1.3384
 7964TIP3    H245384   2.676   0.464   2.891  0.0600  0.6086 -0.0644
 7965TIP3   OH245385   4.193   3.261  14.028  0.1099 -0.5259 -0.1064
 7965TIP3    H145386   4.107   3.284  14.064  0.8382 -1.1516  2.2258
 7965TIP3    H245387   4.228   3.344  13.996 -0.5447  0.1321  0.8065
 7966TIP3   OH245388   5.976   5.515  15.144 -0.1353 -0.2163 -0.2046
 7966TIP3    H145389   5.976   5.597  15.193 -1.8039 -0.6061  0.5406
 7966TIP3    H245390   6.025   5.454  15.200  0.6518  0.1355 -0.5090
 7967TIP3   OH245391   0.201   0.897   5.747 -0.1464 -0.1128 -0.4689
 7967TIP3    H145392   0.179   0.805   5.756 -2.8820  0.2947 -1.6379
 7967TIP3    H245393   0.156   0.940   5.820  0.9087  0.3446 -0.0639
 7968TIP3   OH245394   2.766   4.503  11.953 -0.3236  0.3965  0.2159
 7968TIP3    H145395   2.776   4.486  11.859  0.9780  0.9642  0.2264
 7968TIP3    H245396   2.707   4.578  11.958 -0.9519 -0.0687 -0.1100
 7969TIP3   OH245397   4.519   3.172  15.791  0.0105  0.2591  0.2566
 7969TIP3    H145398   4.475   3.242  15.838 -0.9261  0.9870 -1.5732
 7969TIP3    H245399   4.571   3.127  15.857  0.5519  2.5964  1.5229
 7970TIP3   OH245400   6.746   0.986  15.323  0.3885 -0.0104 -0.2544
 7970TIP3    H145401   6.841   0.984  15.310  0.4361 -0.4829  0.1573
 7970TIP3    H245402   6.710   0.967  15.236  0.6494  1.1855 -0.6453
 7971TIP3   OH245403   2.770   6.339   2.009  0.2837  0.3110 -0.2039
 7971TIP3    H145404   2.756   6.391   1.929 -0.3240  0.1751 -0.1860
 7971TIP3    H245405   2.683   6.309   2.034  0.5273 -0.0042  0.2750
 7972TIP3   OH245406   3.565   5.041  12.285 -0.8668  0.0722  0.9300
 7972TIP3    H145407   3.564   4.946  12.300  0.8649 -0.1348  0.0800
 7972TIP3    H245408   3.658   5.064  12.285 -1.2174  1.6314  0.3141
 7973TIP3   OH245409   6.617   0.040  15.321 -0.4561  0.1277  0.0150
 7973TIP3    H145410   6.608  -0.011  15.402 -0.0013  2.1290  1.3976
 7973TIP3    H245411   6.708   0.025  15.294 -1.0328 -1.7702 -1.0534
 7974TIP3   OH245412   5.307   2.275  15.498 -0.2018 -0.4664 -0.5592
 7974TIP3    H145413   5.308   2.267  15.593 -1.9913 -2.0042 -0.6081
 7974TIP3    H245414   5.385   2.228  15.469  1.2301  1.3615  0.1660
 7975TIP3   OH245415   0.495   0.715  13.893 -0.3410 -0.5159  0.8764
 7975TIP3    H145416   0.452   0.633  13.921  0.8849 -1.2147  0.7767
 7975TIP3    H245417   0.445   0.742  13.816  0.5812 -2.4296 -0.4991
 7976TIP3   OH245418   3.709   3.310  16.863  0.0274  0.6355  0.0315
 7976TIP3    H145419   3.786   3.366  16.865 -0.4234  1.3153 -0.9625
 7976TIP3    H245420   3.655   3.341  16.935 -0.2870  1.5897 -0.6044
 7977TIP3   OH245421   5.025   0.109   5.162  0.3840 -0.0363  0.5924
 7977TIP3    H145422   4.992   0.149   5.081 -1.0016 -2.2932 -0.0643
 7977TIP3    H245423   5.095   0.050   5.133 -0.8255 -1.6551  0.8359
 7978TIP3   OH245424   4.378   4.595  16.216  0.3619  0.0048 -0.0480
 7978TIP3    H145425   4.466   4.568  16.193  0.9154  0.8706  0.9339
 7978TIP3    H245426   4.389   4.683  16.252 -0.7932 -0.1848  0.8241
 7979TIP3   OH245427   3.274   1.571  13.393 -0.1545  0.0679  0.2009
 7979TIP3    H145428   3.304   1.480  13.394  1.2383  0.5015  1.3706
 7979TIP3    H245429   3.298   1.603  13.306 -0.3323 -0.5673 -0.0907
 7980TIP3   OH245430   2.375   4.626  11.993  0.2908  0.2649 -0.1474
 7980TIP3    H145431   2.299   4.658  11.945 -0.8257 -1.1301  0.5977
 7980TIP3    H245432   2.340   4.559  12.052  1.8216  0.8438  1.5446
 7981TIP3   OH245433   6.175   6.214   4.930 -0.4760  0.0547  0.2334
 7981TIP3    H145434   6.224   6.249   5.004  0.9116  0.3230 -0.7789
 7981TIP3    H245435   6.149   6.126   4.958  3.0880 -1.2759 -0.2084
 7982TIP3   OH245436   5.059   1.283  15.718  0.2096  0.1277 -0.1087
 7982TIP3    H145437   5.127   1.250  15.658 -0.4606  0.8299 -1.3077
 7982TIP3    H245438   5.100   1.356  15.763  0.0376  1.0586 -1.4132
 7983TIP3   OH245439   4.461   5.743  11.226  0.0032  0.5760  0.7672
 7983TIP3    H145440   4.451   5.818  11.168 -1.6364 -0.6868 -0.6737
 7983TIP3    H245441   4.538   5.697  11.194 -1.1703 -0.3859 -0.8325
 7984TIP3   OH245442   2.631   1.182  12.479 -0.0422  0.1574  0.0319
 7984TIP3    H145443   2.711   1.132  12.493  0.4572  0.3278 -1.9451
 7984TIP3    H245444   2.624   1.190  12.384 -3.0860 -0.9397  0.0708
 7985TIP3   OH245445   6.503   1.939  13.778 -0.2831  0.2550 -0.3967
 7985TIP3    H145446   6.440   1.873  13.750 -0.7002  0.5749 -0.2219
 7985TIP3    H245447   6.586   1.891  13.788 -0.9680 -0.6377  1.5338
 7986TIP3   OH245448   2.701   5.104   2.180 -0.4874 -0.6053  0.5537
 7986TIP3    H145449   2.795   5.118   2.193 -0.2401 -0.8539 -0.7876
 7986TIP3    H245450   2.689   5.115   2.085 -1.6388 -1.5537  0.5765
 7987TIP3   OH245451   6.381   3.126  13.061  0.3750 -0.9344  0.2602
 7987TIP3    H145452   6.331   3.086  12.990  1.2211  0.2750 -1.0650
 7987TIP3    H245453   6.472   3.101  13.044  0.6693 -0.0847  0.5294
 7988TIP3   OH245454   4.446   2.146   0.062  0.0161  0.3610 -0.0369
 7988TIP3    H145455   4.449   2.201   0.140 -2.4086  1.0995 -0.3654
 7988TIP3    H245456   4.494   2.197  -0.004 -0.3441  1.0944  0.2477
 7989TIP3   OH245457   3.516   0.659  12.991 -0.6598 -0.2465 -0.0368
 7989TIP3    H145458   3.437   0.709  13.010 -0.2120  0.0252  1.1973
 7989TIP3    H245459   3.526   0.666  12.896 -0.9914  1.4507  0.0107
 7990TIP3   OH245460   6.556   0.393   0.419 -0.0042  0.9738  0.2461
 7990TIP3    H145461   6.461   0.383   0.417  0.1140 -0.2902 -1.2755
 7990TIP3    H245462   6.585   0.370   0.331  1.7530  0.8957  0.7938
 7991TIP3   OH245463   2.912   3.530   3.171 -0.1786 -0.3420  0.2261
 7991TIP3    H145464   2.927   3.522   3.265 -1.0471 -2.2681  0.2650
 7991TIP3    H245465   2.935   3.443   3.136  0.1025  0.3332 -1.3340
 7992TIP3   OH245466   3.352   0.075  12.258 -0.4190 -0.0456  0.2645
 7992TIP3    H145467   3.399   0.153  12.229 -2.3548  1.3305  0.6823
 7992TIP3    H245468   3.296   0.051  12.185  0.1729 -1.1168  0.1272
 7993TIP3   OH245469   0.314   1.429   1.733  0.1098 -0.4809 -0.0034
 7993TIP3    H145470   0.283   1.340   1.749  0.8561 -0.7626 -0.0785
 7993TIP3    H245471   0.237   1.484   1.748  0.1236 -0.9323  2.0620
 7994TIP3   OH245472   3.357   5.647  14.994 -0.4135  0.6024 -0.0184
 7994TIP3    H145473   3.366   5.577  14.929 -1.5180  0.5689 -0.1611
 7994TIP3    H245474   3.385   5.608  15.076 -1.3598 -0.1307 -0.0278
 7995TIP3   OH245475   3.856   2.116   1.594  0.5636  0.1872  0.5211
 7995TIP3    H145476   3.927   2.165   1.552  1.0425  0.5483  1.7362
 7995TIP3    H245477   3.876   2.119   1.687 -1.1977  0.5402  0.9203
 7996TIP3   OH245478   2.778   2.168  13.164  0.3672  0.1586 -0.1390
 7996TIP3    H145479   2.752   2.132  13.079  0.4782  1.3587 -0.6934
 7996TIP3    H245480   2.871   2.187  13.155  0.5496 -0.3834  0.5047
 7997TIP3   OH245481   5.515   1.877  12.133 -0.5693 -0.4248 -0.2578
 7997TIP3    H145482   5.427   1.895  12.165 -0.3079 -0.2854  0.4040
 7997TIP3    H245483   5.553   1.964  12.118  0.4137 -0.3708  2.1548
 7998TIP3   OH245484   0.814   2.322   6.668  0.6551  0.0672 -0.2298
 7998TIP3    H145485   0.741   2.383   6.670 -1.0376 -1.8386 -0.3404
 7998TIP3    H245486   0.800   2.265   6.744  0.9427 -1.4642 -1.2651
 7999TIP3   OH245487   0.972   5.964   1.624  0.0605  0.1373  0.2662
 7999TIP3    H145488   1.007   5.875   1.627 -0.6046 -0.3408 -2.7630
 7999TIP3    H245489   1.049   6.020   1.631  0.3499 -0.5144  3.9357
 8000TIP3   OH245490   2.992   5.453   4.721  0.6094 -0.6430  0.1944
 8000TIP3    H145491   3.080   5.491   4.730  1.2022 -1.7325 -0.7367
 8000TIP3    H245492   2.982   5.437   4.627 -1.3267  1.0914  0.0377
 8001TIP3   OH245493   6.468   0.733   3.545  0.6570  0.0886 -0.4691
 8001TIP3    H145494   6.466   0.823   3.578 -2.1158  0.5621 -1.6780
 8001TIP3    H245495   6.489   0.680   3.622 -0.9466  1.5199  1.0406
 8002TIP3   OH245496   1.317   4.214  11.608  0.2941  0.9111  0.3212
 8002TIP3    H145497   1.332   4.305  11.584  0.6134  0.4993 -1.1087
 8002TIP3    H245498   1.395   4.168  11.580 -0.2546  0.0490  0.1668
 8003TIP3   OH245499   6.677   4.016  16.884  0.1018  0.2582  0.2089
 8003TIP3    H145500   6.756   4.054  16.845  0.5480  1.1443  1.8818
 8003TIP3    H245501   6.619   4.090  16.897 -0.0791 -0.0248  1.0911
 8004TIP3   OH245502   2.570   6.405  12.221 -0.5848  0.0234 -0.1246
 8004TIP3    H145503   2.518   6.481  12.249  1.5506  1.2113  0.8636
 8004TIP3    H245504   2.630   6.440  12.156  2.4301  0.0099  2.3882
 8005TIP3   OH245505   0.096   2.500  15.629 -0.9548  0.5166 -0.0031
 8005TIP3    H145506   0.098   2.589  15.664 -0.5776  0.8385 -0.8006
 8005TIP3    H245507   0.149   2.448  15.690 -0.4528  1.0226 -0.0027
 8006TIP3   OH245508   0.761   5.367  12.727 -0.3956 -0.0355 -0.0649
 8006TIP3    H145509   0.683   5.391  12.778 -0.2993  0.7341 -0.2698
 8006TIP3    H245510   0.729   5.363  12.636 -0.0387  1.0533 -0.2493
 8007TIP3   OH245511   5.154   4.142  12.365 -0.4395  0.2486  0.0686
 8007TIP3    H145512   5.164   4.168  12.273 -1.4519 -0.3151 -0.2244
 8007TIP3    H245513   5.176   4.220  12.415 -0.7141  0.8277 -0.6946
 8008TIP3   OH245514   1.001   4.214   4.831 -0.0051 -0.2977 -0.6406
 8008TIP3    H145515   1.081   4.182   4.789  0.1628 -0.8759  0.1011
 8008TIP3    H245516   0.977   4.292   4.781  1.0511 -0.0812 -0.8302
 8009TIP3   OH245517   6.694   2.717   5.117 -0.4215 -0.2516 -0.2496
 8009TIP3    H145518   6.769   2.777   5.121 -1.2141  0.6805  1.2477
 8009TIP3    H245519   6.629   2.755   5.175 -0.9215 -2.6253  0.8692
 8010TIP3   OH245520   4.484   1.786   2.589  0.2833  0.1841  0.4991
 8010TIP3    H145521   4.407   1.798   2.644 -0.1065  0.9088 -0.1656
 8010TIP3    H245522   4.523   1.873   2.585  0.3235  0.1347 -0.3241
 8011TIP3   OH245523   4.369   1.348   2.656 -0.0915 -0.5194  0.1904
 8011TIP3    H145524   4.362   1.285   2.728 -0.1520  1.4316  1.9805
 8011TIP3    H245525   4.280   1.381   2.643 -0.0443 -0.6948 -0.6594
 8012TIP3   OH245526   6.495   0.603  13.061 -0.0713 -0.0464 -0.4956
 8012TIP3    H145527   6.553   0.641  12.995  0.4428  0.3900  0.1920
 8012TIP3    H245528   6.541   0.617  13.144 -0.8449 -0.3182 -0.0104
 8013TIP3   OH245529   2.345   2.141  10.508 -0.6968 -0.1674 -0.5688
 8013TIP3    H145530   2.282   2.163  10.577  0.7302  0.3552  0.6271
 8013TIP3    H245531   2.350   2.046  10.510  0.1034 -0.1317  0.8353
 8014TIP3   OH245532   0.274   3.521  14.342  0.4469 -0.2979 -0.0636
 8014TIP3    H145533   0.207   3.455  14.326  2.6780 -2.7129 -0.1691
 8014TIP3    H245534   0.308   3.543  14.255  0.8173 -0.2641  0.0874
 8015TIP3   OH245535   1.011   3.756   0.369 -0.1080  0.2229  0.0781
 8015TIP3    H145536   1.077   3.761   0.299  2.0845 -0.6166  1.9326
 8015TIP3    H245537   1.036   3.679   0.419 -1.8609  0.5491  1.5299
 8016TIP3   OH245538   2.609   0.974   4.940  0.3960 -0.4462 -0.2977
 8016TIP3    H145539   2.636   1.055   4.896 -0.3665  0.8170  1.4561
 8016TIP3    H245540   2.655   0.976   5.024 -0.9449 -0.9775  0.4716
 8017TIP3   OH245541   5.603   4.133  14.942  0.2092 -0.6919  0.3952
 8017TIP3    H145542   5.677   4.097  14.892 -0.3402  0.2562 -1.1789
 8017TIP3    H245543   5.567   4.201  14.885 -0.1450  0.8242  2.3343
 8018TIP3   OH245544   5.840   5.210  13.150  0.4459  0.0185  0.0722
 8018TIP3    H145545   5.872   5.146  13.212  0.2314  0.1341  0.3057
 8018TIP3    H245546   5.864   5.175  13.064 -0.6260 -0.9246  0.1361
 8019TIP3   OH245547   5.580   1.141   2.591 -0.6118 -0.1337 -0.0989
 8019TIP3    H145548   5.573   1.066   2.650  0.9116 -0.3295 -0.1250
 8019TIP3    H245549   5.556   1.217   2.644  0.2792 -0.3661  0.6476
 8020TIP3   OH245550   5.326   5.062  11.974  0.0433  0.1004  0.2905
 8020TIP3    H145551   5.296   5.150  11.953 -0.5714 -0.4920 -1.4957
 8020TIP3    H245552   5.398   5.046  11.913 -0.7882 -1.1210 -0.4317
 8021TIP3   OH245553   3.263   1.631  15.671  0.3406 -0.7721 -0.3336
 8021TIP3    H145554   3.201   1.698  15.644  0.2743  0.6111  2.8872
 8021TIP3    H245555   3.216   1.548  15.659 -2.0059  0.1991  1.4690
 8022TIP3   OH245556   3.154   5.494   0.702 -0.0456 -0.2597  0.2514
 8022TIP3    H145557   3.224   5.458   0.647  0.8683 -0.8149  1.7240
 8022TIP3    H245558   3.076   5.491   0.646  0.3229 -3.0766 -0.2714
 8023TIP3   OH245559   4.919   4.660  12.695  0.1615 -0.4534  0.5686
 8023TIP3    H145560   5.014   4.663  12.683  0.2625  0.4386  1.4929
 8023TIP3    H245561   4.907   4.626  12.784 -0.4566 -2.3844 -0.1973
 8024TIP3   OH245562   6.360   6.672  14.014 -0.0101 -0.4063 -0.1885
 8024TIP3    H145563   6.382   6.744  13.955  0.5293 -0.9174 -0.6213
 8024TIP3    H245564   6.429   6.607  14.001 -0.3720 -0.9209  0.3459
 8025TIP3   OH245565   2.236   4.807   4.996  0.0264  0.4016  0.3475
 8025TIP3    H145566   2.263   4.883   5.047  1.2088 -2.3073  4.2900
 8025TIP3    H245567   2.317   4.757   4.983 -0.8049 -0.5351 -1.5217
 8026TIP3   OH245568   0.533   2.687   4.772 -0.0408  0.1141 -0.1993
 8026TIP3    H145569   0.567   2.777   4.768 -1.6424  0.8057  0.8394
 8026TIP3    H245570   0.477   2.678   4.696 -2.3812  1.1280  1.3121
 8027TIP3   OH245571   5.609   2.066  14.403  0.6239  0.2274  0.1652
 8027TIP3    H145572   5.594   2.047  14.495 -0.4898  2.7860  0.5925
 8027TIP3    H245573   5.700   2.097  14.399  0.7208 -0.0277  0.3693
 8028TIP3   OH245574   4.053   3.811  14.634 -0.4000  0.4585 -0.3269
 8028TIP3    H145575   4.124   3.750  14.615 -0.2742  0.5084 -0.0206
 8028TIP3    H245576   4.049   3.815  14.730 -2.9483 -2.0644 -0.1998
 8029TIP3   OH245577   0.941   6.377   4.334 -0.6529 -0.4824 -0.4264
 8029TIP3    H145578   0.894   6.333   4.263 -0.7799  0.0996 -0.7049
 8029TIP3    H245579   0.956   6.466   4.302  0.2194 -0.5179 -0.1422
 8030TIP3   OH245580   6.000   4.960  16.948  0.4990  0.2160 -0.2149
 8030TIP3    H145581   5.959   4.884  16.988  0.7991 -0.6264 -1.4747
 8030TIP3    H245582   5.927   5.019  16.928 -0.1140 -1.0252 -1.9217
 8031TIP3   OH245583   6.512   4.391   3.085 -0.0242 -0.2672 -0.3935
 8031TIP3    H145584   6.543   4.335   3.157 -1.1650 -0.1879  0.1824
 8031TIP3    H245585   6.556   4.356   3.007  1.1166 -0.4564  0.3019
 8032TIP3   OH245586   5.679   2.232   6.768 -0.1242  0.1327  0.2914
 8032TIP3    H145587   5.739   2.158   6.757 -1.5979 -0.8158 -2.0541
 8032TIP3    H245588   5.722   2.305   6.723  0.8589  0.4712  1.7210
 8033TIP3   OH245589   0.288   3.963  15.820 -0.0342 -0.4508  0.4079
 8033TIP3    H145590   0.239   4.045  15.821 -0.0241 -0.4359 -0.0346
 8033TIP3    H245591   0.327   3.959  15.733 -0.7578 -1.3543  0.1065
 8034TIP3   OH245592   3.466   4.056   3.486  0.5294 -0.1732 -0.4025
 8034TIP3    H145593   3.552   4.030   3.519  0.1195 -2.0797 -0.7311
 8034TIP3    H245594   3.404   4.014   3.544 -0.1715 -0.6047 -1.4254
 8035TIP3   OH245595   3.669   5.489  15.247  0.5062  0.1874  0.0292
 8035TIP3    H145596   3.738   5.526  15.302 -0.7474  1.0317  1.0830
 8035TIP3    H245597   3.664   5.397  15.272  0.6423  0.3362  0.5994
 8036TIP3   OH245598   0.393   6.492   2.142 -0.2588 -0.0865  0.2758
 8036TIP3    H145599   0.449   6.502   2.219  0.7188 -1.0912 -0.2837
 8036TIP3    H245600   0.364   6.401   2.145 -2.7810  0.6539  1.1315
 8037TIP3   OH245601   3.896   3.721   5.480  0.0769 -0.1259  0.1890
 8037TIP3    H145602   3.981   3.720   5.435  1.2810  2.0727  2.1950
 8037TIP3    H245603   3.886   3.632   5.512  1.3789 -0.5640 -0.5079
 8038TIP3   OH245604   0.319   1.033  15.279  0.2056 -0.4193  0.2808
 8038TIP3    H145605   0.260   1.096  15.320 -0.2470 -1.8386  1.8806
 8038TIP3    H245606   0.262   0.975  15.229  0.6027  0.2448 -1.0004
 8039TIP3   OH245607   4.110   0.532   0.534 -0.5791  0.5218 -0.5074
 8039TIP3    H145608   4.178   0.505   0.596  0.2501  0.7053 -1.3311
 8039TIP3    H245609   4.157   0.555   0.454 -1.2388  3.8345 -0.0874
 8040TIP3   OH245610   3.611   1.077  13.160 -1.0997  0.0546 -0.4021
 8040TIP3    H145611   3.619   0.985  13.135 -0.7030 -0.0837  0.2138
 8040TIP3    H245612   3.691   1.118  13.127 -1.0006  0.0540 -0.1675
 8041TIP3   OH245613   4.326   2.871   0.740  0.4292  0.2739  0.1332
 8041TIP3    H145614   4.411   2.828   0.741 -0.0474 -0.8322 -1.6940
 8041TIP3    H245615   4.341   2.956   0.699  0.6642  0.1038 -0.1312
 8042TIP3   OH245616   0.885   3.825  14.651  0.1908 -0.2645  0.2045
 8042TIP3    H145617   0.887   3.866  14.738 -0.6451 -0.5475  0.3708
 8042TIP3    H245618   0.876   3.731  14.669 -0.9155 -0.2522 -0.1741
 8043TIP3   OH245619   3.381   3.625  12.014  0.0994  0.2128  0.8507
 8043TIP3    H145620   3.451   3.560  12.028  1.1128  0.6455 -1.6827
 8043TIP3    H245621   3.318   3.580  11.958  0.5032  1.1422 -0.4064
 8044TIP3   OH245622   4.995   2.746   6.781  0.2256 -0.4264  0.0250
 8044TIP3    H145623   4.913   2.778   6.818  0.7903 -0.3622  1.2689
 8044TIP3    H245624   4.989   2.651   6.786  0.5307 -0.4088  0.8249
 8045TIP3   OH245625   3.951   0.225   3.221  0.9423  0.8964 -0.4589
 8045TIP3    H145626   3.963   0.316   3.193  2.0467  0.0762 -2.9335
 8045TIP3    H245627   4.025   0.208   3.280  1.1527  1.3730 -0.5801
 8046TIP3   OH245628   3.472   2.435  15.550  0.3024  0.4181 -0.0955
 8046TIP3    H145629   3.497   2.373  15.481  1.5699  1.3619 -0.5060
 8046TIP3    H245630   3.377   2.428  15.555  0.3673 -1.1149 -0.5462
 8047TIP3   OH245631   1.281   1.383   6.653  0.1877 -0.0843 -0.2088
 8047TIP3    H145632   1.200   1.352   6.694  0.3863  1.6244  1.6495
 8047TIP3    H245633   1.351   1.352   6.710  0.7451 -0.4188 -1.0619
 8048TIP3   OH245634   4.639   5.351   6.165  0.2073 -0.6994 -0.1789
 8048TIP3    H145635   4.727   5.319   6.182  0.2006 -0.0351  1.3030
 8048TIP3    H245636   4.600   5.361   6.252 -1.1687 -0.5431 -0.7820
 8049TIP3   OH245637   2.475   6.384  13.018 -0.5282 -0.2802 -0.6807
 8049TIP3    H145638   2.402   6.354  12.963 -2.2534  1.6733  0.3800
 8049TIP3    H245639   2.538   6.422  12.957 -2.4091  1.8807 -1.4340
 8050TIP3   OH245640   5.107   0.922  14.316  0.4016  0.0841 -0.2479
 8050TIP3    H145641   5.194   0.900  14.284  1.0080 -0.5254  1.6690
 8050TIP3    H245642   5.063   0.838  14.326  0.6974  0.1072  1.6539
 8051TIP3   OH245643   4.708   0.873   4.043 -0.2356  0.3800 -0.1465
 8051TIP3    H145644   4.644   0.905   3.978  0.3647 -0.7611 -1.3574
 8051TIP3    H245645   4.779   0.837   3.990  0.2661 -0.6146  1.1556
 8052TIP3   OH245646   6.584   5.515  15.864 -0.0576 -0.2165  0.0801
 8052TIP3    H145647   6.515   5.517  15.930 -1.4839 -1.4548 -1.2842
 8052TIP3    H245648   6.646   5.450  15.895  1.0985  1.6087  1.8130
 8053TIP3   OH245649   2.988   3.805  12.045  0.0721 -0.5597 -0.1577
 8053TIP3    H145650   2.948   3.726  12.081  0.9937 -0.4983  1.0876
 8053TIP3    H245651   3.025   3.778  11.961  0.5163 -1.4969  0.3288
 8054TIP3   OH245652   5.603   5.472   0.583  0.3007  0.2819 -0.6793
 8054TIP3    H145653   5.523   5.512   0.619 -0.6159  0.4354 -2.7730
 8054TIP3    H245654   5.667   5.478   0.655 -0.8190  2.4176  0.2300
 8055TIP3   OH245655   2.818   6.162   2.904 -0.0836  0.5456  0.2171
 8055TIP3    H145656   2.864   6.123   2.830 -1.1812 -0.1621 -0.1167
 8055TIP3    H245657   2.840   6.105   2.978  1.0927  1.3093  0.4875
 8056TIP3   OH245658   4.053   2.531  12.415 -0.1060  0.5009  0.3128
 8056TIP3    H145659   4.141   2.507  12.385  0.2510  2.7133 -0.5870
 8056TIP3    H245660   4.069   2.598  12.481 -1.1213  0.4806  0.5880
 8057TIP3   OH245661   3.021   5.491  10.600 -0.3514  0.7178  0.4221
 8057TIP3    H145662   3.027   5.395  10.605 -1.1851  0.6954  1.3062
 8057TIP3    H245663   3.055   5.512  10.513 -0.5804 -0.4190  0.0293
 8058TIP3   OH245664   0.896   5.454   1.755  0.7396  0.4165 -0.5913
 8058TIP3    H145665   0.865   5.538   1.789  1.5893  1.1051 -1.4542
 8058TIP3    H245666   0.889   5.462   1.660  0.2142 -0.7496 -0.6727
 8059TIP3   OH245667   0.648   2.443  11.934 -0.7936  0.0562 -0.0721
 8059TIP3    H145668   0.570   2.448  11.878 -1.5324 -1.0068  0.8202
 8059TIP3    H245669   0.637   2.515  11.996 -0.6626  0.3878 -0.4272
 8060TIP3   OH245670   3.779   2.738  17.081  0.6215 -0.5391  0.9157
 8060TIP3    H145671   3.826   2.721  17.163 -1.0057 -1.4203  1.7151
 8060TIP3    H245672   3.787   2.656  17.032  2.5045  0.3303 -0.3388
 8061TIP3   OH245673   4.226   1.878  16.377  0.3328  0.0452 -0.4867
 8061TIP3    H145674   4.275   1.937  16.434 -0.2059  1.0709 -1.0604
 8061TIP3    H245675   4.239   1.914  16.289 -0.3595 -0.4426 -0.7897
 8062TIP3   OH245676   5.431   3.752   0.054  0.3878  0.0457  0.4404
 8062TIP3    H145677   5.507   3.786   0.101 -0.5878  0.9454  1.4181
 8062TIP3    H245678   5.434   3.658   0.067  1.6213  0.0201  0.0215
 8063TIP3   OH245679   0.589   6.193   0.878  0.3192 -0.1020  0.4253
 8063TIP3    H145680   0.650   6.142   0.824  0.7441  0.0019  0.8081
 8063TIP3    H245681   0.515   6.134   0.891  0.0851 -0.0338 -0.4969
 8064TIP3   OH245682   3.768   1.094   2.100 -0.8701 -0.5732  0.1109
 8064TIP3    H145683   3.673   1.095   2.113 -0.6142 -0.0604  2.3927
 8064TIP3    H245684   3.795   1.185   2.114  0.0912 -0.9528  0.8538
 8065TIP3   OH245685   3.076   1.847   3.534 -0.6494 -0.1095  0.2970
 8065TIP3    H145686   3.079   1.942   3.543 -1.1874  0.0291 -0.8083
 8065TIP3    H245687   2.985   1.827   3.516 -0.5549 -0.8512  0.5928
 8066TIP3   OH245688   1.401   1.956  13.864 -0.0858 -0.1802  0.2191
 8066TIP3    H145689   1.312   1.928  13.887 -0.0307  0.5906  1.4448
 8066TIP3    H245690   1.400   2.051  13.874  0.2495  0.1260 -2.0716
 8067TIP3   OH245691   0.820   6.522   2.581  0.5792 -0.1140 -0.0660
 8067TIP3    H145692   0.792   6.440   2.622  1.5723 -0.3312  0.2052
 8067TIP3    H245693   0.808   6.588   2.649 -2.1355  0.3801 -0.8951
 8068TIP3   OH245694   5.706   3.237   2.558 -0.4698  0.1131 -0.5672
 8068TIP3    H145695   5.699   3.157   2.611 -1.6933 -1.3909 -2.8276
 8068TIP3    H245696   5.718   3.307   2.622 -1.1381 -1.6604  1.6342
 8069TIP3   OH245697   1.925   2.536   3.093 -0.1669  0.0248  0.0675
 8069TIP3    H145698   1.868   2.575   3.027  1.3240 -0.7556 -1.7684
 8069TIP3    H245699   1.989   2.485   3.043  1.7999  0.3965  2.0337
 8070TIP3   OH245700   2.221   5.346   1.364 -0.1007 -0.2537  0.2590
 8070TIP3    H145701   2.230   5.315   1.274 -0.0717  1.4721 -0.3750
 8070TIP3    H245702   2.133   5.382   1.368  0.1801  0.4079  0.6797
 8071TIP3   OH245703   3.135   6.695  11.187  0.4161 -0.6325 -0.5575
 8071TIP3    H145704   3.120   6.788  11.166  0.1085 -0.5834 -0.1188
 8071TIP3    H245705   3.129   6.691  11.282  0.0252 -1.1790 -0.6050
 8072TIP3   OH245706   1.274   3.773  11.038 -0.2183  0.1689  0.6818
 8072TIP3    H145707   1.326   3.742  10.964  0.1096 -0.0659  1.0047
 8072TIP3    H245708   1.328   3.754  11.115 -1.0797 -0.7442  1.0856
 8073TIP3   OH245709   6.564   5.565   4.598  0.3021  0.1328  0.0805
 8073TIP3    H145710   6.575   5.635   4.534  0.2575 -0.0060 -0.0797
 8073TIP3    H245711   6.520   5.495   4.550 -0.2448  0.2433  0.4079
 8074TIP3   OH245712   5.274   5.503   3.096  0.0928  0.1617 -0.3602
 8074TIP3    H145713   5.351   5.545   3.059 -0.1231  0.8093 -0.0933
 8074TIP3    H245714   5.307   5.421   3.134  0.7325  0.6667  0.1884
 8075TIP3   OH245715   5.424   5.830   0.811  0.5837  0.2033 -0.3614
 8075TIP3    H145716   5.436   5.898   0.744  3.0030 -2.0587 -2.4355
 8075TIP3    H245717   5.343   5.786   0.786  0.0212  1.0767 -0.1289
 8076TIP3   OH245718   1.418   4.098  15.326  0.2066 -0.1944 -1.1701
 8076TIP3    H145719   1.336   4.055  15.302 -0.4391 -0.5576  1.3537
 8076TIP3    H245720   1.450   4.048  15.402  0.9683  1.9778  0.0337
 8077TIP3   OH245721   1.336   5.599   5.622 -0.5147  0.0259  0.1915
 8077TIP3    H145722   1.304   5.689   5.617 -0.8762 -0.1155 -0.0717
 8077TIP3    H245723   1.264   5.546   5.588  0.4108 -0.2150 -1.4855
 8078TIP3   OH245724   6.022   3.965  11.086 -0.8263  0.2939 -0.1277
 8078TIP3    H145725   5.954   3.951  11.151 -1.4353 -1.5815 -1.0995
 8078TIP3    H245726   6.062   3.879  11.072  0.5253  0.9959 -0.9131
 8079TIP3   OH245727   5.759   3.577  12.856  0.6593  0.2475  0.0314
 8079TIP3    H145728   5.814   3.654  12.842  1.2498 -0.1840 -0.0494
 8079TIP3    H245729   5.715   3.563  12.771 -2.7141  2.9411  1.0875
 8080TIP3   OH245730   0.158   5.825   5.185  0.1327 -0.1632 -0.1232
 8080TIP3    H145731   0.168   5.895   5.249 -1.5600  1.5155 -1.5517
 8080TIP3    H245732   0.160   5.744   5.236  1.7586  0.9203  1.6344
 8081TIP3   OH245733   2.779   1.894   3.914 -0.5696  0.2276  0.3639
 8081TIP3    H145734   2.684   1.897   3.923 -0.6114  0.7034 -0.1854
 8081TIP3    H245735   2.794   1.857   3.827 -0.3298  2.7332 -0.7710
 8082TIP3   OH245736   4.522   5.336  10.369  0.0285 -0.0882 -0.8237
 8082TIP3    H145737   4.565   5.422  10.374  0.2723 -0.2791  1.0381
 8082TIP3    H245738   4.437   5.350  10.411  0.8927 -1.1967  1.4388
 8083TIP3   OH245739   4.818   6.103  16.034  0.7136 -0.0107  0.5120
 8083TIP3    H145740   4.762   6.031  16.064  0.0525  1.0116  1.7930
 8083TIP3    H245741   4.777   6.133  15.953 -0.5008  0.5755  1.3105
 8084TIP3   OH245742   0.829   1.885   4.730 -0.3082  0.6400  0.1678
 8084TIP3    H145743   0.824   1.945   4.805  0.4946 -1.0489  1.6239
 8084TIP3    H245744   0.777   1.809   4.756 -0.7127  0.3628 -1.3528
 8085TIP3   OH245745   4.241   1.438  15.426  1.2032  0.3356  0.1790
 8085TIP3    H145746   4.301   1.511  15.437  1.0068  0.3585  1.2426
 8085TIP3    H245747   4.160   1.467  15.468  0.3564  0.3847 -1.3871
 8086TIP3   OH245748   3.996   0.637   3.972  0.0459  0.1933  0.5061
 8086TIP3    H145749   4.071   0.618   4.029  1.4556  1.0676 -0.9699
 8086TIP3    H245750   3.964   0.722   4.001 -1.2284 -0.7224  1.9475
 8087TIP3   OH245751   6.630   4.848   5.930  0.5161  0.1845  0.1397
 8087TIP3    H145752   6.551   4.830   5.878  0.8926  1.1550 -0.8226
 8087TIP3    H245753   6.688   4.774   5.914 -0.3271 -0.7372  1.1708
 8088TIP3   OH245754   4.203   0.578  16.892  0.0582 -0.2859 -0.2648
 8088TIP3    H145755   4.294   0.595  16.916  0.5989 -1.1275 -1.5919
 8088TIP3    H245756   4.157   0.659  16.916  1.3933  0.6537 -0.7255
 8089TIP3   OH245757   3.785   6.021  16.693  0.3417  0.0596  0.2704
 8089TIP3    H145758   3.711   5.983  16.646 -0.0729  3.3442 -2.0491
 8089TIP3    H245759   3.754   6.032  16.783 -0.9169 -1.1423  0.0114
 8090TIP3   OH245760   2.015   5.823  10.442  0.2796  0.2168 -0.1384
 8090TIP3    H145761   1.969   5.745  10.411  0.4857 -0.0054  0.1131
 8090TIP3    H245762   2.098   5.790  10.477  0.2131  0.5134  0.3013
 8091TIP3   OH245763   3.481   2.869  14.522 -0.0813 -0.7611  0.3096
 8091TIP3    H145764   3.574   2.878  14.540 -0.1169 -1.2795  0.7790
 8091TIP3    H245765   3.476   2.814  14.444 -0.0030 -1.0429  0.5036
 8092TIP3   OH245766   4.921   0.365  13.866 -0.0318 -0.6089  0.5439
 8092TIP3    H145767   4.909   0.339  13.775 -0.9513  1.1970  0.0981
 8092TIP3    H245768   4.836   0.347  13.908  0.2118 -0.9157  0.9148
 8093TIP3   OH245769   0.431   6.155  14.118 -0.6726  0.6435  0.2318
 8093TIP3    H145770   0.405   6.066  14.139 -1.9435  0.9660  0.0829
 8093TIP3    H245771   0.349   6.201  14.098 -0.2659  2.3410  2.1572
 8094TIP3   OH245772   2.765   2.147  15.231 -0.2859 -0.6053 -0.2117
 8094TIP3    H145773   2.688   2.185  15.187 -0.2629 -0.1061  0.1697
 8094TIP3    H245774   2.828   2.219  15.233 -0.2155 -0.6885  0.4578
 8095TIP3   OH245775   2.425   3.397   2.079 -0.0885 -0.3838 -0.5054
 8095TIP3    H145776   2.500   3.455   2.064 -1.2362  1.4203  0.3337
 8095TIP3    H245777   2.437   3.325   2.017  2.1575  0.0036 -0.5958
 8096TIP3   OH245778   2.525   1.739   2.222  0.2192 -0.1183 -0.2046
 8096TIP3    H145779   2.451   1.688   2.256 -1.3345  1.7886 -0.5345
 8096TIP3    H245780   2.504   1.752   2.130  2.1701 -1.4564 -0.9084
 8097TIP3   OH245781   3.267   3.833   4.977  0.7683  0.0983  0.1906
 8097TIP3    H145782   3.323   3.908   4.999  0.6633  0.4504 -0.6829
 8097TIP3    H245783   3.328   3.766   4.945  1.0681 -0.9021  2.6621
 8098TIP3   OH245784   1.804   1.759   3.980 -0.7506  0.3657 -0.3827
 8098TIP3    H145785   1.846   1.841   4.004 -1.0987  0.4122  0.0871
 8098TIP3    H245786   1.788   1.715   4.063 -0.4663 -0.2306 -0.6415
 8099TIP3   OH245787   6.234   0.234   2.264  0.6012  0.3302 -0.3327
 8099TIP3    H145788   6.242   0.194   2.178 -0.4667 -1.9735  0.5567
 8099TIP3    H245789   6.323   0.237   2.298  0.7120 -1.5641 -0.3676
 8100TIP3   OH245790   6.548   0.145  15.079 -0.2259  0.3190 -0.0205
 8100TIP3    H145791   6.571   0.086  15.150  3.0297 -1.0436 -1.9849
 8100TIP3    H245792   6.624   0.204  15.071 -1.1939  1.4625 -1.3618
 8101TIP3   OH245793   0.965   1.852   1.119 -0.2826  0.0541  0.2319
 8101TIP3    H145794   0.937   1.933   1.161 -2.1948 -0.3613 -0.1489
 8101TIP3    H245795   0.964   1.872   1.025 -0.5519 -0.3601  0.1485
 8102TIP3   OH245796   0.370   3.252   5.860 -0.0195  0.0436  0.0711
 8102TIP3    H145797   0.427   3.295   5.925  1.1151 -1.6674  0.2848
 8102TIP3    H245798   0.425   3.247   5.781 -0.7151  0.4131 -0.4410
 8103TIP3   OH245799   5.612   0.918  12.092 -0.1370 -0.0641 -0.2091
 8103TIP3    H145800   5.551   0.869  12.147 -0.5201  0.8993  0.2545
 8103TIP3    H245801   5.613   0.871  12.009 -1.6833  0.0070 -0.2921
 8104TIP3   OH245802   5.504   4.979  14.326  0.3857  0.2165  0.1132
 8104TIP3    H145803   5.573   5.036  14.290  1.6886 -1.8016 -0.7944
 8104TIP3    H245804   5.424   5.006  14.281  0.9086  1.5160 -0.0668
 8105TIP3   OH245805   5.047   5.254  11.273 -0.1170  0.2658 -0.0277
 8105TIP3    H145806   4.970   5.212  11.235  0.1328 -0.4386  0.2373
 8105TIP3    H245807   5.016   5.289  11.357  0.2124 -1.3841  0.8168
 8106TIP3   OH245808   2.057   4.694  16.517 -0.2013 -0.1964 -0.7641
 8106TIP3    H145809   2.065   4.739  16.601 -1.4533 -0.7752 -0.3165
 8106TIP3    H245810   1.978   4.731  16.477  0.0631 -0.3395 -1.4300
 8107TIP3   OH245811   1.149   4.144   4.471  0.2502  0.4222 -0.2560
 8107TIP3    H145812   1.196   4.101   4.399  0.1757  1.4115 -0.9107
 8107TIP3    H245813   1.163   4.237   4.456 -1.3611  0.7153 -0.0816
 8108TIP3   OH245814   2.886   6.497  15.503 -0.2022 -0.5358  0.1595
 8108TIP3    H145815   2.959   6.539  15.549  1.4556 -2.5249 -0.4834
 8108TIP3    H245816   2.909   6.502  15.411  1.1162 -4.3748  0.1107
 8109TIP3   OH245817   6.257   2.602   4.608  0.1626  0.2090 -0.2886
 8109TIP3    H145818   6.246   2.512   4.576  0.2979  0.4147 -0.9258
 8109TIP3    H245819   6.297   2.592   4.694  1.9748 -0.2891 -1.1539
 8110TIP3   OH245820   4.403   5.589   0.181  0.2619  1.1047 -0.0165
 8110TIP3    H145821   4.356   5.522   0.229 -0.7949  0.3605 -1.9707
 8110TIP3    H245822   4.496   5.567   0.192  0.1176  1.3772  2.1571
 8111TIP3   OH245823   2.826   0.627  12.591 -0.2502 -0.3320 -0.1713
 8111TIP3    H145824   2.894   0.689  12.615  0.2147 -0.3652 -1.3526
 8111TIP3    H245825   2.837   0.555  12.654 -0.3753  0.4630  0.7856
 8112TIP3   OH245826   5.847   6.722   5.227 -0.0174  0.7541  0.4994
 8112TIP3    H145827   5.894   6.743   5.307  0.0279 -0.5254  0.8243
 8112TIP3    H245828   5.756   6.742   5.247 -0.5344 -2.4850  2.0445
 8113TIP3   OH245829   3.316   4.313  14.039 -0.3347 -0.1112  0.0499
 8113TIP3    H145830   3.308   4.356  14.125  2.0372 -1.6380  1.1375
 8113TIP3    H245831   3.407   4.330  14.013 -0.9098 -0.0066 -2.0177
 8114TIP3   OH245832   5.741   2.403   6.024 -0.4796 -0.5827 -0.2392
 8114TIP3    H145833   5.728   2.496   6.040 -1.8617 -0.9363  0.8833
 8114TIP3    H245834   5.835   2.390   6.034 -0.2188  0.7429 -0.7755
 8115TIP3   OH245835   3.596   3.841  11.478 -0.1679 -0.4984  0.4763
 8115TIP3    H145836   3.573   3.749  11.486  1.1912 -1.0413 -1.2653
 8115TIP3    H245837   3.528   3.887  11.527  0.9765 -2.5639  4.4624
 8116TIP3   OH245838   3.986   3.169  12.344  0.0977 -0.1455  0.1370
 8116TIP3    H145839   3.926   3.142  12.274  0.2234 -0.2203  0.0594
 8116TIP3    H245840   3.928   3.200  12.414 -0.0064  1.0799 -0.4648
 8117TIP3   OH245841   2.243   4.293   1.216  0.0717  0.1345 -0.3656
 8117TIP3    H145842   2.189   4.279   1.138  1.3281 -0.2518 -1.1767
 8117TIP3    H245843   2.285   4.209   1.232 -0.6806  0.0036  1.1626
 8118TIP3   OH245844   6.589   1.491   2.151 -0.3537  0.3037  0.2431
 8118TIP3    H145845   6.545   1.506   2.235 -2.6483 -0.1625 -0.7881
 8118TIP3    H245846   6.540   1.419   2.111  0.2614  0.9392 -1.7598
 8119TIP3   OH245847   6.378   2.634   2.490  0.1508 -0.8960  0.7038
 8119TIP3    H145848   6.410   2.599   2.407 -0.1539  0.7516 -0.1443
 8119TIP3    H245849   6.345   2.557   2.537  0.0486 -1.8189 -0.8128
 8120TIP3   OH245850   5.227   6.821   0.075  0.2670 -0.1173 -0.4800
 8120TIP3    H145851   5.161   6.815   0.006 -0.9900 -0.3264  0.6891
 8120TIP3    H245852   5.184   6.784   0.152  1.7820 -0.2994  0.3151
 8121TIP3   OH245853   4.634   2.180   5.878  0.6940 -0.1701 -0.6242
 8121TIP3    H145854   4.622   2.108   5.939  1.0093  0.6011  0.3685
 8121TIP3    H245855   4.653   2.256   5.933  0.1333  0.7311 -1.6264
 8122TIP3   OH245856   5.498   5.574   5.152 -0.0470 -0.1573  0.4059
 8122TIP3    H145857   5.576   5.623   5.127  0.5757 -2.0283 -1.5975
 8122TIP3    H245858   5.450   5.560   5.070 -0.4096 -2.4731  0.9365
 8123TIP3   OH245859   4.224   0.808   4.637 -0.0157  0.5429  0.4915
 8123TIP3    H145860   4.139   0.765   4.623  0.6338 -1.0243  1.1241
 8123TIP3    H245861   4.222   0.837   4.728  0.4468 -0.3151  0.7905
 8124TIP3   OH245862   0.562   1.916   2.253 -0.1856  0.1873  0.4048
 8124TIP3    H145863   0.546   1.823   2.235 -2.2587  0.6349 -0.3829
 8124TIP3    H245864   0.482   1.946   2.294  0.0994  1.8219 -0.1745
 8125TIP3   OH245865   4.659   0.430   1.337 -0.2187  0.7432 -0.4130
 8125TIP3    H145866   4.732   0.376   1.308  1.5028  2.6222  0.2014
 8125TIP3    H245867   4.664   0.508   1.283 -0.9732  1.4617  0.5173
 8126TIP3   OH245868   1.885   0.683  14.994 -0.4090  0.1396  0.4039
 8126TIP3    H145869   1.846   0.741  15.059  0.2241  0.4546  0.5016
 8126TIP3    H245870   1.809   0.643  14.950 -0.8927  1.9301 -0.4823
 8127TIP3   OH245871   1.317   3.982  10.501  0.2517 -0.2856 -0.2391
 8127TIP3    H145872   1.384   4.005  10.436 -0.6575  0.5094 -0.9251
 8127TIP3    H245873   1.261   4.060  10.505  1.0137  0.2200  2.4613
 8128TIP3   OH245874   5.452   4.849   2.162  0.3589 -0.0870 -0.1737
 8128TIP3    H145875   5.448   4.798   2.243 -0.1356  1.2308  0.6579
 8128TIP3    H245876   5.530   4.904   2.172 -0.5624  1.2105  0.1347
 8129TIP3   OH245877   2.569   6.352   0.089 -0.0228 -0.8214  0.0357
 8129TIP3    H145878   2.648   6.320   0.131 -0.0955  0.0336  0.8671
 8129TIP3    H245879   2.516   6.386   0.161 -0.5417 -0.1209 -0.6611
 8130TIP3   OH245880   1.147   6.340  14.602  0.5881  0.0776 -0.6048
 8130TIP3    H145881   1.082   6.407  14.580 -1.4766 -1.1205  1.3384
 8130TIP3    H245882   1.221   6.389  14.636 -0.4605  1.4277 -0.1559
 8131TIP3   OH245883   0.286   1.792   6.114  0.7600 -0.0911 -0.3783
 8131TIP3    H145884   0.260   1.700   6.104  1.8867 -0.3529 -1.1636
 8131TIP3    H245885   0.294   1.805   6.208  2.0945 -1.2733 -0.2952
 8132TIP3   OH245886   1.745   5.011  14.719 -0.5411 -0.0834  0.1309
 8132TIP3    H145887   1.650   5.025  14.723 -0.7324 -1.5441  2.2682
 8132TIP3    H245888   1.759   4.930  14.768  1.8988  0.5615  0.5975
 8133TIP3   OH245889   1.967   0.290  13.193  0.2673 -0.0594 -0.1692
 8133TIP3    H145890   1.973   0.217  13.131 -0.9658 -0.1575 -0.2061
 8133TIP3    H245891   2.055   0.299  13.229  0.6482 -0.9736 -0.8368
 8134TIP3   OH245892   4.719   5.330  15.879  0.0131  0.2324 -0.1677
 8134TIP3    H145893   4.811   5.336  15.852 -0.3418 -1.2631 -1.8702
 8134TIP3    H245894   4.715   5.382  15.960  1.4930  3.7970 -2.1235
 8135TIP3   OH245895   5.496   3.450   5.569  0.3365 -0.1709  0.3400
 8135TIP3    H145896   5.431   3.493   5.625  0.1188 -0.5637  0.3937
 8135TIP3    H245897   5.494   3.499   5.487  1.3094  0.9851  0.9726
 8136TIP3   OH245898   2.133   0.821   3.109 -0.3112  0.5627  0.1866
 8136TIP3    H145899   2.154   0.801   3.017  1.5836  3.5633 -0.1746
 8136TIP3    H245900   2.212   0.795   3.157 -0.3855  1.1164  0.6073
 8137TIP3   OH245901   1.798   1.331  16.550  0.0236 -0.2357 -0.4496
 8137TIP3    H145902   1.891   1.352  16.560  0.2445 -1.4172  0.2229
 8137TIP3    H245903   1.755   1.382  16.619  0.1873  0.1594 -0.6347
 8138TIP3   OH245904   4.002   5.852  15.871  0.0988  0.6843 -0.3925
 8138TIP3    H145905   4.032   5.938  15.841  1.6012  0.6024  0.7346
 8138TIP3    H245906   3.944   5.871  15.944  0.5984  0.7541 -0.0068
 8139TIP3   OH245907   2.144   2.432  16.960 -0.4654  0.2307 -0.4582
 8139TIP3    H145908   2.136   2.391  17.046 -1.2941 -0.1798 -0.7144
 8139TIP3    H245909   2.133   2.525  16.976 -1.6731  0.0708 -0.2277
 8140TIP3   OH245910   3.044   1.333   1.839 -0.3424 -0.2659 -0.0306
 8140TIP3    H145911   3.079   1.422   1.835  1.1271 -0.7914  0.4138
 8140TIP3    H245912   2.976   1.337   1.906 -0.4578  0.5708 -0.1856
 8141TIP3   OH245913   2.483   3.942  16.900 -0.0084 -0.2835  0.0315
 8141TIP3    H145914   2.495   3.885  16.976  0.8113  0.5687  0.5707
 8141TIP3    H245915   2.517   4.027  16.929 -0.3998  0.2506 -1.0371
 8142TIP3   OH245916   4.484   5.806   2.001 -0.1204 -0.5550 -0.3410
 8142TIP3    H145917   4.577   5.827   2.002 -0.0151 -0.9554 -0.9183
 8142TIP3    H245918   4.470   5.755   2.081 -0.0513  0.3089  0.2351
 8143TIP3   OH245919   2.606   0.198  15.522 -0.8319  0.0771 -0.2079
 8143TIP3    H145920   2.651   0.282  15.530 -0.8513 -0.0062  0.8210
 8143TIP3    H245921   2.566   0.184  15.608 -2.2307 -0.1853 -0.8708
 8144TIP3   OH245922   1.023   2.864  15.757 -0.1970 -0.3565 -0.4960
 8144TIP3    H145923   1.015   2.778  15.798  2.0905 -0.4545 -0.1539
 8144TIP3    H245924   1.088   2.910  15.810  0.1638  0.8294 -1.9174
 8145TIP3   OH245925   4.173   5.227  11.148 -0.0033  0.2156 -0.6754
 8145TIP3    H145926   4.233   5.224  11.073 -0.8546  1.0930 -1.4069
 8145TIP3    H245927   4.231   5.218  11.224  1.0885  1.2263 -1.3479
 8146TIP3   OH245928   1.833   4.950  11.250  0.1761  0.3901 -0.2835
 8146TIP3    H145929   1.896   5.014  11.218  0.2574  0.4978  0.0819
 8146TIP3    H245930   1.748   4.987  11.227  0.1959  0.9862  0.5495
 8147TIP3   OH245931   1.107   3.749   3.889 -0.2060 -0.1586 -0.3830
 8147TIP3    H145932   1.190   3.794   3.876 -1.1966  1.7501 -0.4436
 8147TIP3    H245933   1.124   3.687   3.960  0.8605  1.3724  0.7724
 8148TIP3   OH245934   2.213   1.787   4.453  0.1053  0.0520 -0.1318
 8148TIP3    H145935   2.236   1.868   4.499 -0.2197 -0.5248  1.0868
 8148TIP3    H245936   2.224   1.719   4.519 -0.5071 -0.7924 -0.8866
 8149TIP3   OH245937   4.820   2.733  10.736  0.3742 -0.2599  0.3743
 8149TIP3    H145938   4.838   2.639  10.739 -1.0635 -0.5324  1.7214
 8149TIP3    H245939   4.726   2.740  10.749  0.3384  1.3548 -0.4829
 8150TIP3   OH245940   5.807   3.672   2.252  0.3881  0.4037  0.1849
 8150TIP3    H145941   5.876   3.719   2.204 -0.8451  0.8698 -1.2031
 8150TIP3    H245942   5.761   3.623   2.184  1.1162 -2.2179  1.4864
 8151TIP3   OH245943   2.809   3.038  16.909  0.1077  0.5959  0.3033
 8151TIP3    H145944   2.905   3.036  16.913  0.4395 -1.0378 -3.6720
 8151TIP3    H245945   2.784   2.946  16.912 -1.3483  0.9905  0.9074
 8152TIP3   OH245946   6.572   4.520  10.642  0.2442 -0.0310 -0.4350
 8152TIP3    H145947   6.491   4.470  10.650 -0.0578  0.5544  0.2072
 8152TIP3    H245948   6.562   4.593  10.702  1.3010 -0.0086 -0.2586
 8153TIP3   OH245949   4.856   6.294  11.321  0.1071 -0.1619  0.2349
 8153TIP3    H145950   4.816   6.211  11.348 -2.6911  0.4086 -1.6876
 8153TIP3    H245951   4.867   6.285  11.226  1.5424  1.0026  0.2605
 8154TIP3   OH245952   5.977   5.328   0.041 -0.7695 -0.0699  0.3408
 8154TIP3    H145953   6.018   5.362  -0.038  0.4467  0.6785  1.2496
 8154TIP3    H245954   5.988   5.233   0.035 -0.1760  0.0227 -0.1084
 8155TIP3   OH245955   5.661   1.164  14.043 -0.3997  0.4057 -0.4147
 8155TIP3    H145956   5.735   1.138  13.988  0.0829  0.4475  0.2031
 8155TIP3    H245957   5.663   1.102  14.116  0.8500  2.1613  1.1663
 8156TIP3   OH245958   1.395   1.545   4.977  0.3395 -0.1868  0.3367
 8156TIP3    H145959   1.413   1.480   4.909  1.5193  0.4000  0.0753
 8156TIP3    H245960   1.299   1.543   4.987  0.1165 -0.1099 -1.5029
 8157TIP3   OH245961   2.518   4.672   2.833 -0.2601  0.2097 -0.2645
 8157TIP3    H145962   2.542   4.753   2.879 -3.8967  1.4193 -0.2240
 8157TIP3    H245963   2.450   4.633   2.887  0.5256 -2.3019 -0.9517
 8158TIP3   OH245964   1.559   2.470  16.825  0.5851 -0.2901 -0.2888
 8158TIP3    H145965   1.578   2.384  16.786 -1.3891 -0.5288 -0.8235
 8158TIP3    H245966   1.614   2.473  16.904  1.6696 -1.4822 -0.9624
 8159TIP3   OH245967   1.236   3.849   1.816 -0.0151  0.2136 -0.2964
 8159TIP3    H145968   1.284   3.859   1.734  0.4984  2.3377  0.2169
 8159TIP3    H245969   1.148   3.881   1.796  0.5053  2.1077  0.3170
 8160TIP3   OH245970   5.343   3.575   5.761  0.1684 -0.9145 -0.5834
 8160TIP3    H145971   5.266   3.521   5.779 -0.7421  0.7431  0.7297
 8160TIP3    H245972   5.376   3.600   5.848  0.1171  1.2162 -1.1290
 8161TIP3   OH245973   2.990   0.459  14.484 -0.4689  0.9452  0.2382
 8161TIP3    H145974   2.974   0.494  14.397 -2.6025 -0.2833  0.0722
 8161TIP3    H245975   3.066   0.507  14.516 -1.2666  3.3306 -1.2317
 8162TIP3   OH245976   5.332   6.043  13.830  0.2410 -0.2332 -0.1302
 8162TIP3    H145977   5.276   5.970  13.858 -1.6228  1.7284  1.5863
 8162TIP3    H245978   5.322   6.109  13.899  1.7259  1.7303 -1.6804
 8163TIP3   OH245979   2.228   1.113   4.973  0.3670  0.4050 -0.2638
 8163TIP3    H145980   2.301   1.069   5.015  0.5073  0.0343 -0.8914
 8163TIP3    H245981   2.255   1.204   4.966  0.4437  0.4212  0.2152
 8164TIP3   OH245982   4.051   6.104  16.655  0.2526 -0.6260 -0.4746
 8164TIP3    H145983   4.045   6.178  16.716 -0.9511  0.0753 -1.3927
 8164TIP3    H245984   3.966   6.060  16.663  1.0965 -2.2020  0.3702
 8165TIP3   OH245985   5.870   4.875   1.703 -0.1591  0.2766  0.1307
 8165TIP3    H145986   5.920   4.794   1.699  1.1013  1.0364  0.0541
 8165TIP3    H245987   5.894   4.923   1.623  1.8221  2.2090  1.7290
 8166TIP3   OH245988   0.424   4.231   1.367 -0.1104  0.1921 -0.2928
 8166TIP3    H145989   0.337   4.191   1.357 -0.7171  1.1242  1.0771
 8166TIP3    H245990   0.485   4.160   1.344 -1.1957 -0.0887 -2.6776
 8167TIP3   OH245991   3.756   0.101  13.419  0.7548  0.3301  0.0680
 8167TIP3    H145992   3.741   0.038  13.489 -0.8355  1.7971  1.1549
 8167TIP3    H245993   3.840   0.142  13.440  2.1052 -1.7399 -0.9811
 8168TIP3   OH245994   0.899   3.986   4.950  0.4881 -0.4585 -0.2254
 8168TIP3    H145995   0.982   3.963   4.991  0.7648 -0.3536 -0.7250
 8168TIP3    H245996   0.913   4.073   4.913  0.1413 -0.4162 -0.2588
 8169TIP3   OH245997   6.526   6.747   5.674  0.0489 -0.1270 -0.0226
 8169TIP3    H145998   6.620   6.755   5.659  0.3213  0.5336  1.7995
 8169TIP3    H245999   6.489   6.828   5.641  0.3589  0.3498  0.7604
 8170TIP3   OH246000   0.318   4.775  11.291 -0.3672 -0.3561  0.2851
 8170TIP3    H146001   0.402   4.775  11.337 -0.8104 -0.8273  1.1234
 8170TIP3    H246002   0.341   4.790  11.199  0.5759  0.1482  0.5892
 8171TIP3   OH246003   4.791   0.267   2.781  0.0001  0.5424  0.3109
 8171TIP3    H146004   4.772   0.358   2.807  1.7771  1.1509 -0.3463
 8171TIP3    H246005   4.820   0.274   2.690 -1.0933 -0.8841 -0.1768
 8172TIP3   OH246006   3.320   4.840  16.808 -0.4485  0.4011 -0.5363
 8172TIP3    H146007   3.280   4.922  16.838 -0.4488  0.0790  0.3801
 8172TIP3    H246008   3.373   4.810  16.883 -0.2922 -0.3312 -0.9293
 8173TIP3   OH246009   0.884   4.846  12.867  0.3707 -0.2814 -0.2798
 8173TIP3    H146010   0.834   4.926  12.850  0.6039  0.1945  1.0877
 8173TIP3    H246011   0.819   4.784  12.898  0.4692  0.0657  0.6699
 8174TIP3   OH246012   6.548   4.853   5.449 -0.1571 -0.1238 -0.0518
 8174TIP3    H146013   6.628   4.904   5.433  2.1704 -1.5992  4.8873
 8174TIP3    H246014   6.505   4.898   5.521 -1.3418 -1.8185  0.3563
 8175TIP3   OH246015   5.449   3.288  13.906 -0.1640 -0.2990  0.1180
 8175TIP3    H146016   5.455   3.203  13.862 -0.1573 -0.8515  1.1580
 8175TIP3    H246017   5.367   3.326  13.874 -0.6404 -1.1100  0.3504
 8176TIP3   OH246018   1.702   0.793  14.074 -0.5620 -0.4493 -0.0999
 8176TIP3    H146019   1.610   0.811  14.055 -0.3143 -0.9421 -1.9099
 8176TIP3    H246020   1.724   0.718  14.019  0.9902 -0.1928  0.1289
 8177TIP3   OH246021   1.001   1.016   2.793  0.5388  0.1412  0.2642
 8177TIP3    H146022   1.084   1.021   2.746  0.5592 -0.0381  0.2785
 8177TIP3    H246023   0.935   1.037   2.728  0.3822 -2.1823 -0.4272
 8178TIP3   OH246024   5.908   1.066   1.337  0.2789  0.3929  0.3870
 8178TIP3    H146025   5.852   1.105   1.404 -2.9769  0.7994 -2.2844
 8178TIP3    H246026   5.966   1.137   1.310  0.4673  0.7188  1.6146
 8179TIP3   OH246027   1.208   4.669   1.526 -0.0902 -0.1092 -0.6110
 8179TIP3    H146028   1.276   4.603   1.535 -0.9012 -0.8902 -0.0752
 8179TIP3    H246029   1.126   4.621   1.533 -0.7074  0.8151 -1.2487
 8180TIP3   OH246030   4.753   4.259   2.890 -0.5196 -0.3292 -0.1116
 8180TIP3    H146031   4.713   4.311   2.821 -0.6982 -0.6651 -0.2632
 8180TIP3    H246032   4.771   4.321   2.960 -1.2246 -0.1618 -0.0798
 8181TIP3   OH246033   6.564   2.589  16.789 -0.1797  0.1917  0.3306
 8181TIP3    H146034   6.552   2.684  16.787  1.9829  0.5058 -1.8020
 8181TIP3    H246035   6.495   2.555  16.733 -1.2405  0.4139  1.4563
 8182TIP3   OH246036   0.681   0.195   6.202 -0.2071 -0.2777 -0.0510
 8182TIP3    H146037   0.655   0.270   6.255 -0.1588 -1.2306  1.3654
 8182TIP3    H246038   0.696   0.125   6.265  0.1492 -1.3730 -1.3099
 8183TIP3   OH246039   1.282   2.543  12.702  0.2152 -0.6787  0.1452
 8183TIP3    H146040   1.210   2.555  12.764 -0.1459 -0.4265 -0.3106
 8183TIP3    H246041   1.243   2.565  12.617  0.7759 -0.7488 -0.1303
 8184TIP3   OH246042   5.790   3.358  15.954  0.2486  0.0066 -0.9830
 8184TIP3    H146043   5.814   3.309  15.876  0.2450 -2.3916  0.4123
 8184TIP3    H246044   5.839   3.316  16.025  1.6812  3.2394  0.1412
 8185TIP3   OH246045   0.253   1.200   1.449 -0.3315  1.0133 -0.3998
 8185TIP3    H146046   0.316   1.251   1.499 -0.9235  0.1038  1.3743
 8185TIP3    H246047   0.297   1.116   1.434  0.3425  1.7087 -2.6193
 8186TIP3   OH246048   5.862   5.837   4.864  0.0383 -0.2415 -0.0837
 8186TIP3    H146049   5.939   5.803   4.909  0.1633  1.1301  0.8111
 8186TIP3    H246050   5.891   5.850   4.773  1.8216  2.7911  0.7570
 8187TIP3   OH246051   4.868   6.612  16.810 -0.3905 -0.1431 -0.4677
 8187TIP3    H146052   4.910   6.660  16.739 -0.3461  1.3542  0.5318
 8187TIP3    H246053   4.781   6.652  16.817 -1.7546 -2.5559 -1.8800
 8188TIP3   OH246054   0.516   3.177  16.786 -0.0252 -0.1922 -0.3955
 8188TIP3    H146055   0.512   3.102  16.846  0.8799 -1.2301 -1.5761
 8188TIP3    H246056   0.455   3.153  16.715 -0.4574  0.6382 -0.3113
 8189TIP3   OH246057   3.114   1.409  16.011  1.0901 -0.0181  0.4295
 8189TIP3    H146058   3.065   1.431  15.931  0.3005 -0.6750  0.7218
 8189TIP3    H246059   3.050   1.421  16.082  0.3588 -3.7873  0.5784
 8190TIP3   OH246060   0.678   2.477  12.234 -0.1640 -0.1368 -0.0824
 8190TIP3    H146061   0.607   2.413  12.234 -0.2331 -0.0662 -0.6495
 8190TIP3    H246062   0.649   2.546  12.174  2.5504 -2.6705 -5.0006
 8191TIP3   OH246063   1.194   0.805   4.141  0.1025 -0.5655  0.0530
 8191TIP3    H146064   1.126   0.850   4.090  0.3893 -1.6726 -1.3876
 8191TIP3    H246065   1.270   0.864   4.137 -0.8020  0.8121  1.9135
 8192TIP3   OH246066   3.105   1.830  15.285  0.4220  0.7400  0.1626
 8192TIP3    H146067   3.069   1.751  15.243 -1.3636  1.2325  0.6575
 8192TIP3    H246068   3.145   1.878  15.213 -1.6488  1.0566 -0.8672
 8193TIP3   OH246069   6.416   4.937   4.162  0.7252  0.4826 -0.4786
 8193TIP3    H146070   6.382   5.007   4.218  1.2375 -0.3078  0.8832
 8193TIP3    H246071   6.444   4.981   4.082  0.1491  1.6824 -0.0429
 8194TIP3   OH246072   1.121   3.730   5.910 -0.0361  0.7642  0.0404
 8194TIP3    H146073   1.073   3.678   5.845  0.4223 -1.0196  1.0541
 8194TIP3    H246074   1.196   3.675   5.934 -0.7773  0.8206  2.8641
 8195TIP3   OH246075   3.539   1.718   1.850  0.2508  0.3562 -0.2993
 8195TIP3    H146076   3.586   1.764   1.780  0.7853 -0.3094 -0.3996
 8195TIP3    H246077   3.599   1.722   1.925  0.1671  0.1037 -0.2179
 8196TIP3   OH246078   0.586   2.478  10.660  0.1867  0.5256  0.2480
 8196TIP3    H146079   0.530   2.512  10.590 -0.2070 -0.6551 -0.0261
 8196TIP3    H246080   0.526   2.437  10.721  0.4695  2.0299  1.6109
 8197TIP3   OH246081   3.099   3.729  12.621  0.4298 -0.0768 -0.3419
 8197TIP3    H146082   3.097   3.686  12.536 -0.0646  1.9189 -1.4195
 8197TIP3    H246083   3.157   3.675  12.674  1.7462 -0.7382 -2.3141
 8198TIP3   OH246084   3.885   0.464   6.223  0.5566  0.6036 -0.0584
 8198TIP3    H146085   3.813   0.432   6.277  0.2474  2.4148  0.7058
 8198TIP3    H246086   3.960   0.466   6.282  0.2494  2.4648  0.3431
 8199TIP3   OH246087   5.476   2.807  16.462  0.1373  0.4488 -0.4704
 8199TIP3    H146088   5.554   2.863  16.465  0.0736  0.7166 -2.3524
 8199TIP3    H246089   5.510   2.719  16.475  0.6739  0.6295 -0.6024
 8200TIP3   OH246090   6.330   5.371   1.179 -0.3399 -0.2309 -0.2714
 8200TIP3    H146091   6.376   5.394   1.260  1.2330 -1.3471 -0.7926
 8200TIP3    H246092   6.341   5.276   1.171 -2.3749 -0.4836 -0.6943
 8201TIP3   OH246093   2.223   6.287   2.061  0.3596 -0.4070 -0.0568
 8201TIP3    H146094   2.242   6.355   2.126 -0.9976 -0.6084  0.5888
 8201TIP3    H246095   2.127   6.284   2.056  0.4117 -0.5197 -1.9572
 8202TIP3   OH246096   6.679   5.887  15.519 -0.3524  0.1586  0.0601
 8202TIP3    H146097   6.713   5.800  15.498  0.8901  0.2074  1.6611
 8202TIP3    H246098   6.584   5.880  15.507 -0.1831 -1.1415 -0.6826
 8203TIP3   OH246099   1.054   2.067   1.585 -0.1622  0.3765 -0.3699
 8203TIP3    H146100   1.040   2.151   1.541 -0.3396 -0.0449 -1.1430
 8203TIP3    H246101   1.141   2.040   1.557  1.0276  1.5041  1.9402
 8204TIP3   OH246102   5.100   4.716   1.026 -0.4735  0.5588 -0.4679
 8204TIP3    H146103   5.045   4.737   1.102  0.3593 -1.6777  0.8403
 8204TIP3    H246104   5.039   4.709   0.953 -1.5675  0.7197  0.4133
 8205TIP3   OH246105   2.343   2.030   2.177  0.0312 -0.3688  0.2500
 8205TIP3    H146106   2.395   2.110   2.172  1.3702 -1.2862 -2.4931
 8205TIP3    H246107   2.324   2.019   2.270 -0.5103  3.2683  0.6782
 8206TIP3   OH246108   3.895   6.707   3.602 -0.4339 -0.1878 -0.3149
 8206TIP3    H146109   3.863   6.617   3.590 -0.0991 -0.3856  0.2743
 8206TIP3    H246110   3.968   6.715   3.541  1.9129 -1.5173  2.1369
 8207TIP3   OH246111   6.737   1.708   2.268 -0.0006 -0.4523 -0.2425
 8207TIP3    H146112   6.746   1.629   2.215 -0.0353 -0.5948 -0.0385
 8207TIP3    H246113   6.644   1.713   2.289 -0.4799  1.0679 -2.4226
 8208TIP3   OH246114   0.717   1.335  16.279  0.1866  0.4363  0.1853
 8208TIP3    H146115   0.765   1.394  16.337 -1.4436  2.5053 -0.4672
 8208TIP3    H246116   0.674   1.273  16.338 -0.1335  1.4990  1.1023
 8209TIP3   OH246117   6.065   0.094   0.318 -0.3319 -0.9322 -0.7662
 8209TIP3    H146118   5.980   0.137   0.313  1.1007  2.1880 -1.0886
 8209TIP3    H246119   6.063   0.045   0.400 -2.6499 -1.5872 -1.1411
 8210TIP3   OH246120   1.298   0.363  15.951  0.3610 -0.2507 -0.0751
 8210TIP3    H146121   1.393   0.355  15.938  0.5750  3.1663 -1.6658
 8210TIP3    H246122   1.289   0.430  16.018 -0.9444 -0.7511  0.2637
 8211TIP3   OH246123   2.466   6.330  11.903 -0.6357  0.4424 -0.0265
 8211TIP3    H146124   2.509   6.356  11.985  0.6253 -1.4187 -0.0488
 8211TIP3    H246125   2.488   6.238  11.892  0.2589  0.9094 -3.0786
 8212TIP3   OH246126   2.435   3.121   2.620 -0.0897  0.0328  0.0256
 8212TIP3    H146127   2.404   3.105   2.531  0.7959 -0.8479 -0.1487
 8212TIP3    H246128   2.530   3.132   2.611  0.0183 -0.1282  0.8609
 8213TIP3   OH246129   1.119   3.102  11.334 -0.0233  0.1177  0.3525
 8213TIP3    H146130   1.048   3.082  11.273  2.4373  0.8870 -3.0705
 8213TIP3    H246131   1.157   3.017  11.356 -0.9852 -0.1741  0.9510
 8214TIP3   OH246132   3.497   4.640   0.411  0.2802 -0.3935 -0.0978
 8214TIP3    H146133   3.538   4.608   0.491 -0.7655 -0.9485  0.2315
 8214TIP3    H246134   3.571   4.667   0.356  0.9750  1.4361  1.6080
 8215TIP3   OH246135   1.485   2.620   4.493  0.8193 -0.3522 -0.1822
 8215TIP3    H146136   1.409   2.676   4.508  0.7556 -0.4815 -0.0206
 8215TIP3    H246137   1.530   2.618   4.578  0.5447 -0.9614 -0.0537
 8216TIP3   OH246138   1.614   1.573  11.066  0.1948  0.2664 -0.4043
 8216TIP3    H146139   1.648   1.569  10.976  1.5619  0.2142  0.0976
 8216TIP3    H246140   1.681   1.529  11.119 -0.8456 -0.1702  0.5800
 8217TIP3   OH246141   1.633   6.617  10.219  0.4965 -0.3276  0.2915
 8217TIP3    H146142   1.674   6.538  10.253 -0.8236 -0.4928  1.5939
 8217TIP3    H246143   1.705   6.681  10.215  1.2725 -1.1584  0.6386
 8218TIP3   OH246144   6.448   4.575  14.723 -0.6976 -0.4646  0.7975
 8218TIP3    H146145   6.460   4.481  14.708  0.3942 -0.1101 -0.7550
 8218TIP3    H246146   6.432   4.611  14.636 -2.2655  0.6550  1.5101
 8219TIP3   OH246147   2.341   0.924   0.899 -0.6041  0.1305 -0.0983
 8219TIP3    H146148   2.397   0.966   0.833 -2.4259 -2.2881 -3.5446
 8219TIP3    H246149   2.390   0.848   0.927 -0.9691 -0.4469 -0.9792
 8220TIP3   OH246150   1.289   2.132  15.179 -0.2842 -0.2308 -0.4818
 8220TIP3    H146151   1.340   2.096  15.106 -0.5479 -0.2474 -0.6594
 8220TIP3    H246152   1.301   2.070  15.250  0.3142 -0.0044 -0.3726
 8221TIP3   OH246153   4.101   1.351  14.959  0.2576  0.0526  0.0221
 8221TIP3    H146154   4.071   1.273  14.913  1.0291 -1.2964  1.6651
 8221TIP3    H246155   4.194   1.357  14.937 -0.1198  1.4582 -1.3262
 8222TIP3   OH246156   5.346   0.308   5.257 -0.1391 -0.3164 -0.0669
 8222TIP3    H146157   5.264   0.352   5.277  0.5012  0.2062  1.5653
 8222TIP3    H246158   5.335   0.220   5.293 -0.5658 -0.7876 -1.3000
 8223TIP3   OH246159   3.541   1.247   3.873  0.1290 -0.5540  0.3102
 8223TIP3    H146160   3.564   1.278   3.786  1.4458 -0.0145  0.8306
 8223TIP3    H246161   3.625   1.230   3.916 -0.4307  0.5612  1.9628
 8224TIP3   OH246162   0.003   4.186  16.708 -0.1107  0.1704 -0.1436
 8224TIP3    H146163  -0.027   4.275  16.690 -1.2219  0.1457  1.4344
 8224TIP3    H246164   0.089   4.181  16.667  0.0922  2.0629 -0.0246
 8225TIP3   OH246165   6.689   5.150  12.948 -0.1637  0.5992 -0.3190
 8225TIP3    H146166   6.603   5.182  12.923 -0.8403 -0.5352  0.4567
 8225TIP3    H246167   6.673   5.062  12.984  1.3663  0.1802 -0.5788
 8226TIP3   OH246168   1.100   2.103  15.853  0.3348 -0.0551 -0.0210
 8226TIP3    H146169   1.064   2.132  15.937 -2.1046 -0.2256 -0.9182
 8226TIP3    H246170   1.116   2.010  15.865  0.6779  0.0700  0.4834
 8227TIP3   OH246171   3.700   4.783   3.020 -0.1231 -0.2921 -0.0783
 8227TIP3    H146172   3.627   4.821   3.069  0.0851  0.0612 -0.0329
 8227TIP3    H246173   3.752   4.737   3.086  0.9546  1.4001  0.3305
 8228TIP3   OH246174   3.378   1.576   5.213 -0.4081 -0.1733  0.4724
 8228TIP3    H146175   3.411   1.546   5.128  0.3261  0.0725  0.6696
 8228TIP3    H246176   3.283   1.565   5.206 -0.2604 -1.3530  0.0788
 8229TIP3   OH246177   6.483   3.458  12.053  0.2785  0.5451  0.2326
 8229TIP3    H146178   6.474   3.446  12.147 -0.2238 -0.9013  0.0424
 8229TIP3    H246179   6.500   3.369  12.020 -1.9851  0.5724 -1.2654
 8230TIP3   OH246180   1.170   4.900  12.075 -0.3860 -0.4691 -0.2443
 8230TIP3    H146181   1.095   4.890  12.016 -1.7867  1.8735  0.9769
 8230TIP3    H246182   1.148   4.845  12.151 -0.8757  0.2072  0.1076
 8231TIP3   OH246183   2.287   4.850  14.999  0.6241  0.1101 -0.1210
 8231TIP3    H146184   2.287   4.801  14.917 -0.2410 -0.0066 -0.0539
 8231TIP3    H246185   2.364   4.818  15.045  0.3585 -0.8143 -0.3032
 8232TIP3   OH246186   4.547   1.193   4.871 -0.3610 -0.3542 -0.1879
 8232TIP3    H146187   4.629   1.153   4.898 -0.5911 -1.7892 -1.4782
 8232TIP3    H246188   4.548   1.280   4.912  0.5393 -1.3276  2.0280
 8233TIP3   OH246189   5.534   6.265   0.621  0.0771 -0.6793  0.1308
 8233TIP3    H146190   5.534   6.170   0.634 -0.3529 -0.7308 -0.2362
 8233TIP3    H246191   5.561   6.277   0.530  0.4464 -0.4337  0.2706
 8234TIP3   OH246192   5.542   3.555   0.739 -0.0721  0.2737 -0.2448
 8234TIP3    H146193   5.635   3.575   0.722 -0.4500  1.0070 -1.5573
 8234TIP3    H246194   5.531   3.466   0.708  0.0667  0.3859 -0.6275
 8235TIP3   OH246195   2.277   5.887  13.001  0.2225 -0.0040 -0.1313
 8235TIP3    H146196   2.360   5.893  13.048  0.2050 -2.1572  0.2592
 8235TIP3    H246197   2.226   5.823  13.050 -1.7231  1.2704 -0.3467
 8236TIP3   OH246198   0.184   3.586  12.100 -0.5244 -0.2470 -0.0333
 8236TIP3    H146199   0.166   3.680  12.105 -0.3991 -0.1847 -0.5871
 8236TIP3    H246200   0.105   3.549  12.060 -0.4601 -0.3353 -0.0778
 8237TIP3   OH246201   4.223   1.366   0.010 -0.0051 -0.3135  0.2778
 8237TIP3    H146202   4.142   1.417   0.004  0.2737  0.1547  0.5204
 8237TIP3    H246203   4.250   1.353  -0.080  0.9196  1.5445  0.2530
 8238TIP3   OH246204   1.213   2.584   1.775 -0.6579 -0.1590 -0.0397
 8238TIP3    H146205   1.256   2.508   1.735 -0.2359 -0.4395  0.9348
 8238TIP3    H246206   1.251   2.659   1.729 -0.4903 -0.4934 -0.4582
 8239TIP3   OH246207   1.674   2.416   3.845 -0.1035  0.3747 -0.0869
 8239TIP3    H146208   1.759   2.409   3.802  0.8715  1.9545  1.4259
 8239TIP3    H246209   1.625   2.479   3.792 -0.0314  0.0460 -0.5416
 8240TIP3   OH246210   4.759   6.109  15.603 -0.4225 -0.0842 -0.1888
 8240TIP3    H146211   4.715   6.138  15.682 -0.7857 -0.0910 -0.3882
 8240TIP3    H246212   4.852   6.108  15.626 -0.6291 -1.3136  0.6067
 8241TIP3   OH246213   6.543   2.877  14.697  0.0462 -0.1610 -0.5774
 8241TIP3    H146214   6.565   2.969  14.686  1.2140 -0.3172  0.2324
 8241TIP3    H246215   6.624   2.830  14.676  0.5264 -0.7863  2.2447
 8242TIP3   OH246216   2.252   4.295   3.121  0.3110 -0.1612 -0.3006
 8242TIP3    H146217   2.231   4.242   3.198  0.7128 -0.3740 -0.3321
 8242TIP3    H246218   2.171   4.297   3.070 -0.2854  0.8785  0.6490
 8243TIP3   OH246219   2.846   4.723   5.826 -0.3173 -0.0268 -0.1002
 8243TIP3    H146220   2.819   4.751   5.913  1.1192  1.4278 -0.0630
 8243TIP3    H246221   2.940   4.736   5.824 -0.1624 -1.0154 -1.5466
 8244TIP3   OH246222   1.056   5.224  10.742  0.2070  0.6728  0.0457
 8244TIP3    H146223   1.053   5.130  10.725 -1.5860  0.5634  0.6959
 8244TIP3    H246224   1.083   5.263  10.659  0.5886 -0.3784 -0.3455
 8245TIP3   OH246225   5.897   3.804  12.455 -0.0344  0.0424  0.1076
 8245TIP3    H146226   5.950   3.815  12.534 -1.2557 -1.2290  1.1437
 8245TIP3    H246227   5.850   3.887  12.446  0.8532  0.5583  0.1341
 8246TIP3   OH246228   1.396   5.736  13.703  0.4400 -0.1803 -0.7656
 8246TIP3    H146229   1.348   5.762  13.782  1.9364  0.9321 -0.1752
 8246TIP3    H246230   1.391   5.640  13.702  0.7929 -0.2412  0.9506
 8247TIP3   OH246231   5.040   2.086   1.017  0.3303  0.0297 -0.0022
 8247TIP3    H146232   5.117   2.046   1.057  0.1491  0.0523  0.3723
 8247TIP3    H246233   4.991   2.012   0.982 -0.1678 -0.1156  0.9766
 8248TIP3   OH246234   6.001   0.807   3.403  0.3940 -0.0308  0.1956
 8248TIP3    H146235   5.994   0.807   3.498  1.1292 -0.9260  0.2679
 8248TIP3    H246236   5.985   0.898   3.377 -0.8829  0.0193  1.0749
 8249TIP3   OH246237   4.284   3.545  13.627  0.1070  0.0408 -0.1608
 8249TIP3    H146238   4.336   3.611  13.580  2.4077 -1.3878  0.2313
 8249TIP3    H246239   4.253   3.591  13.705  0.0118  1.1833 -0.8381
 8250TIP3   OH246240   4.042   3.021  11.882 -0.2444 -0.2451  0.0637
 8250TIP3    H146241   4.132   3.036  11.911 -0.4088 -0.4330  0.6880
 8250TIP3    H246242   3.999   2.980  11.957 -0.8091 -0.3104 -0.2874
 8251TIP3   OH246243   2.122   2.830  13.937  0.0645  0.2419  0.1234
 8251TIP3    H146244   2.065   2.756  13.914 -0.9712  1.6933 -2.3764
 8251TIP3    H246245   2.089   2.861  14.021 -0.3125 -1.2997  0.5760
 8252TIP3   OH246246   5.313   4.812   0.764 -0.2530 -0.3469 -0.0859
 8252TIP3    H146247   5.399   4.818   0.724  0.7445 -1.4117  1.7909
 8252TIP3    H246248   5.309   4.724   0.801 -1.3167  0.3496  1.6113
 8253TIP3   OH246249   5.701   6.195  16.311 -0.2460 -0.1644 -0.1401
 8253TIP3    H146250   5.686   6.244  16.392 -1.3828 -0.4700 -0.1524
 8253TIP3    H246251   5.643   6.236  16.247  0.9026  0.2981 -0.9002
 8254TIP3   OH246252   4.974   4.038  15.479  0.1585  0.3837  0.0862
 8254TIP3    H146253   4.974   3.949  15.445  0.5043  0.6197 -0.5568
 8254TIP3    H246254   4.936   4.031  15.566  0.2093 -0.3928  0.0498
 8255TIP3   OH246255   2.824   5.848   1.691 -0.9202  0.0469  0.1465
 8255TIP3    H146256   2.835   5.907   1.765 -0.1301  0.8069 -0.5603
 8255TIP3    H246257   2.870   5.890   1.619  2.1216 -2.6945  0.2609
 8256TIP3   OH246258   3.012   5.455  16.933  0.6807  0.4401  0.0612
 8256TIP3    H146259   3.049   5.496  16.854 -0.7608  2.4410  0.3492
 8256TIP3    H246260   2.970   5.527  16.980  0.2683 -0.9615  1.9684
 8257TIP3   OH246261   5.456   6.354   2.621 -0.1991 -0.3578 -1.1421
 8257TIP3    H146262   5.360   6.354   2.624 -0.2356 -0.7194 -2.0171
 8257TIP3    H246263   5.477   6.372   2.529  0.5786  0.2320 -0.8483
 8258TIP3   OH246264   2.411   2.093  11.383 -0.6498  0.0817 -0.0425
 8258TIP3    H146265   2.366   2.009  11.393 -0.5480 -0.2837 -2.1265
 8258TIP3    H246266   2.341   2.157  11.376 -0.7502  0.0475  0.6251
 8259TIP3   OH246267   3.071   6.720   2.794  0.1950  0.2582  0.2797
 8259TIP3    H146268   3.132   6.736   2.722  1.3366 -0.4495  1.0476
 8259TIP3    H246269   3.116   6.656   2.849 -1.3310 -0.4146  0.7956
 8260TIP3   OH246270   4.443   3.715   5.728  0.5302 -0.3497  0.2538
 8260TIP3    H146271   4.436   3.687   5.819  1.2246 -1.5632 -0.0351
 8260TIP3    H246272   4.537   3.730   5.715  0.8542 -2.8327 -0.9429
 8261TIP3   OH246273   4.026   6.337  14.489  0.3579  0.2035 -0.1301
 8261TIP3    H146274   4.023   6.418  14.438 -1.2071 -1.5594 -3.1246
 8261TIP3    H246275   4.088   6.282  14.442  0.4280 -0.7911  1.0952
 8262TIP3   OH246276   0.430   0.038  11.421 -0.0535  0.1161  0.3439
 8262TIP3    H146277   0.406  -0.011  11.343  0.9249  1.0051 -0.5582
 8262TIP3    H246278   0.364   0.107  11.428  1.1014  1.4510 -1.0845
 8263TIP3   OH246279   4.241   1.049  16.480 -0.5891 -0.3378  0.1063
 8263TIP3    H146280   4.318   0.999  16.454 -1.4816 -2.7689  1.8037
 8263TIP3    H246281   4.276   1.119  16.536  0.5343  0.0639 -1.0335
 8264TIP3   OH246282   6.492   3.905  14.108  0.6874 -0.4478 -0.2800
 8264TIP3    H146283   6.534   3.991  14.107 -0.0905 -0.0602 -0.7401
 8264TIP3    H246284   6.540   3.856  14.174  1.8773 -0.0388 -0.8119
 8265TIP3   OH246285   1.043   0.940  16.729 -0.2906  0.4847 -0.0175
 8265TIP3    H146286   1.114   0.905  16.783 -0.7014  0.4100  0.4862
 8265TIP3    H246287   1.060   1.034  16.725  0.3385  0.3535 -0.6616
 8266TIP3   OH246288   0.217   1.895   0.649 -0.5456 -0.3523  0.4193
 8266TIP3    H146289   0.125   1.899   0.622 -1.0558 -0.8746  1.9945
 8266TIP3    H246290   0.262   1.858   0.573 -1.6247 -0.0950 -0.3780
 8267TIP3   OH246291   2.249   0.183  11.848 -0.3035  0.0388 -0.1835
 8267TIP3    H146292   2.241   0.117  11.779  1.4949 -1.4370  0.8941
 8267TIP3    H246293   2.340   0.176  11.877 -0.6403  1.5344  1.4373
 8268TIP3   OH246294   2.351   4.677  14.791  0.0845 -0.2401  0.6228
 8268TIP3    H146295   2.422   4.654  14.852  2.5577 -0.6285 -2.1953
 8268TIP3    H246296   2.336   4.597  14.741  1.0415  1.0720 -1.9507
 8269TIP3   OH246297   4.185   5.071   4.712  0.6146 -0.2017 -0.1455
 8269TIP3    H146298   4.218   4.982   4.701 -2.0489 -1.3067 -0.0750
 8269TIP3    H246299   4.108   5.060   4.769  0.0665  2.1153 -0.3670
 8270TIP3   OH246300   5.100   2.801   1.141  0.5877 -0.1594 -0.4647
 8270TIP3    H146301   5.151   2.792   1.061  0.6903 -1.7080 -0.2478
 8270TIP3    H246302   5.149   2.754   1.207 -0.4096 -0.4682  0.0812
 8271TIP3   OH246303   1.021   0.177  16.892  0.4720 -0.7382  0.5558
 8271TIP3    H146304   0.996   0.087  16.916  2.8939 -1.8673 -0.7603
 8271TIP3    H246305   1.092   0.199  16.952  0.7124 -0.1795  0.0745
 8272TIP3   OH246306   0.898   5.543  16.359  0.4453  0.1116  0.3895
 8272TIP3    H146307   0.927   5.454  16.380 -0.7103 -0.5608 -0.7608
 8272TIP3    H246308   0.804   5.543  16.374  0.5162  1.3421  0.9895
 8273TIP3   OH246309   1.749   5.689   2.818  0.0461 -0.5042 -1.0072
 8273TIP3    H146310   1.675   5.630   2.834  0.2776 -1.3926 -2.8637
 8273TIP3    H246311   1.713   5.756   2.759  0.1395  0.4378 -0.0115
 8274TIP3   OH246312   2.058   3.736   1.607 -0.3638  0.4277 -0.1912
 8274TIP3    H146313   1.992   3.802   1.585 -0.3671  0.2800 -0.6158
 8274TIP3    H246314   2.111   3.778   1.676 -0.4081  0.8454 -0.4076
 8275TIP3   OH246315   0.085   1.495   5.976 -0.3028  0.4333  0.5242
 8275TIP3    H146316   0.179   1.499   5.991 -0.3751  1.1877  0.8101
 8275TIP3    H246317   0.060   1.586   5.956 -1.0482  0.3251  0.9343
 8276TIP3   OH246318   3.130   3.455   1.277  0.0451 -0.3150 -0.0436
 8276TIP3    H146319   3.064   3.403   1.323 -0.1733  0.6947  0.8330
 8276TIP3    H246320   3.187   3.487   1.346 -1.9311  3.6363  0.0633
 8277TIP3   OH246321   1.729   1.683   2.570 -0.6296  0.3500  0.4799
 8277TIP3    H146322   1.636   1.705   2.561 -0.3647  1.6204  0.6445
 8277TIP3    H246323   1.739   1.603   2.518 -1.7347  0.4187  0.1212
 8278TIP3   OH246324   3.326   0.429   3.568  0.1484 -0.3877 -0.4567
 8278TIP3    H146325   3.373   0.366   3.513  0.7321  1.0723 -1.7050
 8278TIP3    H246326   3.242   0.441   3.525 -0.5422 -1.3573  0.5744
 8279TIP3   OH246327   0.862   5.025   0.405  0.6319  0.0142 -0.8776
 8279TIP3    H146328   0.888   5.114   0.429  0.2904  0.0704 -0.7177
 8279TIP3    H246329   0.909   5.008   0.323  0.7098  0.3344 -0.9010
 8280TIP3   OH246330   2.854   2.662   5.616  0.0034  1.0454  0.8270
 8280TIP3    H146331   2.800   2.592   5.652 -0.3263 -1.0729 -3.1248
 8280TIP3    H246332   2.936   2.658   5.666 -0.2928 -1.7400  1.2642
 8281TIP3   OH246333   4.533   5.263   3.711 -0.0653 -0.7449  0.1324
 8281TIP3    H146334   4.503   5.334   3.768 -0.0586 -1.6850  1.3480
 8281TIP3    H246335   4.456   5.238   3.660 -1.1903 -2.3924  2.4300
 8282TIP3   OH246336   6.277   6.704   2.511 -0.1971  0.0422 -0.5227
 8282TIP3    H146337   6.368   6.700   2.483 -0.3689  0.3384 -1.1418
 8282TIP3    H246338   6.277   6.664   2.598  0.5093 -0.0196 -0.5441
 8283TIP3   OH246339   0.644   6.286  15.707  0.1685 -0.2628 -0.2032
 8283TIP3    H146340   0.658   6.346  15.780  0.1605  1.2797 -1.4096
 8283TIP3    H246341   0.555   6.305  15.677  1.0159  0.9300 -2.1319
 8284TIP3   OH246342   2.383   6.554   2.885  0.0073  0.1159 -0.1065
 8284TIP3    H146343   2.383   6.602   2.803 -0.1913 -0.5824 -0.5249
 8284TIP3    H246344   2.373   6.462   2.859  2.6088 -0.4229  0.5070
 8285TIP3   OH246345   2.812   1.549  16.400 -0.2959  0.6995 -1.0146
 8285TIP3    H146346   2.836   1.642  16.396  0.3845  0.5243 -1.0741
 8285TIP3    H246347   2.734   1.547  16.456 -0.4744  1.3361 -1.2279
 8286TIP3   OH246348   1.560   1.641  12.595 -0.4764  0.0587  0.0006
 8286TIP3    H146349   1.513   1.682  12.523 -0.0128  0.7227  0.0730
 8286TIP3    H246350   1.644   1.613  12.558 -0.4102  0.0150  0.1802
 8287TIP3   OH246351   2.611   0.143  13.697 -0.1653  0.5098  0.1717
 8287TIP3    H146352   2.563   0.061  13.708 -0.1883  0.3356 -1.1156
 8287TIP3    H246353   2.624   0.151  13.603  1.5125  1.0311  0.4201
 8288TIP3   OH246354   4.578   6.668   0.578 -0.1706 -0.5070 -0.5591
 8288TIP3    H146355   4.617   6.589   0.615  0.9212  0.4100  0.3474
 8288TIP3    H246356   4.651   6.713   0.536 -0.6376  0.3201 -0.5072
 8289TIP3   OH246357   4.391   1.419  14.934  0.4239 -0.1251  0.1514
 8289TIP3    H146358   4.444   1.432  15.012 -0.2264 -1.1734  0.8002
 8289TIP3    H246359   4.440   1.356  14.882  1.0610  0.8910 -0.5052
 8290TIP3   OH246360   1.765   3.840   2.356 -0.1357 -0.4200  0.6580
 8290TIP3    H146361   1.780   3.839   2.451  0.5204  0.5316  0.5662
 8290TIP3    H246362   1.805   3.921   2.325 -0.0027 -0.9083 -0.4998
 8291TIP3   OH246363   0.801   4.958   4.559 -0.2839  0.0459  0.0007
 8291TIP3    H146364   0.726   5.014   4.537  0.1414  1.2716  1.4761
 8291TIP3    H246365   0.766   4.869   4.556 -1.4868  0.5144 -0.5423
 8292TIP3   OH246366   4.403   4.487   4.388 -0.3018  0.2300  0.0035
 8292TIP3    H146367   4.357   4.542   4.452  0.3742  0.3980  0.3505
 8292TIP3    H246368   4.333   4.455   4.331 -0.8196  0.7146  0.3435
 8293TIP3   OH246369   2.204   5.417   6.113 -0.2630  0.0733  0.2338
 8293TIP3    H146370   2.198   5.429   6.019 -0.4061  0.1417  0.2519
 8293TIP3    H246371   2.132   5.468   6.149  0.4822  1.0018  0.4609
 8294TIP3   OH246372   5.598   5.706  10.943  0.1923  0.1411  0.1204
 8294TIP3    H146373   5.677   5.714  10.997  0.8576 -0.2157 -0.7895
 8294TIP3    H246374   5.600   5.783  10.887  0.1443 -0.1167 -0.2332
 8295TIP3   OH246375   5.067   3.780  12.442 -0.1159  0.0279 -0.5008
 8295TIP3    H146376   5.041   3.749  12.528  0.7017 -0.3162 -0.3661
 8295TIP3    H246377   4.989   3.770  12.388 -0.0815 -1.6123 -0.2939
 8296TIP3   OH246378   1.490   2.821  11.101  0.2029  0.0962  0.4042
 8296TIP3    H146379   1.499   2.887  11.032  0.7055  0.2791  0.6347
 8296TIP3    H246380   1.522   2.740  11.062 -3.7285 -0.9450 -1.1097
 8297TIP3   OH246381   1.711   4.911   2.100 -0.0892 -0.2850 -0.4152
 8297TIP3    H146382   1.785   4.926   2.042  0.8479 -1.7494  0.3291
 8297TIP3    H246383   1.646   4.867   2.045  0.0086  0.0915 -0.8291
 8298TIP3   OH246384   6.722   0.932  14.023  0.2374 -0.5388  0.0069
 8298TIP3    H146385   6.705   0.839  14.041 -3.7387  0.2904  1.7572
 8298TIP3    H246386   6.725   0.972  14.110 -1.2341  1.3323 -0.7464
 8299TIP3   OH246387   5.667   2.924  15.613 -0.5491  0.5466 -0.2919
 8299TIP3    H146388   5.663   2.879  15.529 -0.8020 -2.7398  1.2737
 8299TIP3    H246389   5.576   2.931  15.641 -0.4627  1.5356 -0.2570
 8300TIP3   OH246390   4.303   6.313   5.827 -0.0605 -0.0851 -0.2090
 8300TIP3    H146391   4.227   6.266   5.863 -0.6196  0.4166 -0.6961
 8300TIP3    H246392   4.268   6.400   5.805  0.7899  0.3272  0.0520
 8301TIP3   OH246393   0.213   4.678  14.183  0.1981  0.5148  0.2062
 8301TIP3    H146394   0.274   4.736  14.228  0.8800  0.6460 -0.8428
 8301TIP3    H246395   0.247   4.672  14.093  0.5002 -1.9890  0.4132
 8302TIP3   OH246396   2.519   3.966   4.548 -0.9645  0.5114  0.1984
 8302TIP3    H146397   2.488   3.903   4.483  1.1903  1.6405 -2.0819
 8302TIP3    H246398   2.568   3.914   4.611  1.0039 -0.1768 -1.7856
 8303TIP3   OH246399   4.059   4.093   4.726  1.5201  0.1456  0.2048
 8303TIP3    H146400   4.138   4.045   4.705  1.3612 -0.9773  1.9960
 8303TIP3    H246401   4.019   4.045   4.798 -1.7577 -0.3757 -1.7237
 8304TIP3   OH246402   0.980   2.065   5.131 -0.9205 -0.4294 -0.2863
 8304TIP3    H146403   0.989   2.085   5.224  1.7213  0.1072 -0.5707
 8304TIP3    H246404   0.936   2.141   5.094 -0.2136  0.2705  0.2583
 8305TIP3   OH246405   4.966   4.405   1.199  0.2494 -0.4114  0.2521
 8305TIP3    H146406   5.058   4.419   1.222  0.6795 -0.0620 -1.5187
 8305TIP3    H246407   4.921   4.483   1.230  1.0907  0.8187 -1.4936
 8306TIP3   OH246408   6.639   2.217  12.377 -0.2699 -0.3967 -0.1359
 8306TIP3    H146409   6.596   2.227  12.462  1.8242  2.8388  0.7238
 8306TIP3    H246410   6.614   2.295  12.328  2.0835  0.0969 -0.6859
 8307TIP3   OH246411   0.832   0.083   1.521  0.3114 -0.1512  0.4598
 8307TIP3    H146412   0.874   0.117   1.600  0.6617  1.1229 -0.2528
 8307TIP3    H246413   0.760   0.144   1.505  0.4089 -0.2440 -0.3549
 8308TIP3   OH246414   2.531   5.259  13.312  0.3253 -0.0379 -0.8676
 8308TIP3    H146415   2.500   5.179  13.353 -1.1611  1.2227  0.6121
 8308TIP3    H246416   2.452   5.301  13.277  1.1103  0.6344 -1.9303
 8309TIP3   OH246417   0.438   5.002  12.132 -0.0761 -0.3000  0.1828
 8309TIP3    H146418   0.531   5.022  12.124 -0.3173  0.6850 -0.3490
 8309TIP3    H246419   0.428   4.918  12.088  0.3556  0.2331 -0.9809
 8310TIP3   OH246420   1.960   6.355   3.810 -0.4873  0.2875  0.2422
 8310TIP3    H146421   1.953   6.423   3.877 -0.8675  2.6313 -2.0347
 8310TIP3    H246422   1.870   6.338   3.783 -0.3575 -0.8199  0.4516
 8311TIP3   OH246423   4.883   5.363   0.488 -0.4115 -0.4608  0.0133
 8311TIP3    H146424   4.962   5.415   0.502 -0.5320 -0.6937  1.8882
 8311TIP3    H246425   4.893   5.289   0.549 -0.4993 -2.3814 -2.1643
 8312TIP3   OH246426   3.908   1.604   2.382  0.2778 -0.2189 -0.2167
 8312TIP3    H146427   3.888   1.551   2.459  0.8399  0.0201  0.0953
 8312TIP3    H246428   3.988   1.566   2.346 -0.1825 -0.5672 -0.9084
 8313TIP3   OH246429   4.803   4.992  13.945 -0.4172  0.3219 -0.0964
 8313TIP3    H146430   4.747   5.047  14.000 -0.9872 -0.2109 -0.1328
 8313TIP3    H246431   4.750   4.914  13.929 -0.0828  0.2874 -1.0415
 8314TIP3   OH246432   0.373   0.326  14.370 -0.0206 -0.2574  0.3694
 8314TIP3    H146433   0.313   0.376  14.316  0.2024  0.5783  0.8752
 8314TIP3    H246434   0.460   0.345  14.334 -0.0740 -1.8966 -0.7113
 8315TIP3   OH246435   0.075   1.070   1.142  0.0928 -0.2055 -0.2452
 8315TIP3    H146436   0.088   1.014   1.218  0.4010 -0.9800 -0.8553
 8315TIP3    H246437   0.086   1.159   1.175  0.0573 -0.5258  0.6437
 8316TIP3   OH246438   6.148   4.349  16.788  0.0988 -0.5946 -0.0387
 8316TIP3    H146439   6.166   4.363  16.695 -0.3014 -0.6728 -0.1297
 8316TIP3    H246440   6.082   4.280  16.790 -1.1827  0.5703  0.2159
 8317TIP3   OH246441   3.977   1.519   4.103  0.3538  0.2308 -0.1185
 8317TIP3    H146442   4.034   1.521   4.181 -0.7173  0.1440  0.6949
 8317TIP3    H246443   4.002   1.596   4.053  0.3916  0.8500  0.8251
 8318TIP3   OH246444   5.674   4.065  13.333 -0.1052  0.0556 -0.4244
 8318TIP3    H146445   5.587   4.038  13.362  0.3263 -3.0111 -1.5661
 8318TIP3    H246446   5.658   4.131  13.266 -1.5286 -0.0295 -0.1967
 8319TIP3   OH246447   0.811   5.117  15.843  0.2293 -0.1914 -0.2665
 8319TIP3    H146448   0.749   5.164  15.787 -0.5062 -0.8904 -0.0675
 8319TIP3    H246449   0.880   5.089  15.783 -0.4517 -0.7639 -0.8194
 8320TIP3   OH246450   0.646   1.199   4.192 -0.1749 -0.1741  0.0142
 8320TIP3    H146451   0.667   1.256   4.266 -2.3319 -0.2696  0.7679
 8320TIP3    H246452   0.556   1.221   4.169 -0.0504 -1.2053 -1.6342
 8321TIP3   OH246453   3.755   6.446   0.472  0.1310  0.1502  0.4474
 8321TIP3    H146454   3.730   6.477   0.559 -1.3035  0.2349  0.0321
 8321TIP3    H246455   3.758   6.525   0.418 -1.6805 -0.1500 -0.1788
 8322TIP3   OH246456   2.470   1.499   5.402 -0.1263  0.7346  0.1862
 8322TIP3    H146457   2.481   1.568   5.467  2.1560  0.0510  0.6529
 8322TIP3    H246458   2.487   1.418   5.450  0.6163  0.1347 -1.0271
 8323TIP3   OH246459   6.689   3.449   4.734  0.0544  0.4312 -0.2163
 8323TIP3    H146460   6.596   3.453   4.713  0.4791  0.3672 -2.3485
 8323TIP3    H246461   6.703   3.518   4.798 -1.3093  0.9702 -0.4751
 8324TIP3   OH246462   2.756   3.563   6.524  0.2912 -0.1211  0.4417
 8324TIP3    H146463   2.782   3.537   6.435 -1.6819 -0.0911 -0.2093
 8324TIP3    H246464   2.765   3.482   6.576  0.7052 -0.3446  0.0295
 8325TIP3   OH246465   5.559   6.312   1.085  0.0882  0.7891 -0.1972
 8325TIP3    H146466   5.535   6.355   1.167  1.0663  1.4209 -0.2180
 8325TIP3    H246467   5.523   6.224   1.092  0.5394  0.6842  1.1226
 8326TIP3   OH246468   2.291   0.124  11.150 -0.1407  0.0824  1.0855
 8326TIP3    H146469   2.242   0.092  11.226  1.0167  0.6900  2.1177
 8326TIP3    H246470   2.338   0.201  11.182 -1.5622  1.8983 -0.8980
 8327TIP3   OH246471   5.974   5.463   2.013  0.1296 -0.2840 -0.1514
 8327TIP3    H146472   5.953   5.473   1.920 -0.4083  0.1887  0.0143
 8327TIP3    H246473   5.911   5.520   2.058  0.4085 -0.4812  0.4993
 8328TIP3   OH246474   1.157   6.128  17.158  0.0240  0.7731 -0.1921
 8328TIP3    H146475   1.136   6.212  17.117 -0.4292  1.0843  0.6486
 8328TIP3    H246476   1.253   6.126  17.160  0.0385  1.2278 -0.3225
 8329TIP3   OH246477   3.645   5.911  15.267  0.1364 -0.3232  1.0832
 8329TIP3    H146478   3.626   5.899  15.360  0.8170  0.4424  1.3308
 8329TIP3    H246479   3.686   5.829  15.241 -2.0262 -1.4194  0.8967
 8330TIP3   OH246480   6.128   0.789  11.227  0.2421 -0.0196 -0.0335
 8330TIP3    H146481   6.196   0.854  11.207  1.1989 -1.0994 -0.3963
 8330TIP3    H246482   6.048   0.825  11.190  0.8896  0.6447 -0.8132
 8331TIP3   OH246483   2.509   2.721  17.069 -0.4479 -0.5318  0.5417
 8331TIP3    H146484   2.519   2.693  17.160  0.8670  0.9802  0.9139
 8331TIP3    H246485   2.440   2.788  17.073  0.4175  0.3827  0.6631
 8332TIP3   OH246486   3.796   4.153  11.900  0.3979  0.2722  0.8140
 8332TIP3    H146487   3.734   4.109  11.842  0.5925  0.4043  0.5008
 8332TIP3    H246488   3.865   4.088  11.914  1.1779  0.7884 -0.4366
 8333TIP3   OH246489   3.671   6.382   2.788  0.6192 -0.3878  0.0248
 8333TIP3    H146490   3.681   6.345   2.875  0.9971 -0.7374 -0.1617
 8333TIP3    H246491   3.758   6.376   2.749  1.2421  2.6201  0.7162
 8334TIP3   OH246492   0.029   3.636  12.933 -0.0823  0.3868 -0.0075
 8334TIP3    H146493  -0.061   3.606  12.943 -0.7525  1.8297 -1.2693
 8334TIP3    H246494   0.069   3.573  12.873 -0.2900 -0.1409  0.3971
 8335TIP3   OH246495   5.414   4.916  15.388 -0.6770 -0.0935  0.6892
 8335TIP3    H146496   5.507   4.904  15.370 -0.2878  0.9119  1.9026
 8335TIP3    H246497   5.370   4.890  15.307  0.7639  1.0576 -0.5194
 8336TIP3   OH246498   0.698   2.343   5.294 -0.5061  0.2160 -0.1032
 8336TIP3    H146499   0.631   2.409   5.308  0.0762  0.6780  0.5788
 8336TIP3    H246500   0.780   2.385   5.320 -0.1745 -0.8901  0.7470
 8337TIP3   OH246501   4.608   6.116   6.251  0.0850  0.4662  0.0148
 8337TIP3    H146502   4.588   6.065   6.329  0.2618  0.8334  0.3023
 8337TIP3    H246503   4.650   6.053   6.192  2.2497  0.7233  1.1733
 8338TIP3   OH246504   2.080   3.812   3.801  0.7959 -0.1818 -0.1455
 8338TIP3    H146505   2.014   3.878   3.778  0.9055  1.1472  2.8671
 8338TIP3    H246506   2.029   3.738   3.834  0.7286 -1.2446 -2.4156
 8339TIP3   OH246507   3.796   5.979  12.079  0.1684  0.3120 -0.3491
 8339TIP3    H146508   3.860   5.998  12.011 -0.6755 -1.0703 -1.5900
 8339TIP3    H246509   3.810   5.886  12.099  1.0458  0.8903  2.1209
 8340TIP3   OH246510   3.391   5.733   1.029  0.5215  0.6205 -0.4033
 8340TIP3    H146511   3.422   5.654   1.072  1.9353  1.1820 -0.3373
 8340TIP3    H246512   3.305   5.749   1.068  0.7234 -0.2244  0.4290
 8341TIP3   OH246513   0.375   3.258   5.211 -0.3632  0.2650 -0.1518
 8341TIP3    H146514   0.402   3.292   5.296 -0.2354 -3.3416  1.4159
 8341TIP3    H246515   0.455   3.226   5.170 -0.5567  1.1395 -1.2640
 8342TIP3   OH246516   3.983   1.417   1.539 -0.0384  0.1195  0.0395
 8342TIP3    H146517   3.980   1.387   1.630 -0.0299  0.2118  0.0702
 8342TIP3    H246518   3.891   1.432   1.516 -0.0076  0.4925  0.1646
 8343TIP3   OH246519   4.137   3.552   4.696 -0.0338 -0.7870 -0.5052
 8343TIP3    H146520   4.092   3.618   4.749  0.1471 -1.1164  0.0703
 8343TIP3    H246521   4.218   3.534   4.744 -0.0810 -1.4187 -0.6563
 8344TIP3   OH246522   2.742   3.710  12.302 -0.2734 -0.1040 -0.4895
 8344TIP3    H146523   2.815   3.682  12.245 -1.7002 -2.1641 -1.4291
 8344TIP3    H246524   2.756   3.662  12.384  0.0755  0.4639 -0.2076
 8345TIP3   OH246525   3.745   0.018   1.571  0.5785  0.4169 -0.0236
 8345TIP3    H146526   3.777  -0.023   1.652 -0.4990 -0.5451 -0.0559
 8345TIP3    H246527   3.824   0.050   1.527  1.2721  0.0388  0.9132
 8346TIP3   OH246528   2.277   0.626   1.637  0.5841 -0.0562 -0.1831
 8346TIP3    H146529   2.331   0.586   1.569 -0.2176 -1.2776 -0.1169
 8346TIP3    H246530   2.311   0.716   1.644 -1.3292  1.2635 -4.4304
 8347TIP3   OH246531   2.007   5.657  13.200 -0.3321  0.3007  0.4813
 8347TIP3    H146532   2.031   5.730  13.257 -2.8361  1.4254  0.2005
 8347TIP3    H246533   2.028   5.579  13.252 -1.8597  1.2815  2.7345
 8348TIP3   OH246534   4.125   4.893   1.804 -0.1516 -0.0956  0.1922
 8348TIP3    H146535   4.175   4.811   1.800 -0.1730 -0.0545 -1.7831
 8348TIP3    H246536   4.148   4.939   1.723 -0.0218  1.9431  1.3276
 8349TIP3   OH246537   6.074   5.800   2.674  0.5065 -0.1728  0.0956
 8349TIP3    H146538   6.015   5.801   2.599  0.6490 -0.6208 -0.0244
 8349TIP3    H246539   6.076   5.708   2.702 -0.5223  0.1746  1.4242
 8350TIP3   OH246540   3.428   2.353   5.555 -0.3997  0.3506  0.2032
 8350TIP3    H146541   3.407   2.437   5.597 -0.7840 -0.1761  1.0848
 8350TIP3    H246542   3.352   2.333   5.501 -1.1633 -0.3488  1.4849
 8351TIP3   OH246543   5.362   0.542  11.185 -0.0667  0.2115  0.3880
 8351TIP3    H146544   5.307   0.603  11.135 -0.1298 -0.9791 -1.0649
 8351TIP3    H246545   5.444   0.537  11.135 -0.2847 -1.3281  0.1350
 8352TIP3   OH246546   0.141   1.549  17.046  0.6967  0.1716 -0.4606
 8352TIP3    H146547   0.135   1.644  17.034 -3.0315  0.3391  1.2395
 8352TIP3    H246548   0.062   1.514  17.005  2.0217 -2.3050 -1.1427
 8353TIP3   OH246549   1.458   5.237   2.966  0.0930 -0.2884 -0.0192
 8353TIP3    H146550   1.537   5.263   3.013 -0.5649  1.3547  0.2272
 8353TIP3    H246551   1.424   5.162   3.017  0.1439  0.5777  1.3402
 8354TIP3   OH246552   2.508   2.506   3.278 -0.8626 -0.2975  0.5540
 8354TIP3    H146553   2.532   2.536   3.366  0.6223 -0.2764  0.1783
 8354TIP3    H246554   2.462   2.580   3.239  0.4402  0.5649  0.5647
 8355TIP3   OH246555   2.526   4.356   2.085  0.0333  0.1694 -0.3383
 8355TIP3    H146556   2.610   4.321   2.115  0.0227 -0.4308 -0.9765
 8355TIP3    H246557   2.501   4.420   2.152  1.0987  0.5061 -0.2505
 8356TIP3   OH246558   5.141   4.430  13.778  0.1362 -0.4640 -0.2048
 8356TIP3    H146559   5.095   4.438  13.694 -2.4783  0.3867  1.1778
 8356TIP3    H246560   5.092   4.488  13.837  2.0957 -0.7583  1.8389
 8357TIP3   OH246561   5.425   2.514   4.434  0.4127 -0.0078 -0.0332
 8357TIP3    H146562   5.392   2.571   4.364  0.5186  1.5473  1.1337
 8357TIP3    H246563   5.519   2.531   4.436  0.6648 -1.2391 -0.5300
 8358TIP3   OH246564   1.636   2.834  15.548  0.5806 -0.0074  0.1625
 8358TIP3    H146565   1.670   2.921  15.571  1.1885 -0.1542 -0.1616
 8358TIP3    H246566   1.583   2.850  15.469 -1.1749  0.4289  1.3721
 8359TIP3   OH246567   3.028   3.227  16.250 -0.1364  0.2576 -0.0540
 8359TIP3    H146568   3.064   3.283  16.319 -0.5109  0.4560 -0.0207
 8359TIP3    H246569   3.097   3.225  16.183  0.8993 -1.1780  0.9780
 8360TIP3   OH246570   0.522   4.546  15.828 -0.1549  0.3187  0.3368
 8360TIP3    H146571   0.585   4.606  15.867 -1.2305  0.4009  2.0439
 8360TIP3    H246572   0.529   4.466  15.881 -0.9991  0.0928  0.1211
 8361TIP3   OH246573   5.718   0.866   1.213 -0.9558 -0.2868  0.1188
 8361TIP3    H146574   5.709   0.845   1.307 -1.1171  0.2579  0.2251
 8361TIP3    H246575   5.769   0.947   1.211  0.9354 -1.4099 -0.3504
 8362TIP3   OH246576   3.968   6.013   3.139  0.7049  0.1544  0.2729
 8362TIP3    H146577   3.972   6.108   3.124  0.0007  0.3935  1.4749
 8362TIP3    H246578   4.047   5.979   3.097  0.8229  1.2349 -0.4249
 8363TIP3   OH246579   5.536   2.491  16.495  0.1488 -0.3250 -0.2298
 8363TIP3    H146580   5.555   2.401  16.520  0.1258 -0.0710  0.7527
 8363TIP3    H246581   5.525   2.537  16.578 -1.4909  0.2467 -0.7311
 8364TIP3   OH246582   2.775   4.865   0.251  0.2734  0.1116 -0.1955
 8364TIP3    H146583   2.837   4.810   0.296  0.3365  0.5238  0.2286
 8364TIP3    H246584   2.734   4.918   0.320 -1.3134 -0.8857 -0.3217
 8365TIP3   OH246585   0.137   2.623  11.716 -0.3578 -0.3116  0.0587
 8365TIP3    H146586   0.054   2.581  11.694 -0.7353  1.0912 -1.4427
 8365TIP3    H246587   0.117   2.677  11.792 -0.8287 -0.0373 -0.2537
 8366TIP3   OH246588   1.164   1.732  17.103 -0.2482  0.0295  0.7948
 8366TIP3    H146589   1.152   1.676  17.026  0.4729 -0.0270  0.7122
 8366TIP3    H246590   1.257   1.722  17.125  0.0469  1.7087  0.3859
 8367TIP3   OH246591   1.115   5.423   3.779 -0.6250 -0.2343  0.5011
 8367TIP3    H146592   1.182   5.360   3.752  0.6066  0.9441  0.7413
 8367TIP3    H246593   1.092   5.470   3.699 -0.7527 -0.2418  0.5324
 8368TIP3   OH246594   6.040   3.439  14.769 -0.1240  0.0668  0.0431
 8368TIP3    H146595   6.032   3.420  14.676  1.1894 -1.8768  0.2644
 8368TIP3    H246596   5.951   3.426  14.804 -0.5418  0.4122 -0.8634
 8369TIP3   OH246597   5.101   4.580  14.818  0.3952  0.1370 -0.2302
 8369TIP3    H146598   5.098   4.532  14.901 -0.4078  1.6856  0.6975
 8369TIP3    H246599   5.014   4.568  14.780 -0.6529  2.6630  1.1563
 8370TIP3   OH246600   2.077   4.407  14.630  0.2744  0.1789 -0.4621
 8370TIP3    H146601   2.044   4.412  14.720 -2.2746 -0.7779 -1.2697
 8370TIP3    H246602   2.137   4.332  14.631 -1.2628 -1.1035  0.0558
 8371TIP3   OH246603   6.540   0.997  13.332 -0.0497 -0.0656  0.3508
 8371TIP3    H146604   6.531   0.983  13.238  1.9256 -0.6447  0.1984
 8371TIP3    H246605   6.476   0.937  13.371 -1.7630  1.0783 -0.6080
 8372TIP3   OH246606   1.619   2.199  15.452  0.6719  0.2397  0.0418
 8372TIP3    H146607   1.611   2.106  15.430  0.2343  0.4118 -0.5594
 8372TIP3    H246608   1.557   2.212  15.524 -0.5044  0.3971 -0.9553
 8373TIP3   OH246609   4.441   1.469   5.738  0.1527  0.1475 -0.3303
 8373TIP3    H146610   4.514   1.425   5.693 -0.1343  0.9685 -1.6585
 8373TIP3    H246611   4.484   1.533   5.795  0.5566 -1.4951  1.3274
 8374TIP3   OH246612   5.406   0.062  13.953  0.0263 -0.1226  0.3512
 8374TIP3    H146613   5.338   0.010  13.996 -0.1392  0.6547  1.0700
 8374TIP3    H246614   5.444   0.003  13.888  1.5167 -1.9733  2.7548
 8375TIP3   OH246615   0.551   6.099  13.640  0.0084 -0.6269  0.2202
 8375TIP3    H146616   0.568   6.023  13.583  1.5291 -1.5219  1.7643
 8375TIP3    H246617   0.638   6.138  13.652 -0.5900  0.6585  0.4015
 8376TIP3   OH246618   4.042   5.948  16.960 -0.3169 -0.4340 -0.3768
 8376TIP3    H146619   4.092   6.029  16.968  1.1530 -1.3859  0.5507
 8376TIP3    H246620   4.031   5.918  17.050  0.4982 -2.0241 -0.7725
 8377TIP3   OH246621   3.777   0.307  12.234  0.1302 -0.2060  0.1760
 8377TIP3    H146622   3.829   0.231  12.262 -1.0341 -0.8354  0.6880
 8377TIP3    H246623   3.690   0.271  12.215 -0.7105  1.1215  1.3441
 8378TIP3   OH246624   0.063   4.878  12.187 -0.1074 -0.1185  0.0509
 8378TIP3    H146625   0.103   4.824  12.119  1.4209  0.4101  0.4756
 8378TIP3    H246626   0.056   4.820  12.263 -0.5691 -0.3380 -0.1581
 8379TIP3   OH246627   2.725   1.636  17.138 -0.1653 -0.0094  0.1133
 8379TIP3    H146628   2.639   1.607  17.109 -0.4089  0.9127 -0.1007
 8379TIP3    H246629   2.721   1.732  17.136  0.0950  0.0948  2.3264
 8380TIP3   OH246630   3.001   1.425   0.968  0.0614 -0.7956  0.6292
 8380TIP3    H146631   3.020   1.504   0.917 -0.5911 -0.7326  0.4823
 8380TIP3    H246632   3.063   1.429   1.041 -0.0545 -0.0812  0.6947
 8381TIP3   OH246633   3.757   2.157   2.353  0.5242  0.2007 -0.6505
 8381TIP3    H146634   3.706   2.087   2.311 -0.0602  1.2555 -1.7631
 8381TIP3    H246635   3.701   2.235   2.345  1.6140  1.0285 -0.3958
 8382TIP3   OH246636   0.409   3.635  13.491  0.3650  0.3049  0.5616
 8382TIP3    H146637   0.448   3.680  13.566  1.0961 -0.6114  0.7481
 8382TIP3    H246638   0.482   3.587  13.451 -0.4655 -1.0606  0.6356
 8383TIP3   OH246639   5.743   6.155  14.384  0.2089  0.5825 -0.6948
 8383TIP3    H146640   5.738   6.063  14.360 -2.6009  0.5922 -0.5084
 8383TIP3    H246641   5.778   6.155  14.473 -1.5589 -0.5270  0.0568
 8384TIP3   OH246642   1.372   0.208   1.793  0.0221  0.1067  0.2351
 8384TIP3    H146643   1.376   0.134   1.852  3.4339  0.6492  0.9130
 8384TIP3    H246644   1.392   0.171   1.707 -1.3505 -0.1456 -0.0009
 8385TIP3   OH246645   1.062   4.553  12.862  0.1283 -0.7672 -0.4562
 8385TIP3    H146646   1.020   4.633  12.831  1.0243 -0.2283 -0.3035
 8385TIP3    H246647   1.135   4.539  12.802  0.0696 -1.3916 -0.3897
 8386TIP3   OH246648   5.493   2.485  15.809 -0.5350  0.0429 -0.4061
 8386TIP3    H146649   5.485   2.405  15.758 -1.5629 -0.1482  0.0304
 8386TIP3    H246650   5.404   2.505  15.837 -0.2565  1.2017 -0.2904
 8387TIP3   OH246651   1.781   2.675   2.903  0.4775 -0.0710 -0.0373
 8387TIP3    H146652   1.790   2.757   2.952 -0.0336  0.4228 -0.7476
 8387TIP3    H246653   1.701   2.687   2.851  1.7427  0.0355 -2.1076
 8388TIP3   OH246654   1.353   0.112   5.629 -0.5019 -0.4829 -0.3146
 8388TIP3    H146655   1.296   0.127   5.553  0.3375 -2.2867 -1.3738
 8388TIP3    H246656   1.294   0.084   5.698 -1.0557 -1.1675 -1.0429
 8389TIP3   OH246657   6.318   2.913   2.833 -0.3683  0.7749 -0.0967
 8389TIP3    H146658   6.233   2.955   2.848 -0.7747  0.3032 -1.0290
 8389TIP3    H246659   6.306   2.823   2.864 -0.0833  0.8104  0.1239
 8390TIP3   OH246660   4.086   6.067  14.890 -0.1047 -0.5916 -0.0302
 8390TIP3    H146661   4.094   6.147  14.838 -0.2514 -0.3855  0.2611
 8390TIP3    H246662   3.997   6.070  14.925  0.4338  0.0106  1.4001
 8391TIP3   OH246663   2.286   0.304   1.157  0.0865  0.2131  0.0318
 8391TIP3    H146664   2.294   0.397   1.138  0.3351  0.0483 -0.7123
 8391TIP3    H246665   2.297   0.298   1.252 -0.8090  1.0246  0.2052
 8392TIP3   OH246666   4.021   6.674   2.240 -0.2170 -0.2283  0.4303
 8392TIP3    H146667   3.976   6.621   2.175 -0.5323  1.2797 -0.6174
 8392TIP3    H246668   3.966   6.667   2.319  0.3315 -2.3049  0.6956
 8393TIP3   OH246669   6.670   4.793  11.761  0.0860  0.4096 -0.4933
 8393TIP3    H146670   6.673   4.841  11.844  1.7124 -0.5895  0.0733
 8393TIP3    H246671   6.609   4.843  11.707  0.7554  2.4071  0.4831
 8394TIP3   OH246672   3.434   0.280  14.596  0.3548 -0.4110  0.3834
 8394TIP3    H146673   3.509   0.327  14.560 -0.5451  0.1726 -0.8115
 8394TIP3    H246674   3.394   0.342  14.656  1.3137 -1.0451  1.7181
 8395TIP3   OH246675   1.516   0.132  12.901  0.2043  0.4165  0.1156
 8395TIP3    H146676   1.595   0.131  12.848  1.1153 -0.8270  1.4128
 8395TIP3    H246677   1.479   0.219  12.889  0.8935  0.4879 -1.7600
 8396TIP3   OH246678   5.105   6.750   2.197 -0.1271  0.2152 -0.3896
 8396TIP3    H146679   5.020   6.735   2.238 -0.0011 -0.9782 -0.5336
 8396TIP3    H246680   5.166   6.760   2.270 -0.3159  0.6911 -0.2907
 8397TIP3   OH246681   4.933   6.258  14.522 -0.0579 -0.0673  0.1983
 8397TIP3    H146682   4.970   6.280  14.437  0.4064  0.1182  0.4487
 8397TIP3    H246683   4.890   6.173  14.508  1.6113 -0.9465  0.2271
 8398TIP3   OH246684   0.672   4.254   0.307  0.2429  0.1683  0.3608
 8398TIP3    H146685   0.750   4.238   0.359  0.2163  1.8699  0.9731
 8398TIP3    H246686   0.673   4.185   0.240  1.0777 -1.1434  1.6769
 8399TIP3   OH246687   0.168   4.559   5.108  0.0350  0.4149 -0.0417
 8399TIP3    H146688   0.260   4.536   5.125  0.0920  0.8733  0.2904
 8399TIP3    H246689   0.172   4.620   5.035  0.1024  1.3900  0.7594
 8400TIP3   OH246690   2.797   0.219   6.040  0.0685  0.2744  0.3960
 8400TIP3    H146691   2.855   0.188   6.109  1.2608  1.8451  0.1559
 8400TIP3    H246692   2.839   0.190   5.958  0.3023  1.0232  0.2404
 8401TIP3   OH246693   2.338   0.078   5.432  0.4138  0.0742  0.5069
 8401TIP3    H146694   2.278   0.084   5.357 -0.1695 -1.0664  0.8544
 8401TIP3    H246695   2.281   0.079   5.509  1.0127  1.2703  0.9552
 8402TIP3   OH246696   0.922   1.973   0.002  0.2050  0.3132  0.1085
 8402TIP3    H146697   1.014   1.997   0.000  0.8070 -1.5798  1.6548
 8402TIP3    H246698   0.876   2.054   0.023  1.1563  1.9174 -3.4449
 8403TIP3   OH246699   6.169   5.650  13.724  0.2619 -0.4093  0.0396
 8403TIP3    H146700   6.230   5.680  13.791  0.0834  0.9337 -0.3654
 8403TIP3    H246701   6.108   5.723  13.714 -1.5129 -1.7540  0.5310
 8404TIP3   OH246702   6.083   5.670  14.636 -0.3636 -0.1676  0.7135
 8404TIP3    H146703   6.018   5.697  14.701  0.3332  0.6224  1.0926
 8404TIP3    H246704   6.085   5.741  14.572 -1.0974 -0.9699 -0.2372
 8405TIP3   OH246705   1.120   1.788  14.737 -0.1566  0.1813  0.3019
 8405TIP3    H146706   1.206   1.803  14.698  0.3155 -0.6955  0.9781
 8405TIP3    H246707   1.127   1.702  14.779 -0.2705  1.5308  3.2989
 8406TIP3   OH246708   4.924   1.627  12.206 -0.0007  0.2251  0.2775
 8406TIP3    H146709   4.921   1.720  12.186  0.2313 -0.4032 -3.2110
 8406TIP3    H246710   4.834   1.596  12.190  0.1787 -0.3489  0.3469
 8407TIP3   OH246711   2.813   5.714  11.542  0.1603 -0.5096  0.0473
 8407TIP3    H146712   2.904   5.743  11.541  0.2323 -0.6922  0.5296
 8407TIP3    H246713   2.776   5.744  11.459  1.0321 -1.6197 -0.7672
 8408TIP3   OH246714   0.638   4.056   5.345 -0.5260  0.1905  0.3101
 8408TIP3    H146715   0.646   3.968   5.307  0.4588  0.4717 -0.1654
 8408TIP3    H246716   0.725   4.094   5.337 -0.9649  1.2611  0.4034
 8409TIP3   OH246717   2.792   4.887  13.785  0.2238 -0.0887  0.0723
 8409TIP3    H146718   2.734   4.925  13.719 -0.2862  0.0236  0.5649
 8409TIP3    H246719   2.876   4.878  13.742 -0.1624 -0.2544 -0.6647
 8410TIP3   OH246720   5.993   1.266   0.647 -0.0713  0.1128  0.1113
 8410TIP3    H146721   5.912   1.216   0.649  0.7139 -1.2245 -0.5369
 8410TIP3    H246722   5.966   1.357   0.662 -1.3872 -0.6244  2.6636
 8411TIP3   OH246723   6.583   6.259   3.678 -0.3316 -0.3656  0.1844
 8411TIP3    H146724   6.510   6.290   3.732 -0.3070  0.7435 -0.4119
 8411TIP3    H246725   6.658   6.312   3.706  0.3141 -1.5723  0.8747
 8412TIP3   OH246726   5.705   6.057  11.656  0.2045  0.0890 -0.4015
 8412TIP3    H146727   5.778   6.002  11.683  1.3658  1.4846 -0.5467
 8412TIP3    H246728   5.627   6.010  11.684  1.2245 -0.3844  1.8596
 8413TIP3   OH246729   5.628   1.377  12.230 -0.2291 -0.1719 -0.5010
 8413TIP3    H146730   5.667   1.464  12.241 -0.8801  0.0066  0.5859
 8413TIP3    H246731   5.534   1.391  12.247 -0.6090 -0.7814 -2.0054
 8414TIP3   OH246732   6.721   2.994  11.215  0.6610 -0.1929  0.4048
 8414TIP3    H146733   6.816   3.004  11.211  0.6888 -0.7679 -2.4894
 8414TIP3    H246734   6.687   3.078  11.186  0.4412 -0.9617 -1.7867
 8415TIP3   OH246735   1.545   5.929  16.942  0.8013 -0.0241 -0.5959
 8415TIP3    H146736   1.625   5.976  16.968  2.5926 -2.8898 -0.4691
 8415TIP3    H246737   1.536   5.860  17.008 -0.1291 -1.5153 -2.2194
 8416TIP3   OH246738   3.478   5.278  13.349  0.4284  0.5796 -0.6956
 8416TIP3    H146739   3.540   5.339  13.388  1.5296 -1.3380  0.7443
 8416TIP3    H246740   3.502   5.276  13.256  0.2405  2.3979 -0.8207
 8417TIP3   OH246741   1.467   0.910   5.560  0.3255 -0.3797 -0.4755
 8417TIP3    H146742   1.376   0.939   5.573  0.5476  0.6590 -1.1307
 8417TIP3    H246743   1.459   0.825   5.516 -0.3289 -0.0179 -1.0757
 8418TIP3   OH246744   5.519   5.847  14.821  0.6137 -0.4257 -0.4424
 8418TIP3    H146745   5.563   5.932  14.821 -1.5241  0.7438  0.1324
 8418TIP3    H246746   5.503   5.827  14.729  0.9061 -0.0935 -0.5630
 8419TIP3   OH246747   5.986   4.535   3.880  0.1571  0.6765 -0.0274
 8419TIP3    H146748   5.990   4.630   3.871  1.6266  0.6420  0.1131
 8419TIP3    H246749   6.077   4.507   3.889 -0.3507 -0.5213  2.2749
 8420TIP3   OH246750   5.973   6.280   3.155 -0.0231  0.0502 -0.1498
 8420TIP3    H146751   5.960   6.374   3.142  2.2019  0.3821 -0.2890
 8420TIP3    H246752   6.030   6.274   3.231 -0.9592 -1.2721  0.4852
 8421TIP3   OH246753   0.319   3.184  14.025 -0.0380 -0.3231 -0.7107
 8421TIP3    H146754   0.238   3.179  14.075  1.0491 -0.6962  1.0898
 8421TIP3    H246755   0.296   3.234  13.947 -1.0562  3.4287  1.7506
 8422TIP3   OH246756   3.787   2.448  13.208  0.6987  0.1465 -0.2203
 8422TIP3    H146757   3.730   2.524  13.205  1.1945  0.4959 -2.0113
 8422TIP3    H246758   3.869   2.478  13.168  1.2278 -1.0586 -0.0829
 8423TIP3   OH246759   5.423   6.138  12.209 -0.7480  0.3899 -0.3046
 8423TIP3    H146760   5.447   6.209  12.150 -1.0565 -0.3442 -1.3284
 8423TIP3    H246761   5.378   6.182  12.282  0.5100  1.3987 -0.1002
 8424TIP3   OH246762   5.436   5.243   3.920 -0.6103 -1.0669 -0.2857
 8424TIP3    H146763   5.486   5.259   3.840  1.7597 -0.8996  1.1462
 8424TIP3    H246764   5.500   5.253   3.991 -2.8107 -0.3132  1.7155
 8425TIP3   OH246765   6.471   1.582   0.547 -0.0358 -0.2477  0.0623
 8425TIP3    H146766   6.542   1.545   0.599  0.4425  2.0339  1.1526
 8425TIP3    H246767   6.402   1.602   0.611 -0.9788 -0.8449 -0.7347
 8426TIP3   OH246768   3.295   0.586  16.673  0.1591 -0.1818 -0.0086
 8426TIP3    H146769   3.218   0.529  16.681  0.8360 -1.0976  0.2232
 8426TIP3    H246770   3.369   0.527  16.689  0.8905  0.7458  0.0659
 8427TIP3   OH246771   1.310   6.464   4.666  0.7664 -0.2835 -0.0583
 8427TIP3    H146772   1.223   6.447   4.631  0.0523 -1.1122  1.9662
 8427TIP3    H246773   1.352   6.520   4.601 -1.9496  1.7557 -0.1902
 8428TIP3   OH246774   3.133   1.611  16.420 -0.3195 -0.0016  0.2497
 8428TIP3    H146775   3.127   1.577  16.509  1.8793 -0.4626  0.2659
 8428TIP3    H246776   3.155   1.703  16.430 -0.6819  0.0969  0.1697
 8429TIP3   OH246777   1.732   5.284   4.758 -0.6547 -0.3887  0.4608
 8429TIP3    H146778   1.766   5.208   4.805  0.0115  0.1256  0.8305
 8429TIP3    H246779   1.739   5.356   4.821  1.7283  0.6688 -0.8713
 8430TIP3   OH246780   5.271   6.724   2.428 -0.1785  0.3597  0.0957
 8430TIP3    H146781   5.263   6.639   2.470  2.8217  0.9057  2.1000
 8430TIP3    H246782   5.234   6.786   2.492 -0.7775  0.7250 -0.5938
 8431TIP3   OH246783   3.952   5.012  14.107  0.5310 -0.1673 -0.3085
 8431TIP3    H146784   3.880   5.069  14.083  1.3021  1.0220  0.1006
 8431TIP3    H246785   3.910   4.934  14.145 -0.5416  0.0006 -1.1249
 8432TIP3   OH246786   5.638   1.294   3.838 -0.2178  0.1003  0.3206
 8432TIP3    H146787   5.608   1.384   3.843 -0.1834  0.1012  0.5426
 8432TIP3    H246788   5.723   1.294   3.883  1.1828  0.5412 -2.1529
 8433TIP3   OH246789   0.637   6.037  11.856  0.0854 -0.2711  0.1669
 8433TIP3    H146790   0.656   5.983  11.780  0.3328 -0.6882  0.5219
 8433TIP3    H246791   0.701   6.108  11.853 -1.5487  1.2425 -1.4820
 8434TIP3   OH246792   5.619   0.856   5.092 -0.3170 -0.0016  0.2212
 8434TIP3    H146793   5.658   0.876   5.177  1.9130 -0.7337 -0.5591
 8434TIP3    H246794   5.527   0.883   5.101 -0.1069  0.1127  2.7669
 8435TIP3   OH246795   0.696   3.948  11.737 -0.2726  0.1443  0.0322
 8435TIP3    H146796   0.626   3.956  11.672 -1.5615 -0.2553  1.3322
 8435TIP3    H246797   0.726   3.858  11.728  0.4286  0.4478 -0.8468
 8436TIP3   OH246798   6.401   4.924  11.978 -0.2382 -1.3992  0.1839
 8436TIP3    H146799   6.412   5.018  11.965  1.4125 -1.7189 -1.0087
 8436TIP3    H246800   6.377   4.890  11.891  0.1786 -2.2048  0.3736
 8437TIP3   OH246801   5.701   1.300  10.263  0.0494 -0.6945 -0.2282
 8437TIP3    H146802   5.665   1.260  10.343 -0.1486  1.7894  1.0141
 8437TIP3    H246803   5.788   1.261  10.254  0.8051  0.2095  2.2643
 8438TIP3   OH246804   5.051   1.195   4.727 -0.3684 -0.1013  0.6128
 8438TIP3    H146805   5.140   1.166   4.746  0.2543 -0.6932 -2.5797
 8438TIP3    H246806   5.061   1.285   4.694 -0.7201 -0.5934 -0.9462
 8439TIP3   OH246807   1.355   0.794  15.291  0.3189 -0.5610  0.2054
 8439TIP3    H146808   1.341   0.888  15.299  1.9057 -0.0555 -1.9146
 8439TIP3    H246809   1.271   0.760  15.261 -0.4321  0.0496  1.4997
 8440TIP3   OH246810   1.692   3.088  12.147 -0.0787 -0.0207  0.0508
 8440TIP3    H146811   1.700   3.181  12.169  0.7375 -0.4868  1.9943
 8440TIP3    H246812   1.782   3.055  12.151 -0.4522 -1.0585  0.2400
 8441TIP3   OH246813   0.213   3.756  10.607 -0.6543  0.1788 -0.0042
 8441TIP3    H146814   0.217   3.661  10.599  1.0110  0.3784 -2.8782
 8441TIP3    H246815   0.304   3.783  10.619 -1.0374  1.4206  0.2082
 8442TIP3   OH246816   5.621   1.845  14.006  0.1517 -0.5213 -0.1194
 8442TIP3    H146817   5.534   1.812  13.983 -0.7992 -1.1908  3.8001
 8442TIP3    H246818   5.676   1.767  14.013  0.0815 -0.4911  0.9543
 8443TIP3   OH246819   0.979   3.341  12.402 -0.8198 -0.2515  0.2084
 8443TIP3    H146820   0.944   3.364  12.316  0.0771 -0.2723 -0.1689
 8443TIP3    H246821   0.960   3.248  12.411 -1.4613 -0.1209  0.3074
 8444TIP3   OH246822   5.901   4.816   0.769 -0.4697 -0.0888  0.1010
 8444TIP3    H146823   5.964   4.844   0.703  0.1478  0.4959  0.9113
 8444TIP3    H246824   5.822   4.868   0.751  0.2101  1.2201  0.7494
 8445TIP3   OH246825   4.062   2.053   1.256 -0.0364  0.2028  0.1854
 8445TIP3    H146826   4.019   2.100   1.185  1.7190  3.3117  0.9705
 8445TIP3    H246827   3.991   2.008   1.302 -1.9371  2.1300 -0.6840
 8446TIP3   OH246828   6.129   5.193  10.418 -0.4209  0.8178  0.3811
 8446TIP3    H146829   6.218   5.187  10.383  0.0303  0.0575  1.5808
 8446TIP3    H246830   6.105   5.285  10.407  1.1020  1.3753  1.3584
 8447TIP3   OH246831   4.051   6.304  14.766  0.2757  0.0583 -0.1894
 8447TIP3    H146832   4.026   6.315  14.675  1.5380  0.6063 -0.4845
 8447TIP3    H246833   4.003   6.373  14.812 -0.4017 -0.2509 -0.4162
 8448TIP3   OH246834   4.256   4.166  15.562  0.3993 -0.3244  0.4185
 8448TIP3    H146835   4.226   4.214  15.639  0.3123 -0.7640  0.6635
 8448TIP3    H246836   4.334   4.212  15.533 -0.8843  1.2795 -0.6588
 8449TIP3   OH246837   5.993   4.266  14.097 -0.0311  0.3080  0.3358
 8449TIP3    H146838   5.962   4.192  14.149 -1.4660  0.1287 -0.7377
 8449TIP3    H246839   6.088   4.253  14.091  0.4544  1.0734  4.0092
 8450TIP3   OH246840   1.454   6.806  10.982  0.6206 -0.0022  0.2680
 8450TIP3    H146841   1.411   6.886  11.011 -0.0250  0.0785 -0.8724
 8450TIP3    H246842   1.521   6.835  10.920  0.0734 -0.3732 -0.5050
 8451TIP3   OH246843   1.596   1.362  11.369  0.5528  0.0862  0.1162
 8451TIP3    H146844   1.593   1.418  11.291 -0.1254  0.5499  0.4620
 8451TIP3    H246845   1.504   1.353  11.395  0.7686 -0.0752  0.8473
 8452TIP3   OH246846   4.459   5.049   0.582  1.2127 -0.2158 -0.1918
 8452TIP3    H146847   4.437   5.138   0.556 -1.0289 -0.4168  0.8387
 8452TIP3    H246848   4.434   4.995   0.507 -3.2124 -0.5531  1.2448
 8453TIP3   OH246849   0.946   0.292  14.140  0.3574  0.4423  0.1993
 8453TIP3    H146850   0.950   0.368  14.082  0.9527  1.6426  1.7589
 8453TIP3    H246851   1.018   0.304  14.201 -0.2935 -0.7445  1.2421
 8454TIP3   OH246852   6.683   3.553   0.217 -0.0113  0.0005  0.3008
 8454TIP3    H146853   6.743   3.610   0.169  0.7832 -0.4057  0.7821
 8454TIP3    H246854   6.639   3.610   0.279 -1.5421  0.6659 -1.3077
 8455TIP3   OH246855   4.795   1.645   4.673  0.2073  0.1066  0.3237
 8455TIP3    H146856   4.830   1.692   4.597 -0.6412 -0.0865 -0.1991
 8455TIP3    H246857   4.709   1.685   4.688 -0.3537 -1.0002  0.1249
 8456TIP3   OH246858   5.961   0.395  13.314  0.1406  0.0330  0.0745
 8456TIP3    H146859   5.972   0.409  13.220  0.1241  1.3288  0.2534
 8456TIP3    H246860   6.009   0.466  13.355 -0.7457  0.1025  1.0302
 8457TIP3   OH246861   2.404   0.433  15.846  0.5325  0.6744  0.1391
 8457TIP3    H146862   2.397   0.360  15.908 -0.0183 -0.6934 -1.4653
 8457TIP3    H246863   2.498   0.449  15.839  0.6173  0.6639  1.0995
 8458TIP3   OH246864   6.420   5.300   2.438 -0.9409 -0.1230 -0.0128
 8458TIP3    H146865   6.372   5.315   2.520 -1.4991  1.3387 -0.5757
 8458TIP3    H246866   6.373   5.228   2.396 -0.8882 -0.6231  0.7537
 8459TIP3   OH246867   2.100   4.278   5.129  0.4484  0.0457 -0.3548
 8459TIP3    H146868   2.091   4.361   5.081  2.7546  0.1995 -0.6376
 8459TIP3    H246869   2.067   4.212   5.068  2.4819  0.3389 -1.9087
 8460TIP3   OH246870   4.125   1.421   2.294 -0.2527 -0.3341 -0.1491
 8460TIP3    H146871   4.218   1.439   2.282 -0.3418 -0.7049 -1.5322
 8460TIP3    H246872   4.120   1.374   2.377  0.6283  0.8557  0.6054
 8461TIP3   OH246873   2.999   5.714  15.905 -0.1426  0.6671 -0.0014
 8461TIP3    H146874   2.993   5.693  15.998 -0.2235  1.4577  0.1809
 8461TIP3    H246875   3.084   5.757  15.896 -0.4786  1.3230 -0.1321
 8462TIP3   OH246876   3.216   6.371   2.177 -0.0997 -0.1835  0.0269
 8462TIP3    H146877   3.167   6.442   2.218  0.1245 -0.2618  0.4364
 8462TIP3    H246878   3.274   6.415   2.115 -0.6435 -0.0878 -0.4136
 8463TIP3   OH246879   2.479   6.007   4.774  0.1750 -0.0465 -0.3928
 8463TIP3    H146880   2.571   5.983   4.781  0.3275  0.7079  0.4234
 8463TIP3    H246881   2.478   6.082   4.715  0.0498 -0.2293 -0.6237
 8464TIP3   OH246882   1.358   6.605   0.385  0.1173  0.1849  0.4796
 8464TIP3    H146883   1.294   6.536   0.404 -0.4393  0.7139  0.5639
 8464TIP3    H246884   1.343   6.671   0.453  0.8399  0.2591  0.5725
 8465TIP3   OH246885   4.860   3.601   3.773 -0.1666 -0.6252  0.1903
 8465TIP3    H146886   4.948   3.576   3.803  0.1044  0.1118  0.0376
 8465TIP3    H246887   4.868   3.695   3.753 -1.7454  0.2140  2.9929
 8466TIP3   OH246888   5.458   4.984   1.350  0.0978  0.0453 -0.3461
 8466TIP3    H146889   5.405   4.943   1.282 -1.3250  1.7591 -0.3440
 8466TIP3    H246890   5.406   4.973   1.430  1.7889 -2.0337  0.5564
 8467TIP3   OH246891   0.800   4.002   6.065  0.3180  0.3893  0.0943
 8467TIP3    H146892   0.786   4.074   6.127 -1.9467  0.2246 -0.1172
 8467TIP3    H246893   0.846   3.935   6.115  0.5383  1.1493  0.9315
 8468TIP3   OH246894   4.692   1.486  12.835 -0.0883  0.3731  0.4044
 8468TIP3    H146895   4.701   1.544  12.759 -0.3207 -1.2976 -0.9684
 8468TIP3    H246896   4.600   1.461  12.836 -0.3687  1.3218  2.0172
 8469TIP3   OH246897   3.213   4.847   4.906 -0.2308  0.6594 -0.2105
 8469TIP3    H146898   3.231   4.806   4.991 -2.3228 -1.4986 -0.7175
 8469TIP3    H246899   3.118   4.859   4.904 -0.1190  1.6689 -1.8536
 8470TIP3   OH246900   2.672   6.521  11.743 -0.1447 -0.4683  0.6528
 8470TIP3    H146901   2.604   6.453  11.743 -1.4583  0.7733  1.0142
 8470TIP3    H246902   2.653   6.572  11.664 -0.3740  0.5669  1.3558
 8471TIP3   OH246903   2.043   4.945   4.439  0.3587  0.7230  0.3315
 8471TIP3    H146904   2.137   4.962   4.451  0.7385 -0.9283 -0.0267
 8471TIP3    H246905   2.020   4.886   4.510  0.5884 -2.0873 -1.7309
 8472TIP3   OH246906   5.816   6.332   0.156 -0.4816  0.4736 -0.1972
 8472TIP3    H146907   5.900   6.303   0.191 -1.4596 -0.8002  1.2095
 8472TIP3    H246908   5.838   6.407   0.100  2.0136 -1.8861 -2.7209
 8473TIP3   OH246909   1.377   1.850   4.855 -0.0065 -0.2166 -0.2228
 8473TIP3    H146910   1.306   1.795   4.821 -0.8157  0.1723  0.7526
 8473TIP3    H246911   1.447   1.788   4.877 -0.5547 -0.7686  0.0124
 8474TIP3   OH246912   4.034   6.399   2.812 -0.0047  0.3949  0.0384
 8474TIP3    H146913   3.984   6.360   2.883 -0.4554 -0.0114 -0.4933
 8474TIP3    H246914   4.068   6.481   2.848  0.5423 -0.2438  1.0114
 8475TIP3   OH246915   2.279   6.351  14.319  0.1972 -1.0765 -0.0110
 8475TIP3    H146916   2.212   6.325  14.256  0.6847 -0.3874 -0.8366
 8475TIP3    H246917   2.354   6.377  14.265  1.1486 -1.8719  0.8914
 8476TIP3   OH246918   5.781   4.065  11.382 -0.0599  0.4647 -0.4310
 8476TIP3    H146919   5.718   4.060  11.310 -0.5348  1.0240 -0.0611
 8476TIP3    H246920   5.745   4.009  11.450  0.1108  0.3658 -0.4225
 8477TIP3   OH246921   1.639   1.931   2.725 -0.4040 -0.1491 -0.1087
 8477TIP3    H146922   1.647   2.018   2.765  0.0234  0.0647 -0.6477
 8477TIP3    H246923   1.712   1.927   2.664 -0.5724 -0.7952 -0.2659
 8478TIP3   OH246924   0.111   3.655   2.941 -0.1627 -0.0721 -0.1982
 8478TIP3    H146925   0.059   3.648   2.861  1.8680 -1.1151 -1.4853
 8478TIP3    H246926   0.184   3.713   2.918  1.6486 -2.1004  0.1673
 8479TIP3   OH246927   6.337   4.259   2.228  0.0343 -0.0499  0.0125
 8479TIP3    H146928   6.344   4.193   2.159  1.9255 -1.7096  1.6442
 8479TIP3    H246929   6.405   4.324   2.206  3.4671 -2.5870  2.1409
 8480TIP3   OH246930   5.964   2.167  16.289 -0.1671  0.2471  0.8681
 8480TIP3    H146931   6.049   2.207  16.301  0.5977 -0.9324 -0.2647
 8480TIP3    H246932   5.959   2.149  16.195 -2.1366  1.2882  0.7300
 8481TIP3   OH246933   2.486   2.162   1.321 -0.2046 -0.0939 -0.2588
 8481TIP3    H146934   2.450   2.182   1.407  0.2626 -0.8610  0.1290
 8481TIP3    H246935   2.580   2.150   1.337  0.0210  0.6057 -1.0272
 8482TIP3   OH246936   0.901   3.570   3.741 -0.3840 -0.2548 -0.7109
 8482TIP3    H146937   0.936   3.509   3.676 -0.4992 -0.2248 -0.8001
 8482TIP3    H246938   0.973   3.630   3.759 -0.9000  0.8497 -2.1456
 8483TIP3   OH246939   0.049   5.158  10.923  0.4299 -0.6594  0.1248
 8483TIP3    H146940  -0.009   5.232  10.902 -0.8937 -0.3567  4.0324
 8483TIP3    H246941   0.132   5.180  10.881 -0.5069  2.0405 -0.5415
 8484TIP3   OH246942   4.162   1.080  13.676 -0.7668  0.8565 -0.2725
 8484TIP3    H146943   4.245   1.061  13.719 -1.4699  0.5103  1.0080
 8484TIP3    H246944   4.181   1.154  13.618  0.5486  0.4126 -0.4380
 8485TIP3   OH246945   3.937   1.024  15.628  0.2583 -0.6252  0.1687
 8485TIP3    H146946   3.862   1.034  15.570 -0.3783 -2.7019  0.5531
 8485TIP3    H246947   3.934   1.101  15.685 -0.9332 -0.1362 -0.5195
 8486TIP3   OH246948   6.704   5.124   2.237 -0.6949 -0.8048 -0.8294
 8486TIP3    H146949   6.641   5.086   2.176  0.9153 -0.7103 -2.6297
 8486TIP3    H246950   6.752   5.048   2.272 -1.3336 -0.8245  0.0533
 8487TIP3   OH246951   3.261   1.810  16.649 -0.0031  0.1179  0.5164
 8487TIP3    H146952   3.260   1.717  16.673  0.6713  0.1328  0.6061
 8487TIP3    H246953   3.312   1.852  16.717  0.7131  0.3724 -0.1691
 8488TIP3   OH246954   2.481   5.039  13.741 -0.4479  0.6821 -0.6663
 8488TIP3    H146955   2.410   4.981  13.711 -0.4363 -0.0671  0.6572
 8488TIP3    H246956   2.512   5.082  13.662 -0.4773 -1.1253 -1.7184
 8489TIP3   OH246957   5.087   3.863   0.641 -0.0970 -0.0608 -0.3474
 8489TIP3    H146958   5.039   3.827   0.716  0.6852 -1.4382 -0.4566
 8489TIP3    H246959   5.052   3.816   0.566 -0.0036  0.4160 -0.6919
 8490TIP3   OH246960   2.178   5.347  15.493 -0.2952 -0.0974  0.5136
 8490TIP3    H146961   2.182   5.294  15.414 -0.2961  0.4950  0.1140
 8490TIP3    H246962   2.102   5.313  15.541 -0.2446 -0.5120  0.3000
 8491TIP3   OH246963   3.906   5.951   5.122 -0.0218  0.0129 -0.4042
 8491TIP3    H146964   3.887   6.030   5.173  2.1381  1.0658 -1.1389
 8491TIP3    H246965   3.821   5.907   5.115 -0.8027  0.8266  2.3604
 8492TIP3   OH246966   5.596   3.426   0.196  0.4896 -0.1325 -0.2522
 8492TIP3    H146967   5.650   3.501   0.171 -1.6394  1.8045  0.6015
 8492TIP3    H246968   5.534   3.417   0.124 -1.1864  0.9574  0.9752
 8493TIP3   OH246969   4.927   2.734   0.882 -0.2540 -0.3762  0.3501
 8493TIP3    H146970   4.915   2.666   0.948  1.9441 -1.7408 -0.5145
 8493TIP3    H246971   5.008   2.778   0.909  0.1622 -0.3449 -0.8786
 8494TIP3   OH246972   3.135   0.526   2.211  0.1388 -0.2570 -0.4611
 8494TIP3    H146973   3.199   0.462   2.243 -0.4126 -0.7172 -0.2635
 8494TIP3    H246974   3.165   0.610   2.247  2.4188  0.1004 -2.8846
 8495TIP3   OH246975   6.034   5.093   5.646  0.1040  0.6382  0.8136
 8495TIP3    H146976   6.021   5.009   5.690 -1.3435  0.8088  0.7623
 8495TIP3    H246977   6.091   5.143   5.704  0.6852 -0.2363  1.0174
 8496TIP3   OH246978   5.806   0.334   2.924 -0.0558  0.1812 -0.9550
 8496TIP3    H146979   5.883   0.362   2.875 -0.0795  0.7513 -0.6722
 8496TIP3    H246980   5.735   0.337   2.860 -0.2750  1.8711 -0.6738
 8497TIP3   OH246981   4.455   0.010   1.061 -0.0306 -0.3211  0.2471
 8497TIP3    H146982   4.380  -0.005   1.118  0.8789 -3.4863  0.7975
 8497TIP3    H246983   4.435  -0.036   0.980  0.7551 -0.0697 -0.1083
 8498TIP3   OH246984   4.310   3.327   5.227 -0.3326  0.5799 -0.6628
 8498TIP3    H146985   4.374   3.398   5.238  1.3950 -0.7441 -1.5291
 8498TIP3    H246986   4.328   3.267   5.300 -0.5092  0.1511 -0.9640
 8499TIP3   OH246987   4.915   6.572   4.176  0.4120 -0.2971 -0.3918
 8499TIP3    H146988   4.942   6.531   4.258 -0.6690 -1.7848 -0.7405
 8499TIP3    H246989   4.959   6.521   4.108  1.0251  0.7083 -0.7693
 8500TIP3   OH246990   4.394   0.066  15.463  0.5940 -0.0987 -0.6749
 8500TIP3    H146991   4.443   0.114  15.397  0.2535  0.4883 -0.5066
 8500TIP3    H246992   4.439   0.087  15.546 -0.3527  1.0140 -0.4249
 8501TIP3   OH246993   1.604   4.379  11.748  0.0538 -0.1989  0.1741
 8501TIP3    H146994   1.586   4.374  11.654  1.4768  0.7537 -0.1752
 8501TIP3    H246995   1.647   4.296  11.769 -1.3962 -0.9612  0.2843
 8502TIP3   OH246996   0.399   3.537  16.935  0.0632 -0.3267 -0.5419
 8502TIP3    H146997   0.353   3.516  17.016 -1.8507  1.0663 -1.1910
 8502TIP3    H246998   0.355   3.486  16.867  1.5633 -1.3865 -0.7769
 8503TIP3   OH246999   4.958   0.285   5.619  0.1627 -0.2632 -0.2094
 8503TIP3    H147000   5.030   0.346   5.639 -0.3378  0.8427 -1.6127
 8503TIP3    H247001   4.897   0.296   5.692  2.1624 -2.5666  1.9779
 8504TIP3   OH247002   5.365   2.214  11.116 -0.1420  0.4202 -0.7583
 8504TIP3    H147003   5.286   2.203  11.169 -1.4340 -0.1995 -2.6751
 8504TIP3    H247004   5.437   2.188  11.173 -1.6092 -1.7923  0.1975
 8505TIP3   OH247005   5.451   6.040  14.597  0.2146  0.1233  0.1904
 8505TIP3    H147006   5.358   6.039  14.578 -0.1396 -0.1138  1.7636
 8505TIP3    H247007   5.464   6.120  14.649  0.8106 -0.0557  0.3235
 8506TIP3   OH247008   0.854   2.619   4.145  0.2994  0.0139 -1.0579
 8506TIP3    H147009   0.909   2.620   4.223 -0.4874 -1.0209 -0.4475
 8506TIP3    H247010   0.895   2.555   4.087 -0.5425 -1.2228 -0.3452
 8507TIP3   OH247011   4.414   3.385   4.734 -0.6014 -0.2424  0.3390
 8507TIP3    H147012   4.443   3.306   4.781  0.0198 -0.1141  0.1658
 8507TIP3    H247013   4.447   3.374   4.645 -1.2436 -0.1831  0.0845
 8508TIP3   OH247014   3.015   6.438  15.882  0.4419  0.5980  0.0124
 8508TIP3    H147015   3.048   6.495  15.811  1.0990 -0.3470 -0.4598
 8508TIP3    H247016   3.041   6.350  15.855  0.9218  0.2440  1.5540
 8509TIP3   OH247017   3.284   2.259  14.792  0.0659  0.4751  1.1534
 8509TIP3    H147018   3.357   2.303  14.749 -0.0413  1.5312  1.9927
 8509TIP3    H247019   3.318   2.172  14.814 -0.1524 -0.4273 -1.7368
 8510TIP3   OH247020   2.229   2.305   3.921 -0.2703 -0.5010  0.2447
 8510TIP3    H147021   2.227   2.279   3.829  0.0880 -0.2587  0.1655
 8510TIP3    H247022   2.255   2.397   3.919  1.1998 -0.8757  0.6569
 8511TIP3   OH247023   0.338   5.365   5.913 -0.1698 -0.3314 -0.3575
 8511TIP3    H147024   0.282   5.357   5.836 -1.8081  0.2890  0.7108
 8511TIP3    H247025   0.331   5.457   5.939  3.5450  0.5198 -1.6993
 8512TIP3   OH247026   5.473   5.658  15.048  0.5175  0.1465 -0.0029
 8512TIP3    H147027   5.525   5.712  14.988  2.3478 -1.1794  0.2985
 8512TIP3    H247028   5.501   5.568  15.029 -0.9330 -0.5272  0.9200
 8513TIP3   OH247029   1.563   2.706   3.139  0.1756 -0.1291  0.0321
 8513TIP3    H147030   1.542   2.696   3.046  0.3695 -0.3979  0.0151
 8513TIP3    H247031   1.499   2.770   3.171 -0.9962 -1.2612  0.0763
 8514TIP3   OH247032   3.218   6.453  12.201  0.1120 -0.0615  0.2750
 8514TIP3    H147033   3.158   6.451  12.275  0.8832 -1.1840  0.8910
 8514TIP3    H247034   3.302   6.478  12.239 -0.2532  3.4517 -0.8566
 8515TIP3   OH247035   4.449   2.418   6.088 -0.0407  0.0382  0.3746
 8515TIP3    H147036   4.367   2.461   6.060 -1.2422 -2.8704 -1.0480
 8515TIP3    H247037   4.423   2.362   6.160  0.7576 -0.6720  0.1280
 8516TIP3   OH247038   0.039   2.800  16.330  0.3310  0.6960 -0.0160
 8516TIP3    H147039   0.010   2.773  16.418  1.1139 -0.0297  0.0373
 8516TIP3    H247040   0.084   2.723  16.296  2.8225  1.9527  0.2080
 8517TIP3   OH247041   5.013   4.926   2.871 -0.6139 -0.3516  0.4908
 8517TIP3    H147042   5.083   4.879   2.918  1.0889  1.0297 -0.5284
 8517TIP3    H247043   5.015   4.889   2.783  1.1914  1.8822 -0.5240
 8518TIP3   OH247044   3.948   2.754  12.946  0.4089  0.2158 -0.1741
 8518TIP3    H147045   3.953   2.848  12.964  0.8528  0.0173  0.8144
 8518TIP3    H247046   3.894   2.747  12.867  0.4118  1.2980 -0.2836
 8519TIP3   OH247047   6.607   3.345   3.574 -0.6027 -0.1430 -0.4537
 8519TIP3    H147048   6.662   3.314   3.502 -0.4387 -0.8077 -0.0513
 8519TIP3    H247049   6.564   3.423   3.539 -1.4162 -1.1029 -1.6776
 8520TIP3   OH247050   6.092   5.446   4.754  0.3825  0.0674  0.3087
 8520TIP3    H147051   6.087   5.496   4.672  0.5931 -0.6970 -0.1853
 8520TIP3    H247052   6.001   5.430   4.778  0.3197  0.2944  0.2209
 8521TIP3   OH247053   2.152   5.594  11.370  0.5467 -0.8861  0.0885
 8521TIP3    H147054   2.247   5.587  11.376  0.8461  1.6817 -0.4394
 8521TIP3    H247055   2.135   5.599  11.276  0.0119 -0.2413  0.2136
 8522TIP3   OH247056   6.405   0.219  11.592  0.0578 -0.4259 -0.4443
 8522TIP3    H147057   6.328   0.182  11.549 -0.7420  1.8507 -1.1194
 8522TIP3    H247058   6.428   0.295  11.539  0.7968  0.8280  1.5662
 8523TIP3   OH247059   5.340   4.820  15.139 -0.0714  0.3966  0.3074
 8523TIP3    H147060   5.386   4.818  15.055  1.0665 -0.9319  0.9206
 8523TIP3    H247061   5.248   4.806  15.116  0.1076  0.8686 -0.7715
 8524TIP3   OH247062   6.401   4.371   0.265  0.2058 -0.1716 -0.0374
 8524TIP3    H147063   6.469   4.307   0.290 -1.6645 -2.2943 -0.0524
 8524TIP3    H247064   6.391   4.359   0.170 -0.4925 -0.2003  0.0373
 8525TIP3   OH247065   1.522   1.466  15.840  0.2120 -0.1083 -0.2441
 8525TIP3    H147066   1.553   1.408  15.909  0.2909  0.4123  0.1701
 8525TIP3    H247067   1.430   1.441  15.827  0.8725 -1.9436 -1.7787
 8526TIP3   OH247068   3.500   3.129  10.964 -0.6083 -0.0043 -0.4425
 8526TIP3    H147069   3.472   3.111  11.055 -0.0890  1.0052 -0.0775
 8526TIP3    H247070   3.445   3.070  10.911 -0.4965 -1.0543  0.5571
 8527TIP3   OH247071   5.904   2.915   1.566 -0.7687  0.6058  0.4530
 8527TIP3    H147072   5.992   2.900   1.601 -1.2392  0.6136  1.6967
 8527TIP3    H247073   5.868   2.828   1.554 -0.1906  0.5654 -1.1839
 8528TIP3   OH247074   1.104   5.920  15.240 -0.0160  0.0258 -0.0680
 8528TIP3    H147075   1.088   6.014  15.240  1.4958  0.3078 -0.0796
 8528TIP3    H247076   1.099   5.895  15.333 -2.0316 -0.2107 -0.2065
 8529TIP3   OH247077   0.567   4.187   3.928 -0.4986  0.1487  0.5407
 8529TIP3    H147078   0.596   4.126   3.996 -0.9594 -0.1686  0.4608
 8529TIP3    H247079   0.559   4.133   3.849  0.4841  0.6054  0.1138
 8530TIP3   OH247080   6.690   2.340   2.516  0.0394  0.0912  0.1525
 8530TIP3    H147081   6.748   2.358   2.590  1.4732 -0.5424 -0.7933
 8530TIP3    H247082   6.656   2.252   2.533 -0.0530  0.1581  0.3195
 8531TIP3   OH247083   4.104   6.622  12.772 -0.7663 -0.4764 -0.0533
 8531TIP3    H147084   4.135   6.633  12.682 -0.5080  0.2759  0.1162
 8531TIP3    H247085   4.020   6.669  12.774 -0.9052 -0.7262  0.0290
 8532TIP3   OH247086   5.998   2.609  13.784 -0.2623  0.4615 -0.0012
 8532TIP3    H147087   6.000   2.703  13.799  1.5840  0.6847 -1.3257
 8532TIP3    H247088   6.083   2.589  13.745 -0.9865 -1.6050 -0.6491
 8533TIP3   OH247089   4.682   3.314  17.060  0.6058  0.3967 -0.0183
 8533TIP3    H147090   4.600   3.291  17.014  0.2481  1.7322 -0.0917
 8533TIP3    H247091   4.743   3.246  17.034  0.0021  0.3278 -1.3809
 8534TIP3   OH247092   5.604   5.775  11.634  0.4288 -0.0715  0.1531
 8534TIP3    H147093   5.544   5.792  11.561  0.0184  1.6898  0.8503
 8534TIP3    H247094   5.652   5.696  11.607 -0.0275  0.2532 -1.8100
 8535TIP3   OH247095   1.750   2.885   2.677 -0.1898 -0.1368  0.0833
 8535TIP3    H147096   1.825   2.843   2.719 -1.5221 -2.4367  0.3748
 8535TIP3    H247097   1.704   2.930   2.748 -1.2571 -2.1930  0.7719
 8536TIP3   OH247098   3.475   5.810  14.528 -1.0063  0.1304 -0.1056
 8536TIP3    H147099   3.396   5.810  14.474 -1.0599  2.5685 -0.1289
 8536TIP3    H247100   3.460   5.742  14.593 -2.4121 -0.5360 -1.0735
 8537TIP3   OH247101   6.124   1.238  12.025 -1.0425  0.2182 -0.2710
 8537TIP3    H147102   6.220   1.243  12.025 -1.0978  1.7879 -0.1625
 8537TIP3    H247103   6.105   1.154  12.067  0.2946 -0.9128 -1.7804
 8538TIP3   OH247104   0.834   3.641  16.744 -0.1533  0.0080  0.5879
 8538TIP3    H147105   0.749   3.684  16.727 -0.1501 -0.1769  0.0694
 8538TIP3    H247106   0.819   3.590  16.823 -1.0892 -1.4543 -0.4696
 8539TIP3   OH247107   2.244   2.118  15.427  0.7036 -0.5886 -0.2694
 8539TIP3    H147108   2.172   2.056  15.443  0.4888 -0.0040  1.2546
 8539TIP3    H247109   2.221   2.161  15.345 -0.3273 -0.9128 -0.1652
 8540TIP3   OH247110   3.782   5.448  12.175  0.0635  0.4262 -0.5166
 8540TIP3    H147111   3.807   5.409  12.259 -0.1557  1.4433  0.0454
 8540TIP3    H247112   3.803   5.381  12.110  1.2693  0.0277  0.2450
 8541TIP3   OH247113   5.518   2.337   5.409  0.1716  0.8251 -0.3469
 8541TIP3    H147114   5.569   2.287   5.345  0.2080 -0.4338  0.6289
 8541TIP3    H247115   5.573   2.338   5.488 -0.5551  0.9565  0.1676
 8542TIP3   OH247116   5.863   2.173  14.391 -0.0206  0.2192  0.3412
 8542TIP3    H147117   5.857   2.264  14.421 -0.8075  0.5263 -0.6916
 8542TIP3    H247118   5.931   2.175  14.323 -0.5487  0.1880 -0.1938
 8543TIP3   OH247119   4.119   2.946  14.570 -0.0773  0.4065 -0.4734
 8543TIP3    H147120   4.088   2.862  14.537  3.7373 -1.6748  0.6388
 8543TIP3    H247121   4.150   2.992  14.492  0.7831 -0.6536 -0.7784
 8544TIP3   OH247122   2.654   2.924  13.911 -0.2772 -0.1708 -0.6247
 8544TIP3    H147123   2.602   2.991  13.955  1.5914  1.1065 -0.2276
 8544TIP3    H247124   2.631   2.934  13.818 -1.8367 -0.6778 -0.3115
 8545TIP3   OH247125   6.386   0.152  12.549  0.1786  0.1149 -0.0643
 8545TIP3    H147126   6.373   0.208  12.473  1.5685 -2.7766 -2.6589
 8545TIP3    H247127   6.480   0.134  12.549  0.4672  1.0591  3.2258
 8546TIP3   OH247128   5.064   5.845   5.982  0.1119 -0.0841 -0.2539
 8546TIP3    H147129   5.045   5.889   6.065  1.5717 -0.5372  0.3462
 8546TIP3    H247130   5.123   5.905   5.936 -0.5878  0.1058 -0.9227
 8547TIP3   OH247131   1.434   3.304   5.031  0.5913 -0.2766  0.4584
 8547TIP3    H147132   1.471   3.379   5.078  0.0578 -0.0255  0.4910
 8547TIP3    H247133   1.359   3.340   4.984  0.3042 -0.7965  0.5060
 8548TIP3   OH247134   4.589   0.469  15.832  0.8443 -0.4342 -0.5638
 8548TIP3    H147135   4.540   0.408  15.888 -3.4471  2.4937 -0.6393
 8548TIP3    H247136   4.598   0.424  15.748 -0.1802 -1.7519  0.0025
 8549TIP3   OH247137   0.830   2.985  12.824 -0.0504 -0.1780  0.0764
 8549TIP3    H147138   0.878   3.057  12.784  3.5303 -1.2499  1.9542
 8549TIP3    H247139   0.794   3.022  12.905  1.5573 -0.2866  0.9042
 8550TIP3   OH247140   5.602   5.155   1.056 -0.3847 -0.4160 -0.1417
 8550TIP3    H147141   5.580   5.175   0.965 -0.3911 -1.7684 -0.4536
 8550TIP3    H247142   5.573   5.065   1.069  1.7475 -1.0742  0.4824
 8551TIP3   OH247143   1.669   1.265  12.984 -0.0024  0.1085  0.3842
 8551TIP3    H147144   1.605   1.323  12.943 -1.9560 -1.0701  1.6537
 8551TIP3    H247145   1.722   1.323  13.039 -0.8203  0.9314  0.3299
 8552TIP3   OH247146   1.227   2.158  11.288 -0.1480  0.3049  0.3366
 8552TIP3    H147147   1.210   2.226  11.223  0.5594  0.7069  0.5605
 8552TIP3    H247148   1.186   2.191  11.368  2.3226  1.7515  1.1460
 8553TIP3   OH247149   2.661   1.001   3.288  0.4525 -0.7539 -0.3957
 8553TIP3    H147150   2.663   0.971   3.379  3.9393  2.3139  0.8316
 8553TIP3    H247151   2.748   0.977   3.253 -0.0036  0.0339 -2.2023
 8554TIP3   OH247152   2.186   6.339   0.181 -0.1928 -0.1584 -0.0291
 8554TIP3    H147153   2.204   6.245   0.187 -0.1565 -0.0849  1.3953
 8554TIP3    H247154   2.185   6.369   0.272 -1.1297  1.0524 -0.4135
 8555TIP3   OH247155   5.363   6.772  15.579 -0.5858 -0.3262  0.3235
 8555TIP3    H147156   5.388   6.823  15.502  1.6486  1.4286  2.0481
 8555TIP3    H247157   5.390   6.682  15.558  2.0193  0.4802 -0.2318
 8556TIP3   OH247158   1.485   4.833  13.380 -0.4244  0.2077 -0.3146
 8556TIP3    H147159   1.404   4.861  13.336  0.6633  0.2910 -2.4325
 8556TIP3    H247160   1.549   4.826  13.309  1.3162 -0.3308  1.2236
 8557TIP3   OH247161   0.635   3.804  16.035  0.1672 -0.8052  0.1282
 8557TIP3    H147162   0.587   3.786  16.115  0.1092  0.5323  0.4119
 8557TIP3    H247163   0.610   3.893  16.010  0.5908 -0.9948 -1.0876
 8558TIP3   OH247164   5.724   4.900  16.117 -0.0409 -0.3229 -0.5828
 8558TIP3    H147165   5.704   4.807  16.105 -1.2901  0.1405 -2.5121
 8558TIP3    H247166   5.679   4.923  16.198  0.8070 -1.5063  0.2697
 8559TIP3   OH247167   1.509   3.263  17.195 -0.1670  0.4841 -0.0147
 8559TIP3    H147168   1.513   3.313  17.276  0.3510 -0.0683  0.3140
 8559TIP3    H247169   1.455   3.187  17.216 -1.1415  1.0152 -0.5751
 8560TIP3   OH247170   1.985   5.087  16.917 -0.0631 -0.4167 -0.4583
 8560TIP3    H147171   1.901   5.108  16.875  0.8409 -0.0906 -2.1840
 8560TIP3    H247172   2.007   5.000  16.885  0.1551 -0.5976  0.1691
 8561TIP3   OH247173   4.533   4.283  15.017  0.5883 -0.4833 -0.2622
 8561TIP3    H147174   4.451   4.234  15.021 -0.0276  0.5451  0.1919
 8561TIP3    H247175   4.528   4.331  14.934  1.3443 -1.4173 -0.8731
 8562TIP3   OH247176   6.252   4.162  14.125 -0.4078 -0.3736 -0.4709
 8562TIP3    H147177   6.240   4.070  14.149  0.9812 -0.9106 -1.6720
 8562TIP3    H247178   6.301   4.200  14.198 -0.7719 -0.6467 -0.0814
 8563TIP3   OH247179   2.182   6.824   5.184  0.0913  0.3427  0.2783
 8563TIP3    H147180   2.174   6.739   5.228  2.7753 -0.2568 -0.2534
 8563TIP3    H247181   2.227   6.805   5.102 -0.2385  2.1692 -0.3708
 8564TIP3   OH247182   1.397   3.985  12.301  0.2768 -0.0269  0.1425
 8564TIP3    H147183   1.429   3.962  12.214 -0.0862 -1.0793  0.2661
 8564TIP3    H247184   1.341   3.911  12.326  0.3326  0.2807  1.2405
 8565TIP3   OH247185   2.888   1.839   4.806  0.0511  0.2948 -0.4067
 8565TIP3    H147186   2.843   1.923   4.797 -0.4702  0.2547  1.3876
 8565TIP3    H247187   2.970   1.861   4.851 -0.6557 -0.2695  1.2228
 8566TIP3   OH247188   2.627   0.381   3.777  0.2149 -0.1685 -0.5743
 8566TIP3    H147189   2.648   0.475   3.779  1.4687 -0.3247 -2.7401
 8566TIP3    H247190   2.601   0.360   3.867  0.5710  2.0953  0.1243
 8567TIP3   OH247191   4.814   2.614   6.141  0.2133 -0.4455 -0.1299
 8567TIP3    H147192   4.876   2.633   6.212  0.1992 -1.7834  0.2824
 8567TIP3    H247193   4.870   2.599   6.065  0.3620 -0.9332  0.0696
 8568TIP3   OH247194   3.661   1.373   1.448 -0.2524 -0.3337  0.4510
 8568TIP3    H147195   3.690   1.290   1.411 -0.2418  0.0196 -0.3544
 8568TIP3    H247196   3.584   1.397   1.396 -0.5439 -0.0779  0.9943
 8569TIP3   OH247197   3.121   1.155   1.616 -0.1953  0.4607  0.0140
 8569TIP3    H147198   3.091   1.219   1.681 -2.4523  1.9784 -2.3271
 8569TIP3    H247199   3.216   1.157   1.624 -0.3046  1.9466  1.9988
 8570TIP3   OH247200   6.307   2.952  16.609  0.4868  0.5376  0.2281
 8570TIP3    H147201   6.236   2.997  16.653  0.0282 -0.7070  0.7976
 8570TIP3    H247202   6.279   2.946  16.517 -1.0750 -1.5824  0.7570
 8571TIP3   OH247203   4.295   3.956  12.120 -0.0402  0.4027  0.2868
 8571TIP3    H147204   4.390   3.957  12.123 -0.0227  1.4338 -0.3151
 8571TIP3    H247205   4.272   4.006  12.042 -1.0809  0.1758  0.4234
 8572TIP3   OH247206   6.292   6.360   2.514  0.9936  0.0095  0.4845
 8572TIP3    H147207   6.214   6.353   2.569  0.4282 -2.1441 -0.4695
 8572TIP3    H247208   6.354   6.411   2.566 -0.7164  1.0120  1.6398
 8573TIP3   OH247209   6.523   1.030   2.735  0.5377 -0.3712  0.6352
 8573TIP3    H147210   6.532   1.122   2.709  0.5509 -0.4575  0.3329
 8573TIP3    H247211   6.558   0.981   2.661 -0.0022 -0.6359  0.5542
 8574TIP3   OH247212   1.307   3.660  14.840 -0.5466  0.5417 -0.4092
 8574TIP3    H147213   1.272   3.724  14.903 -0.3865  1.3972 -1.1611
 8574TIP3    H247214   1.287   3.575  14.878 -1.0217  1.0402  0.4866
 8575TIP3   OH247215   0.884   1.523  13.328 -0.2931 -0.9070  0.1625
 8575TIP3    H147216   0.930   1.442  13.306  0.3466 -0.5134  0.0079
 8575TIP3    H247217   0.826   1.499  13.400 -2.8060 -2.3617 -2.1671
 8576TIP3   OH247218   1.587   0.002   3.403 -0.4265 -0.3193  0.4500
 8576TIP3    H147219   1.546   0.079   3.441  0.9713 -0.3826  2.2072
 8576TIP3    H247220   1.546  -0.007   3.317 -1.6533  1.5171  0.7889
 8577TIP3   OH247221   0.217   1.793   3.386 -0.1847 -0.0632  0.6472
 8577TIP3    H147222   0.295   1.788   3.331  0.5042  1.4159  1.4249
 8577TIP3    H247223   0.206   1.704   3.420  1.0821 -0.3285  0.4061
 8578TIP3   OH247224   0.313   0.300  12.088  0.1142 -0.2366  0.6138
 8578TIP3    H147225   0.302   0.307  11.993  0.3812 -1.8689  0.4353
 8578TIP3    H247226   0.225   0.312  12.123 -0.3258 -1.5373  0.0117
 8579TIP3   OH247227   6.815   0.744   5.508  0.3646  0.1738 -0.0344
 8579TIP3    H147228   6.852   0.707   5.589 -0.3324 -0.0074  0.2091
 8579TIP3    H247229   6.723   0.758   5.529  0.0728 -0.3073 -0.9517
 8580TIP3   OH247230   0.997   5.566  11.380 -0.3643  0.0697  0.1297
 8580TIP3    H147231   0.988   5.583  11.474 -1.7560 -0.0108  0.0285
 8580TIP3    H247232   0.991   5.653  11.340  1.3467  0.2350  0.1591
 8581TIP3   OH247233   4.898   4.139  14.079  0.0019  0.3264  0.0923
 8581TIP3    H147234   4.881   4.112  14.170  1.3558 -1.0298 -0.0119
 8581TIP3    H247235   4.993   4.153  14.076 -0.2914  2.5112 -0.6026
 8582TIP3   OH247236   2.630   2.970  11.171  0.1375  0.3143  0.2446
 8582TIP3    H147237   2.580   2.976  11.089 -0.4778  0.0261  0.5899
 8582TIP3    H247238   2.564   2.949  11.237  0.3299  2.3507  1.1334
 8583TIP3   OH247239   2.236   4.971   0.937  0.3340  0.1603 -0.0224
 8583TIP3    H147240   2.254   4.878   0.922 -0.0956  0.1476 -0.4879
 8583TIP3    H247241   2.177   4.996   0.866  1.6434  1.1835 -0.7774
 8584TIP3   OH247242   2.931   6.280   1.744  0.4700 -0.1072 -0.4750
 8584TIP3    H147243   2.912   6.203   1.798  0.5729 -1.6753 -2.5468
 8584TIP3    H247244   2.859   6.283   1.680  0.5096  1.4943 -0.4956
 8585TIP3   OH247245   1.352   6.778   2.830 -0.2169 -0.0129  0.0543
 8585TIP3    H147246   1.285   6.733   2.778  0.3398 -0.8351  0.0482
 8585TIP3    H247247   1.302   6.831   2.892 -0.8791 -0.6065  0.0376
 8586TIP3   OH247248   0.551   0.627  10.655 -0.7363  0.0015 -0.0710
 8586TIP3    H147249   0.591   0.696  10.707 -0.8427  1.7407 -2.1721
 8586TIP3    H247250   0.458   0.633  10.672 -0.6899 -0.0372  0.2009
 8587TIP3   OH247251   4.347   5.208   3.501  0.3542 -0.7255  0.7869
 8587TIP3    H147252   4.390   5.258   3.431 -0.1963 -1.1877  0.1061
 8587TIP3    H247253   4.355   5.117   3.473 -0.5033 -0.8591  0.9675
 8588TIP3   OH247254   0.065   2.524   0.094 -0.4306 -0.0569 -0.3502
 8588TIP3    H147255   0.136   2.531   0.030  1.5585  0.0400  1.7309
 8588TIP3    H247256  -0.010   2.493   0.044  0.5451  1.5691 -3.0148
 8589TIP3   OH247257   2.785   1.359  14.412 -0.0424 -0.8029 -0.3809
 8589TIP3    H147258   2.735   1.301  14.355 -3.8792  2.1919 -0.4417
 8589TIP3    H247259   2.838   1.412  14.352 -0.6318 -0.6806 -0.8017
 8590TIP3   OH247260   0.125   6.616  17.051  0.5004 -0.9329  0.1217
 8590TIP3    H147261   0.175   6.563  16.989  1.2925 -0.8506  0.6789
 8590TIP3    H247262   0.049   6.645  17.002  0.0651 -2.5436 -0.2210
 8591TIP3   OH247263   4.785   2.309   2.019  0.1155  0.3581  0.4527
 8591TIP3    H147264   4.865   2.260   1.998  0.2675  0.7720  0.0597
 8591TIP3    H247265   4.766   2.358   1.940 -0.6648  0.0852  0.4675
 8592TIP3   OH247266   0.201   1.342  13.209  0.2605  0.2466 -0.0379
 8592TIP3    H147267   0.137   1.364  13.277  0.8380 -0.9263  0.9042
 8592TIP3    H247268   0.268   1.410  13.216 -0.3703  0.9257 -0.3887
 8593TIP3   OH247269   3.122   2.380   1.244  0.1706  0.2536 -0.2028
 8593TIP3    H147270   3.035   2.365   1.206  1.3798 -1.6341 -2.5037
 8593TIP3    H247271   3.129   2.313   1.313  0.3820 -0.7049 -1.1330
 8594TIP3   OH247272   1.443   5.623   0.118  0.1597  0.3458 -0.2560
 8594TIP3    H147273   1.474   5.657   0.035  0.0604 -0.9740 -0.8543
 8594TIP3    H247274   1.363   5.575   0.096  1.3573 -2.0241  0.1740
 8595TIP3   OH247275   1.026   3.228  14.485 -0.0978  0.0986  0.1905
 8595TIP3    H147276   1.026   3.321  14.465  0.3125 -0.1726 -1.1622
 8595TIP3    H247277   0.941   3.197  14.452  0.6610 -0.3874 -1.4017
 8596TIP3   OH247278   3.071   3.963   5.136 -0.2517 -0.4665 -0.4341
 8596TIP3    H147279   3.096   3.909   5.211 -0.7014  1.3521  1.1110
 8596TIP3    H247280   3.127   3.933   5.065  0.3348 -2.1270  0.6726
 8597TIP3   OH247281   1.228   5.987   3.288 -0.1557  0.6633  0.0830
 8597TIP3    H147282   1.203   5.923   3.222  2.7481 -0.4236 -0.1140
 8597TIP3    H247283   1.148   6.003   3.338 -0.8188 -4.3997  1.2135
 8598TIP3   OH247284   6.119   4.882   2.379 -0.3923 -0.4277 -0.3806
 8598TIP3    H147285   6.048   4.928   2.425  1.5121  0.6871  1.6245
 8598TIP3    H247286   6.112   4.791   2.410  0.7920  0.2841  2.2060
 8599TIP3   OH247287   2.311   1.072   5.273  0.3350  0.0614  0.1486
 8599TIP3    H147288   2.321   1.150   5.219  2.8005 -0.0059  0.3965
 8599TIP3    H247289   2.350   1.001   5.221 -1.1188 -0.8692  0.2720
 8600TIP3   OH247290   1.145   3.222   1.865 -0.2764 -0.2946 -0.4705
 8600TIP3    H147291   1.178   3.135   1.886  1.4454 -0.0498 -1.9548
 8600TIP3    H247292   1.066   3.207   1.813 -1.3162 -0.8990  1.1841
 8601TIP3   OH247293   1.354   4.313   1.683 -0.2872  0.5722  0.0600
 8601TIP3    H147294   1.379   4.220   1.684  0.2856  0.7179 -0.3047
 8601TIP3    H247295   1.265   4.314   1.719 -1.9139 -0.5662 -3.4718
 8602TIP3   OH247296   0.602   4.253   5.894 -0.2980 -0.2723 -0.1835
 8602TIP3    H147297   0.645   4.179   5.851  0.1379 -0.8309  1.1695
 8602TIP3    H247298   0.667   4.288   5.954 -0.8796  0.5263  0.0098
 8603TIP3   OH247299   6.365   3.144   5.606  0.1101 -0.0422  0.1961
 8603TIP3    H147300   6.370   3.074   5.540  1.3591  0.8001 -0.6697
 8603TIP3    H247301   6.313   3.107   5.677  0.6141 -1.7979 -0.2964
 8604TIP3   OH247302   5.950   5.498  12.186  0.6585 -0.4832  0.2351
 8604TIP3    H147303   5.895   5.421  12.201  1.1744 -1.3590 -1.8763
 8604TIP3    H247304   5.913   5.539  12.107 -0.1252  1.9870  1.7718
 8605TIP3   OH247305   1.317   2.114  16.676  0.4937 -0.3747 -0.2452
 8605TIP3    H147306   1.325   2.209  16.684  0.1575 -0.4509  1.3718
 8605TIP3    H247307   1.266   2.101  16.596  0.0497  0.8282 -0.1816
 8606TIP3   OH247308   1.925   3.423  11.679  0.3477 -0.5098  0.2316
 8606TIP3    H147309   1.981   3.489  11.719  3.2663 -2.1163 -0.9179
 8606TIP3    H247310   1.915   3.356  11.746 -0.0692 -0.3166  0.3675
 8607TIP3   OH247311   4.552   5.414   4.408 -0.7592  0.0144  0.1363
 8607TIP3    H147312   4.487   5.365   4.357 -0.7136 -0.9952  1.0131
 8607TIP3    H247313   4.512   5.500   4.421 -1.6783 -0.4078  0.1826
 8608TIP3   OH247314   6.125   4.462   4.735  0.6347 -0.7251 -0.1573
 8608TIP3    H147315   6.141   4.467   4.829 -0.6514 -1.4334  0.1189
 8608TIP3    H247316   6.211   4.449   4.696  1.2112 -0.1523  0.8880
 8609TIP3   OH247317   0.638   2.129  12.881  0.4097 -0.2392  0.0564
 8609TIP3    H147318   0.712   2.103  12.826  0.5390 -2.6387  1.2191
 8609TIP3    H247319   0.678   2.158  12.963  0.1121 -0.8981  0.4451
 8610TIP3   OH247320   5.326   4.670  15.993  0.0099  0.1556  0.4251
 8610TIP3    H147321   5.276   4.751  16.006 -2.1389 -1.1183  0.4845
 8610TIP3    H247322   5.326   4.658  15.898 -2.7660 -1.5210  0.5348
 8611TIP3   OH247323   5.098   3.522   3.537  0.0050 -0.5046  0.4968
 8611TIP3    H147324   5.057   3.560   3.459 -0.2827  1.0476  1.3645
 8611TIP3    H247325   5.087   3.427   3.526 -0.2771 -0.3094 -1.2028
 8612TIP3   OH247326   0.224   2.636   6.170  0.4220  0.4985  0.0498
 8612TIP3    H147327   0.304   2.664   6.125  1.8594 -1.0324  1.5293
 8612TIP3    H247328   0.226   2.541   6.166 -2.6940  0.3803 -2.0724
 8613TIP3   OH247329   1.923   2.028   4.012 -0.0035  0.0424  0.2754
 8613TIP3    H147330   1.929   2.063   3.924  2.8653  0.0127  0.3766
 8613TIP3    H247331   2.013   2.013   4.039 -0.7592  0.0459  3.2319
 8614TIP3   OH247332   0.264   2.602   2.596 -0.5075  0.0314 -0.1288
 8614TIP3    H147333   0.170   2.618   2.597 -0.5042  0.2027 -1.1285
 8614TIP3    H247334   0.272   2.506   2.603 -0.7267  0.0564  0.5283
 8615TIP3   OH247335   3.541   2.534   2.450 -0.1636  0.0961 -0.1886
 8615TIP3    H147336   3.503   2.583   2.523  1.1903  0.4457  0.3102
 8615TIP3    H247337   3.631   2.515   2.478  0.2950 -0.0051 -1.6482
 8616TIP3   OH247338   4.245   6.672  14.971 -0.0222 -0.2544  0.3809
 8616TIP3    H147339   4.209   6.745  15.020  1.9365  0.4938  0.8061
 8616TIP3    H247340   4.330   6.655  15.012 -0.1070 -2.3047 -0.1711
 8617TIP3   OH247341   4.752   5.347  11.638 -0.3018  0.4792  0.2411
 8617TIP3    H147342   4.819   5.376  11.576  0.6429 -2.2968 -0.2008
 8617TIP3    H247343   4.759   5.408  11.711 -0.0987  2.6681 -1.4870
 8618TIP3   OH247344   1.350   2.952  11.416 -0.3541  0.2453  0.3428
 8618TIP3    H147345   1.435   2.906  11.418  0.2452  1.3409  0.6990
 8618TIP3    H247346   1.345   2.996  11.501 -1.6674 -0.4624  0.6571
 8619TIP3   OH247347   0.623   6.405  13.035 -0.2415  0.2390  0.1696
 8619TIP3    H147348   0.623   6.489  12.990  0.4033 -1.0228 -2.3359
 8619TIP3    H247349   0.715   6.378  13.034 -0.4993 -0.6749  0.6123
 8620TIP3   OH247350   4.338   5.913  16.616  0.1146  0.0380  0.6498
 8620TIP3    H147351   4.431   5.897  16.600 -0.3042 -1.3259 -0.6638
 8620TIP3    H247352   4.292   5.857  16.552 -1.5923  1.4753  0.5192
 8621TIP3   OH247353   6.096   2.883  15.778  0.2048  0.0694  0.0504
 8621TIP3    H147354   6.044   2.857  15.702  1.1622  0.0842 -0.6259
 8621TIP3    H247355   6.045   2.953  15.819  0.8190  1.8181 -1.9884
 8622TIP3   OH247356   3.205   3.026  11.075 -0.0510 -0.3255  0.7156
 8622TIP3    H147357   3.256   3.026  11.155  1.1491  0.0691 -0.0232
 8622TIP3    H247358   3.220   3.112  11.036 -0.1383 -0.7121 -0.2139
 8623TIP3   OH247359   3.699   4.017  16.309 -0.0609 -0.2239  0.2563
 8623TIP3    H147360   3.688   3.947  16.245  1.2516 -1.0902  0.9372
 8623TIP3    H247361   3.669   4.096  16.263 -1.5117 -1.1952 -0.5453
 8624TIP3   OH247362   4.053   0.005  12.550  0.3004 -0.7056 -0.0310
 8624TIP3    H147363   4.030  -0.057  12.482  1.2962 -1.8134  0.6064
 8624TIP3    H247364   4.108   0.070  12.506 -0.1788 -0.6549 -0.5565
 8625TIP3   OH247365   3.834   5.354  14.981  0.2536  0.0242  0.3344
 8625TIP3    H147366   3.848   5.356  15.076  1.0083 -0.7340  0.2446
 8625TIP3    H247367   3.751   5.307  14.970 -1.4380  2.7025  0.7491
 8626TIP3   OH247368   5.658   4.591   0.701  0.2821 -0.0849  0.1657
 8626TIP3    H147369   5.735   4.555   0.745 -1.0245 -0.3539  2.4056
 8626TIP3    H247370   5.623   4.655   0.763 -2.0525 -0.9593 -0.1474
 8627TIP3   OH247371   2.288   3.033  13.830 -0.0565  0.0279  0.4095
 8627TIP3    H147372   2.240   3.116  13.823 -0.0728  0.2366  2.4909
 8627TIP3    H247373   2.221   2.969  13.852 -0.3241 -0.9456 -2.7511
 8628TIP3   OH247374   3.181   4.753   1.967 -0.4127 -0.0929  0.6443
 8628TIP3    H147375   3.199   4.763   2.061 -0.0417  0.2840  0.5347
 8628TIP3    H247376   3.197   4.660   1.949  3.0780  0.4763  0.2132
 8629TIP3   OH247377   4.233   3.776  10.410  0.5194 -0.3426  0.1664
 8629TIP3    H147378   4.214   3.859  10.367  1.2172  0.3832  1.2004
 8629TIP3    H247379   4.251   3.715  10.338 -2.4678 -0.3110 -0.7281
 8630TIP3   OH247380   3.778   2.578   3.813 -0.0238 -0.1055  0.1045
 8630TIP3    H147381   3.858   2.620   3.781  0.5759 -1.3276 -0.0536
 8630TIP3    H247382   3.716   2.585   3.741  0.3222 -0.1760 -0.2006
 8631TIP3   OH247383   6.446   4.306  14.298  0.1030 -0.0545 -0.0374
 8631TIP3    H147384   6.475   4.396  14.286 -1.4391  0.7247  1.6332
 8631TIP3    H247385   6.475   4.282  14.386  1.9623 -1.8438 -1.0407
 8632TIP3   OH247386   5.918   3.264   5.352 -0.3031 -0.1533  0.4289
 8632TIP3    H147387   5.870   3.317   5.288  0.9860 -0.2736 -0.7033
 8632TIP3    H247388   5.938   3.183   5.305  0.9160 -0.1337  0.8922
 8633TIP3   OH247389   2.265   1.047   2.158  0.0184  0.4715 -0.1471
 8633TIP3    H147390   2.229   1.088   2.079  0.4898 -0.2169 -0.7360
 8633TIP3    H247391   2.352   1.015   2.131 -0.0535 -0.2821  0.4755
 8634TIP3   OH247392   4.321   2.027  12.542  0.9394  0.1003 -0.2036
 8634TIP3    H147393   4.379   2.092  12.501  0.9226 -1.6127 -3.2346
 8634TIP3    H247394   4.234   2.047  12.508  0.4953 -0.0269  0.8239
 8635TIP3   OH247395   3.564   2.557  14.404 -0.0674 -0.3170  0.3484
 8635TIP3    H147396   3.601   2.498  14.338 -0.3932 -0.1863  0.0401
 8635TIP3    H247397   3.636   2.615  14.429 -0.1262  0.1112 -0.4417
 8636TIP3   OH247398   3.168   3.645   1.736  0.4201 -0.1535  0.0443
 8636TIP3    H147399   3.117   3.639   1.655  1.3445 -2.4200 -0.4288
 8636TIP3    H247400   3.122   3.587   1.797  0.8672 -0.0363  0.4963
 8637TIP3   OH247401   0.681   6.500   5.230  0.6863 -0.0778  0.3815
 8637TIP3    H147402   0.685   6.446   5.309  1.1888 -1.1479 -0.3534
 8637TIP3    H247403   0.595   6.480   5.192 -0.3157  1.7818  1.5566
 8638TIP3   OH247404   6.172   0.161  11.433  0.2664 -0.2226  1.0259
 8638TIP3    H147405   6.208   0.111  11.359  0.5732  0.7954  0.4650
 8638TIP3    H247406   6.077   0.152  11.424  0.2812  0.3850  0.1346
 8639TIP3   OH247407   3.067   0.261  16.943 -0.2541  0.2052 -0.1830
 8639TIP3    H147408   3.025   0.181  16.911 -2.2398  0.9107  0.4905
 8639TIP3    H247409   3.080   0.314  16.865  0.0907 -0.3301 -0.4967
 8640TIP3   OH247410   5.828   3.168  13.665  0.8819  0.1236  0.6586
 8640TIP3    H147411   5.792   3.101  13.606 -0.6605 -0.3984  2.1077
 8640TIP3    H247412   5.899   3.123  13.711  0.4273 -0.2704  0.9920
 8641TIP3   OH247413   5.478   4.168  16.057 -0.0985  0.0918  0.2660
 8641TIP3    H147414   5.480   4.223  16.135 -1.4162 -1.4470  1.4562
 8641TIP3    H247415   5.392   4.184  16.018 -0.2567 -0.6711  0.2925
 8642TIP3   OH247416   2.583   5.056   0.382 -0.2125  0.6223  0.8540
 8642TIP3    H147417   2.585   5.140   0.336  1.6871  0.2918  0.2454
 8642TIP3    H247418   2.594   5.079   0.474 -0.4952  1.0746  0.7815
 8643TIP3   OH247419   0.350   2.015  16.431  0.3055  0.2306  0.2500
 8643TIP3    H147420   0.266   2.031  16.474 -0.6151 -2.3887 -0.3312
 8643TIP3    H247421   0.373   2.098  16.391 -1.9877  1.0667  0.5014
 8644TIP3   OH247422   2.200   1.890  16.075 -0.1451 -0.3370  0.6329
 8644TIP3    H147423   2.155   1.974  16.070 -1.0277 -0.8616 -1.9440
 8644TIP3    H247424   2.291   1.909  16.053 -0.3648 -0.0311 -0.0488
 8645TIP3   OH247425   4.995   5.815  12.302 -0.0755  0.5000 -0.0321
 8645TIP3    H147426   4.924   5.768  12.258  0.8585 -0.2653 -0.7681
 8645TIP3    H247427   5.042   5.746  12.350  0.2123  0.9922  0.4070
 8646TIP3   OH247428   1.542   2.007  11.681  0.1654 -0.4235 -0.0096
 8646TIP3    H147429   1.609   2.053  11.732  0.0943 -0.3137 -0.0137
 8646TIP3    H247430   1.521   1.929  11.732 -0.5966  0.1692  0.6024
 8647TIP3   OH247431   1.248   5.375  11.406  0.5645 -0.4747 -0.0772
 8647TIP3    H147432   1.284   5.335  11.327 -0.1242 -1.3679  0.0402
 8647TIP3    H247433   1.161   5.406  11.380  1.4054  1.7539 -0.3897
 8648TIP3   OH247434   4.607   5.156  11.439  0.1908  0.0573 -0.0834
 8648TIP3    H147435   4.527   5.178  11.390  0.6384 -0.6168 -1.1326
 8648TIP3    H247436   4.623   5.233  11.493 -1.5578 -0.0631  0.6699
 8649TIP3   OH247437   3.579   5.155   4.947  0.0045 -0.0466 -0.1760
 8649TIP3    H147438   3.502   5.212   4.944 -1.1431 -1.5625 -2.2555
 8649TIP3    H247439   3.642   5.197   4.889  0.1720  0.4269  0.3441
 8650TIP3   OH247440   5.214   3.367  13.542 -0.3164 -0.4076  0.2604
 8650TIP3    H147441   5.244   3.455  13.521 -2.2419  0.0010 -0.9491
 8650TIP3    H247442   5.254   3.311  13.475  0.7673 -0.4704  0.9293
 8651TIP3   OH247443   4.160   5.939   2.957 -0.2337 -0.0900  0.1451
 8651TIP3    H147444   4.159   5.865   2.896 -0.3589 -0.0926  0.1500
 8651TIP3    H247445   4.213   6.006   2.912 -0.3288 -0.0904  0.0315
 8652TIP3   OH247446   0.936   4.623  14.911  0.2488  0.1963  0.3929
 8652TIP3    H147447   0.971   4.638  14.999  0.2055  2.1260  0.1196
 8652TIP3    H247448   1.001   4.660  14.852 -0.3406  0.1105 -0.3352
 8653TIP3   OH247449   6.262   6.416   4.139 -0.4217  0.3349  0.1611
 8653TIP3    H147450   6.260   6.327   4.175 -1.8233  0.6652  0.9801
 8653TIP3    H247451   6.224   6.407   4.052  0.0260  0.0408 -0.0074
 8654TIP3   OH247452   3.633   2.798   3.931  0.1344 -0.3815  0.2765
 8654TIP3    H147453   3.587   2.785   4.014  0.5980  0.0781  0.6135
 8654TIP3    H247454   3.705   2.735   3.934  0.5914  0.1412  0.5641
 8655TIP3   OH247455   4.014   6.298   4.943  0.1492 -0.0382  0.3300
 8655TIP3    H147456   4.086   6.260   4.993  0.7224  0.0158 -0.4312
 8655TIP3    H247457   3.968   6.354   5.006 -0.1313 -1.2271  1.2070
 8656TIP3   OH247458   5.991   5.923   0.558  0.0050  0.2179 -0.4585
 8656TIP3    H147459   5.933   5.854   0.524 -0.4910  0.2209  0.3676
 8656TIP3    H247460   5.968   5.931   0.650  1.9620 -0.4266  0.1330
 8657TIP3   OH247461   6.817   1.605   4.242 -0.3288 -0.0275  0.0236
 8657TIP3    H147462   6.859   1.690   4.227 -0.9572  0.0716 -1.4061
 8657TIP3    H247463   6.800   1.602   4.336  4.9682 -1.0989  1.2835
 8658TIP3   OH247464   6.107   0.880  13.908  0.4524 -0.0858  0.7594
 8658TIP3    H147465   6.114   0.795  13.866  1.5352  0.5226 -0.3722
 8658TIP3    H247466   6.148   0.868  13.994  0.6309 -0.6973  0.5945
 8659TIP3   OH247467   2.211   1.306  15.708  0.0126  0.1293  0.6880
 8659TIP3    H147468   2.195   1.219  15.742 -0.9023  0.0332  0.0402
 8659TIP3    H247469   2.203   1.364  15.784 -0.4748 -0.2353  0.9157
 8660TIP3   OH247470   4.372   1.823   0.095 -0.5927  0.2102 -0.0717
 8660TIP3    H147471   4.370   1.739   0.049  0.0061  0.1312  0.0332
 8660TIP3    H247472   4.319   1.808   0.173  1.2187 -0.7719  1.0651
 8661TIP3   OH247473   1.855   1.072  12.976  0.0238  0.3853 -0.5966
 8661TIP3    H147474   1.785   1.135  12.962 -0.1768  0.7388  1.5746
 8661TIP3    H247475   1.826   0.992  12.932 -0.4146  1.3470 -2.0942
 8662TIP3   OH247476   4.869   2.985  10.872 -0.0598 -0.1610  0.9429
 8662TIP3    H147477   4.862   2.915  10.808  1.5945 -0.4814  1.0507
 8662TIP3    H247478   4.791   3.038  10.860 -0.5229 -1.0892 -0.2736
 8663TIP3   OH247479   6.024   2.244   6.479 -0.2143 -0.1289 -0.2005
 8663TIP3    H147480   6.080   2.306   6.526 -1.4818 -0.7286  2.3250
 8663TIP3    H247481   6.084   2.183   6.437  1.0103  1.0867 -0.2761
 8664TIP3   OH247482   3.937   3.607  10.365 -0.7275  0.2007 -0.1621
 8664TIP3    H147483   3.917   3.519  10.397 -0.3669  0.5881  1.1915
 8664TIP3    H247484   4.028   3.603  10.337 -0.6359  0.2018  0.1327
 8665TIP3   OH247485   6.514   6.304   3.403  0.4107 -0.1013 -0.0310
 8665TIP3    H147486   6.515   6.286   3.497 -0.4792  1.7655  0.3770
 8665TIP3    H247487   6.519   6.399   3.396 -1.8441 -0.0186 -1.7751
 8666TIP3   OH247488   4.793   4.013   6.445 -0.3473  0.0354  0.2267
 8666TIP3    H147489   4.753   4.092   6.479 -2.0110  0.1198 -1.7569
 8666TIP3    H247490   4.887   4.033   6.441 -0.8041  2.2257 -0.9698
 8667TIP3   OH247491   1.234   5.069  11.031  0.9274  0.5719 -0.4179
 8667TIP3    H147492   1.174   5.023  11.089 -0.4207  0.5384 -1.7888
 8667TIP3    H247493   1.234   5.018  10.951  0.9059  1.8845 -1.2822
 8668TIP3   OH247494   3.218   2.635  16.525 -0.5148  0.0620  0.3880
 8668TIP3    H147495   3.186   2.594  16.445  1.1377 -0.4029 -0.0654
 8668TIP3    H247496   3.180   2.723  16.523  0.2601  0.3984 -1.4140
 8669TIP3   OH247497   2.482   6.066   0.335  0.1600 -0.1449  0.0647
 8669TIP3    H147498   2.555   6.070   0.273  0.9655  0.8489  1.0493
 8669TIP3    H247499   2.514   6.111   0.413 -0.7682 -1.4919  1.2787
 8670TIP3   OH247500   0.357   3.654   1.238  0.1962 -0.7270 -1.2233
 8670TIP3    H147501   0.263   3.643   1.228  0.5002 -1.6044 -4.1922
 8670TIP3    H247502   0.383   3.588   1.302 -1.6258  2.5962  3.5234
 8671TIP3   OH247503   3.144   2.924  16.001  0.0635  0.2999  0.1724
 8671TIP3    H147504   3.211   2.959  15.943  1.1832 -0.9326  0.6721
 8671TIP3    H247505   3.094   2.863  15.946 -1.5206  2.1344 -0.5414
 8672TIP3   OH247506   2.058   6.413  11.550  0.0590 -0.0875  0.0314
 8672TIP3    H147507   2.085   6.367  11.629 -1.5456 -1.5967 -0.2566
 8672TIP3    H247508   2.094   6.361  11.478 -0.5542 -0.0886 -0.2767
 8673TIP3   OH247509   2.377   6.075   1.941 -0.2667 -0.0603 -0.8514
 8673TIP3    H147510   2.312   6.014   1.908 -1.1403 -0.8228  2.0160
 8673TIP3    H247511   2.326   6.146   1.980  0.6980  0.8814 -1.2349
 8674TIP3   OH247512   3.617   5.539   1.793 -0.3305  0.1805 -0.0861
 8674TIP3    H147513   3.694   5.524   1.738  0.1054 -2.0307  0.9990
 8674TIP3    H247514   3.648   5.595   1.864 -0.5179  1.7834 -1.2336
 8675TIP3   OH247515   5.272   1.169  13.660 -0.7950  0.4068  0.5937
 8675TIP3    H147516   5.333   1.215  13.718 -1.7221  0.6047  1.4380
 8675TIP3    H247517   5.241   1.236  13.599 -0.1874  0.3026  0.1506
 8676TIP3   OH247518   5.686   0.182  16.191 -0.5478  0.6479 -0.3215
 8676TIP3    H147519   5.591   0.170  16.199 -0.8479  2.9331  0.3619
 8676TIP3    H247520   5.722   0.095  16.203 -2.4334  0.1074  2.2505
 8677TIP3   OH247521   1.428   2.280  14.156 -0.1163 -0.1444 -0.3185
 8677TIP3    H147522   1.341   2.307  14.128  0.6609  1.5593 -1.2342
 8677TIP3    H247523   1.426   2.286  14.252 -0.7487  0.7317 -0.3789
 8678TIP3   OH247524   1.590   2.482   5.419  0.1744 -0.4740  0.5645
 8678TIP3    H147525   1.555   2.404   5.376 -2.2694  1.2259 -0.7695
 8678TIP3    H247526   1.633   2.530   5.348  0.7994 -0.1224  1.1749
 8679TIP3   OH247527   5.431   6.013  15.071  0.0323  0.4569 -0.0268
 8679TIP3    H147528   5.361   6.021  15.007  0.4511 -0.0435 -0.5613
 8679TIP3    H247529   5.422   5.924  15.105  0.1420  0.5385  0.2172
 8680TIP3   OH247530   3.282   4.792   2.285 -0.6290  0.0548 -0.2767
 8680TIP3    H147531   3.373   4.788   2.255 -1.1810  0.1889 -2.1399
 8680TIP3    H247532   3.286   4.778   2.379  1.2491 -0.7087 -0.4388
 8681TIP3   OH247533   5.383   0.279   0.262  0.6710 -0.0829 -0.5072
 8681TIP3    H147534   5.383   0.266   0.167 -0.4280 -0.7588 -0.4226
 8681TIP3    H247535   5.393   0.192   0.299 -0.5930 -0.0339  0.0061
 8682TIP3   OH247536   0.609   4.655   1.640 -0.4321  0.0154 -0.3126
 8682TIP3    H147537   0.539   4.590   1.633 -0.7158  0.4153 -1.4265
 8682TIP3    H247538   0.596   4.712   1.565  1.0661  0.1245 -0.5160
 8683TIP3   OH247539   6.327   5.243   5.719 -0.4827  0.0654 -0.1776
 8683TIP3    H147540   6.389   5.315   5.703  1.3500 -0.9920  1.6426
 8683TIP3    H247541   6.246   5.287   5.745  0.4527  1.5273  0.4370
 8684TIP3   OH247542   6.782   6.273   2.738  0.4429  0.6167  0.0515
 8684TIP3    H147543   6.807   6.208   2.672  0.1992  1.2953 -0.7184
 8684TIP3    H247544   6.718   6.227   2.793 -0.0359  0.3286 -0.7292
 8685TIP3   OH247545   0.280   1.540   2.139  0.5395  0.7246  0.0374
 8685TIP3    H147546   0.236   1.625   2.143  0.8194  0.8299  3.0438
 8685TIP3    H247547   0.268   1.512   2.048 -0.2732  3.5648 -0.8526
 8686TIP3   OH247548   5.091   1.747   2.104 -0.1038 -0.3759 -0.5421
 8686TIP3    H147549   5.146   1.725   2.029  0.3031 -1.5881  0.0958
 8686TIP3    H247550   5.150   1.742   2.180 -0.4891  0.9071 -0.1240
 8687TIP3   OH247551   5.814   0.148   1.702 -0.3967  0.2031  0.0332
 8687TIP3    H147552   5.761   0.101   1.638  1.9121 -2.9979  0.2232
 8687TIP3    H247553   5.776   0.125   1.787 -0.6939  0.6938  0.0392
 8688TIP3   OH247554   2.805   0.376  11.384  0.1604 -0.3247 -0.2902
 8688TIP3    H147555   2.742   0.309  11.360  0.0878 -0.1374 -0.6383
 8688TIP3    H247556   2.798   0.384  11.479 -0.7767  0.1255 -0.3861
 8689TIP3   OH247557   4.801   6.506  17.219  0.4745  0.3452  0.1891
 8689TIP3    H147558   4.715   6.474  17.245 -0.1523  2.2272  0.5764
 8689TIP3    H247559   4.862   6.469  17.283 -0.1713 -0.2379  0.4701
 8690TIP3   OH247560   4.932   6.691   3.677  0.1504  0.4300  0.4023
 8690TIP3    H147561   4.949   6.773   3.630  1.1903  0.0350  0.0597
 8690TIP3    H247562   4.836   6.687   3.684 -0.0133  0.8040 -1.1629
 8691TIP3   OH247563   3.653   0.364  13.389  0.2983 -0.1514 -0.1330
 8691TIP3    H147564   3.725   0.380  13.450 -1.1446  0.0877  1.5775
 8691TIP3    H247565   3.668   0.274  13.357  0.9811 -0.3493  0.7272
 8692TIP3   OH247566   1.945   5.274   0.671  0.4043  0.2562  0.1990
 8692TIP3    H147567   1.945   5.203   0.607 -0.1867  2.3032 -2.2317
 8692TIP3    H247568   1.852   5.284   0.694  0.2945  1.0902 -0.5445
 8693TIP3   OH247569   4.046   5.862  15.095  0.0117  0.4665 -0.1227
 8693TIP3    H147570   4.066   5.898  15.009  1.9130 -0.8165 -0.3029
 8693TIP3    H247571   3.975   5.800  15.080  0.2247  0.3726 -0.7539
 8694TIP3   OH247572   0.751   5.357   2.190  0.1482 -0.5646 -0.0361
 8694TIP3    H147573   0.733   5.425   2.256  0.8025 -0.9113  0.5111
 8694TIP3    H247574   0.746   5.403   2.107 -0.7494 -0.1290  0.2506
 8695TIP3   OH247575   5.445   4.851  14.884  1.1240 -0.0766  0.2766
 8695TIP3    H147576   5.526   4.875  14.839  0.2797 -2.0122 -2.5172
 8695TIP3    H247577   5.427   4.761  14.856 -0.8792 -0.4858  2.5354
 8696TIP3   OH247578   1.105   3.405  17.045 -0.0368  0.4813  0.0396
 8696TIP3    H147579   1.108   3.401  17.140 -0.9210 -0.9610  0.0500
 8696TIP3    H247580   1.130   3.317  17.017 -1.4555  0.3677 -0.9844
 8697TIP3   OH247581   4.893   6.533  13.454  0.0348  0.1377  0.0477
 8697TIP3    H147582   4.904   6.626  13.473  0.6490  0.1734 -0.4849
 8697TIP3    H247583   4.982   6.499  13.445 -0.1974 -0.3742 -0.3809
 8698TIP3   OH247584   2.029   0.795  13.680  0.6942  0.5596  0.4694
 8698TIP3    H147585   2.061   0.781  13.769  4.1782  2.9006 -0.1892
 8698TIP3    H247586   2.108   0.796  13.626 -0.7172  3.9342 -1.8903
 8699TIP3   OH247587   0.110   3.415  15.339 -0.1094 -0.1710  0.2339
 8699TIP3    H147588   0.050   3.380  15.405 -0.0062  1.3687  1.1759
 8699TIP3    H247589   0.189   3.362  15.349 -0.6308 -0.9598  0.2820
 8700TIP3   OH247590   1.285   2.420  11.436 -0.2191  0.4866 -0.3931
 8700TIP3    H147591   1.220   2.461  11.493 -0.4888  0.4649 -0.6822
 8700TIP3    H247592   1.344   2.374  11.496 -1.0385 -0.3184 -0.1769
 8701TIP3   OH247593   1.761   1.999  15.114 -0.6072 -0.6584  0.0442
 8701TIP3    H147594   1.836   1.973  15.061  0.0583  0.3385  0.4628
 8701TIP3    H247595   1.770   1.949  15.195  0.2497  0.2692  0.5448
 8702TIP3   OH247596   3.117   4.264  13.157  0.1374  0.2240 -0.2972
 8702TIP3    H147597   3.173   4.198  13.197  1.0421  1.7701  1.0947
 8702TIP3    H247598   3.177   4.331  13.125 -0.7170  0.1020 -2.2676
 8703TIP3   OH247599   1.920   5.214   1.231 -0.1798  0.0356 -0.4987
 8703TIP3    H147600   1.886   5.285   1.286 -0.3523  0.1334 -0.7353
 8703TIP3    H247601   1.864   5.213   1.154 -1.3390 -1.5343  0.2968
 8704TIP3   OH247602   1.420   4.509  14.804 -0.2008  0.1504 -0.1875
 8704TIP3    H147603   1.364   4.586  14.814 -0.7508 -0.2016 -0.5120
 8704TIP3    H247604   1.359   4.437  14.790  0.3127 -0.3399  0.0653
 8705TIP3   OH247605   1.048   1.860  11.121  0.1356  0.3002  0.0319
 8705TIP3    H147606   1.125   1.911  11.096 -0.9425  1.5591 -0.8651
 8705TIP3    H247607   1.018   1.820  11.039  0.0128 -0.4603  0.4340
 8706TIP3   OH247608   0.099   6.448  14.920  0.8591  0.3935  0.0998
 8706TIP3    H147609   0.091   6.393  14.998  2.9392  0.4346  0.3932
 8706TIP3    H247610   0.059   6.531  14.945 -1.5873 -0.6412 -0.0795
 8707TIP3   OH247611   3.278   0.418  15.643  0.3851 -0.0045 -0.0668
 8707TIP3    H147612   3.262   0.339  15.591 -1.1476  0.1925  0.0433
 8707TIP3    H247613   3.373   0.428  15.644  0.5290 -0.9482 -1.4274
 8708TIP3   OH247614   3.256   5.499  14.498  0.0707 -0.6833  0.0327
 8708TIP3    H147615   3.251   5.403  14.495  1.2889 -0.7835  0.7166
 8708TIP3    H247616   3.222   5.523  14.584  1.9076 -0.7019  0.8160
 8709TIP3   OH247617   4.736   0.342   0.983  0.4129  0.6636 -0.5119
 8709TIP3    H147618   4.751   0.310   1.072  1.6635 -3.5843 -2.0029
 8709TIP3    H247619   4.641   0.356   0.979  0.2937  0.6610  1.3577
 8710TIP3   OH247620   4.852   3.991   2.946 -0.6646 -0.6116 -0.1648
 8710TIP3    H147621   4.924   3.976   2.885 -2.4746 -3.4732 -1.8196
 8710TIP3    H247622   4.810   4.071   2.915 -0.2629 -0.8606 -1.3900
 8711TIP3   OH247623   1.898   2.882   5.545 -0.0505  0.0687  0.1285
 8711TIP3    H147624   1.839   2.915   5.478  0.6342 -0.1834 -0.6093
 8711TIP3    H247625   1.960   2.826   5.498 -0.0350 -0.7446  1.0797
 8712TIP3   OH247626   5.266   2.501  12.395 -0.2274 -0.1318 -0.8885
 8712TIP3    H147627   5.297   2.578  12.346  0.3294 -0.4285 -1.0013
 8712TIP3    H247628   5.184   2.531  12.435  1.0978  1.2798  0.9769
 8713TIP3   OH247629   4.142   1.862  17.066 -0.7902  0.0733  0.4181
 8713TIP3    H147630   4.191   1.796  17.017 -0.6092 -0.6546  1.5561
 8713TIP3    H247631   4.051   1.831  17.063 -1.0074  0.7625 -0.6180
 8714TIP3   OH247632   0.181   3.410   2.774  0.0781 -0.5910 -0.1597
 8714TIP3    H147633   0.254   3.470   2.760  0.0869 -0.1549  1.5446
 8714TIP3    H247634   0.112   3.444   2.717  0.2150  0.8239  0.4717
 8715TIP3   OH247635   4.619   6.545  16.509 -0.1948 -0.1262  0.0891
 8715TIP3    H147636   4.590   6.633  16.532  1.1320 -0.3340  3.0345
 8715TIP3    H247637   4.698   6.558  16.457 -1.4560  0.3662 -1.8019
 8716TIP3   OH247638   0.062   2.842   3.862  0.2455  0.2331  0.1022
 8716TIP3    H147639   0.094   2.796   3.784  1.3894  0.9337  0.1291
 8716TIP3    H247640   0.026   2.924   3.829 -2.1294 -0.7840  0.0161
 8717TIP3   OH247641   4.899   5.952   0.624  0.1623 -0.2845 -0.7710
 8717TIP3    H147642   4.881   6.036   0.583  0.7740  0.1557 -0.1482
 8717TIP3    H247643   4.890   5.889   0.552 -0.5593  0.2731 -1.1808
 8718TIP3   OH247644   4.922   2.224   1.692 -0.0021 -0.2229  0.8428
 8718TIP3    H147645   4.908   2.173   1.772  0.5129  1.2128  1.8929
 8718TIP3    H247646   4.834   2.248   1.663 -0.1549 -0.0979  1.4107
 8719TIP3   OH247647   4.705   1.173  14.496 -0.0039 -0.3374 -0.2924
 8719TIP3    H147648   4.734   1.087  14.526  0.1738  0.4004  1.8383
 8719TIP3    H247649   4.755   1.189  14.416  0.3553 -1.9780 -0.4304
 8720TIP3   OH247650   5.630   2.273  12.341  0.0090 -0.2067 -0.1403
 8720TIP3    H147651   5.681   2.215  12.397 -1.1067  0.0888  1.2757
 8720TIP3    H247652   5.607   2.220  12.265 -1.7246 -1.9985  1.5125
 8721TIP3   OH247653   0.449   3.743   0.979  0.0523 -0.7135 -0.5594
 8721TIP3    H147654   0.518   3.800   1.011  0.7762 -2.3943  1.0935
 8721TIP3    H247655   0.400   3.719   1.058 -1.0035 -1.3476 -1.3896
 8722TIP3   OH247656   1.538   4.738   0.985  0.0298  0.1996  0.4458
 8722TIP3    H147657   1.462   4.796   0.980 -0.1608 -0.0943 -0.1391
 8722TIP3    H247658   1.608   4.793   1.020  0.1763  1.1357 -1.1936
 8723TIP3   OH247659   1.772   0.143  13.850 -0.0819  0.2863  0.5124
 8723TIP3    H147660   1.775   0.074  13.784  0.0172  0.6689  0.1149
 8723TIP3    H247661   1.681   0.144  13.879  0.1702 -0.8252  1.3930
 8724TIP3   OH247662   2.586   1.893   3.432  0.2153  0.0880 -0.1218
 8724TIP3    H147663   2.501   1.906   3.474 -0.1551 -1.1012 -0.4610
 8724TIP3    H247664   2.571   1.824   3.367  1.2977  0.2931 -0.6183
 8725TIP3   OH247665   1.613   4.940  17.228 -0.4585 -0.0612  0.0458
 8725TIP3    H147666   1.552   4.874  17.261  2.1158 -2.0855  1.1427
 8725TIP3    H247667   1.638   4.908  17.141 -0.6794  0.5697 -0.2566
 8726TIP3   OH247668   4.586   2.811   6.630  0.8325 -0.3915  0.0901
 8726TIP3    H147669   4.664   2.766   6.598  1.0304 -0.5890  0.8419
 8726TIP3    H247670   4.513   2.765   6.589  1.1167  0.3481 -1.3309
 8727TIP3   OH247671   1.790   0.416  12.825  0.3086 -0.2017 -0.3685
 8727TIP3    H147672   1.794   0.321  12.834  0.8179 -0.3204 -1.6917
 8727TIP3    H247673   1.714   0.432  12.769 -0.6239  0.2792  0.9778
 8728TIP3   OH247674   6.442   5.209  11.978  0.4213  0.2705 -0.4788
 8728TIP3    H147675   6.418   5.302  11.968  0.4407  0.2010 -1.1988
 8728TIP3    H247676   6.536   5.211  11.996  0.1850  0.4583  0.8848
 8729TIP3   OH247677   3.788   6.476  15.990  0.5419 -0.5853  0.6194
 8729TIP3    H147678   3.877   6.495  15.961  0.0188  0.0209 -0.6662
 8729TIP3    H247679   3.776   6.383  15.970  0.2521 -0.2217 -1.0307
 8730TIP3   OH247680   0.450   2.919   3.842  0.1311 -0.1614 -0.1598
 8730TIP3    H147681   0.460   3.011   3.819 -0.8117 -0.0042  0.0410
 8730TIP3    H247682   0.501   2.872   3.775  0.1826  0.4694 -0.5708
 8731TIP3   OH247683   5.274   5.746  16.683  0.2152 -0.5119  0.4460
 8731TIP3    H147684   5.246   5.709  16.600 -0.0206 -2.2288  1.2500
 8731TIP3    H247685   5.194   5.752  16.735  0.4065  0.2826  0.6676
 8732TIP3   OH247686   5.880   2.577  14.636  0.3442  0.0606 -0.2201
 8732TIP3    H147687   5.859   2.491  14.671  1.1054 -0.1852 -0.3571
 8732TIP3    H247688   5.863   2.637  14.709 -0.8038 -0.1160 -0.3200
 8733TIP3   OH247689   5.372   5.643   2.059 -0.2437  0.2512 -0.1721
 8733TIP3    H147690   5.409   5.677   1.978  1.4456 -1.3229 -0.1269
 8733TIP3    H247691   5.430   5.675   2.128  0.7391 -1.7000 -0.0311
 8734TIP3   OH247692   5.650   3.512  10.842  0.2840  0.4839 -0.4961
 8734TIP3    H147693   5.711   3.446  10.875  1.6976  0.5845 -2.6891
 8734TIP3    H247694   5.565   3.469  10.845  1.2952 -2.0246 -2.9773
 8735TIP3   OH247695   4.033   5.243  11.661  0.3346 -0.3172 -0.3063
 8735TIP3    H147696   4.083   5.323  11.642 -0.1744  0.0749 -0.0200
 8735TIP3    H247697   3.946   5.274  11.684  0.3282 -0.9096  0.5342
 8736TIP3   OH247698   0.923   3.158   6.601 -0.0247 -0.2080  0.6116
 8736TIP3    H147699   0.876   3.172   6.519  0.3304  0.4679  0.5161
 8736TIP3    H247700   0.876   3.211   6.665 -0.5025 -0.9943  0.9291
 8737TIP3   OH247701   1.609   5.718   4.743  0.1854 -0.3724  0.0539
 8737TIP3    H147702   1.638   5.638   4.701  0.5117 -0.7668  1.0106
 8737TIP3    H247703   1.686   5.751   4.789 -0.7362 -1.3699  2.5323
 8738TIP3   OH247704   5.716   5.130  15.306 -0.4127  0.3673 -0.4176
 8738TIP3    H147705   5.661   5.200  15.342  2.2832  0.9618  3.0899
 8738TIP3    H247706   5.682   5.051  15.347  0.5007  0.5637  0.7535
 8739TIP3   OH247707   1.451   5.661  14.398  0.1210  0.0835 -0.0521
 8739TIP3    H147708   1.435   5.755  14.392 -0.4599  0.0162  0.4340
 8739TIP3    H247709   1.469   5.635  14.307  0.6716  0.7260 -0.1356
 8740TIP3   OH247710   0.954   3.657  12.782  0.2052  0.1443 -0.5165
 8740TIP3    H147711   0.939   3.667  12.688 -0.6664  0.3041 -0.3723
 8740TIP3    H247712   0.866   3.649  12.819  0.5651 -0.5524  0.2179
 8741TIP3   OH247713   0.665   6.108  11.315  0.0317  0.2967 -0.1238
 8741TIP3    H147714   0.584   6.132  11.270  0.0243 -0.3978 -0.4973
 8741TIP3    H247715   0.671   6.013  11.305  1.3095  0.4183 -0.8049
 8742TIP3   OH247716   3.837   0.412  12.541 -0.3513 -0.0449 -0.0813
 8742TIP3    H147717   3.875   0.341  12.592  0.6522 -0.2898 -1.1403
 8742TIP3    H247718   3.762   0.372  12.496 -1.8253  0.3846  1.8241
 8743TIP3   OH247719   3.160   0.095   5.400 -0.3815  0.1262  0.0344
 8743TIP3    H147720   3.084   0.071   5.346 -0.8189 -0.8661  1.0600
 8743TIP3    H247721   3.208   0.159   5.347 -0.6233 -1.0443 -1.6792
 8744TIP3   OH247722   0.735   1.553   5.779 -0.2279 -0.3209 -0.2752
 8744TIP3    H147723   0.778   1.581   5.699  0.3198 -0.6379 -0.1015
 8744TIP3    H247724   0.758   1.460   5.787  0.8306  0.0099  0.9240
 8745TIP3   OH247725   2.332   0.424   3.321  0.4114  0.1433 -0.6458
 8745TIP3    H147726   2.412   0.474   3.306  1.3376 -0.8165  0.7642
 8745TIP3    H247727   2.345   0.383   3.407 -2.3359  1.3176  0.4417
 8746TIP3   OH247728   2.279   3.186   0.988 -0.3550  0.2798  0.1286
 8746TIP3    H147729   2.237   3.169   0.904  0.4293 -0.2601 -0.1617
 8746TIP3    H247730   2.217   3.152   1.053 -0.8320  0.4395 -0.2321
 8747TIP3   OH247731   3.045   4.890   1.314 -0.4695  0.6186  0.6144
 8747TIP3    H147732   3.028   4.882   1.220  2.3470  1.3805 -0.0746
 8747TIP3    H247733   3.034   4.984   1.333 -1.1473  0.4507  1.1048
 8748TIP3   OH247734   3.485   2.283  15.819  0.2715 -0.5997  0.3964
 8748TIP3    H147735   3.394   2.260  15.800 -0.2133  0.5268  1.2054
 8748TIP3    H247736   3.518   2.322  15.738  0.3048 -1.7370 -0.1543
 8749TIP3   OH247737   0.855   6.794   0.735 -0.2307  0.2644  0.0010
 8749TIP3    H147738   0.802   6.856   0.786 -0.9050  1.2304 -1.7828
 8749TIP3    H247739   0.790   6.742   0.687  0.4029  0.0094 -0.5877
 8750TIP3   OH247740   3.385   6.372  13.097  0.2007 -0.1016  0.4905
 8750TIP3    H147741   3.444   6.402  13.166  0.5112 -1.3185  0.7778
 8750TIP3    H247742   3.433   6.302  13.053 -0.2972  0.1485 -0.4878
 8751TIP3   OH247743   5.047   5.133  14.702 -0.1749  0.4816 -0.5033
 8751TIP3    H147744   4.992   5.056  14.713 -0.3521  0.2725 -2.4695
 8751TIP3    H247745   5.136   5.098  14.699 -0.1590  0.4943 -0.1930
 8752TIP3   OH247746   6.221   3.772   1.001 -0.2304  0.1275  0.2932
 8752TIP3    H147747   6.273   3.850   0.983  0.7188 -0.6313 -0.3537
 8752TIP3    H247748   6.134   3.805   1.021  0.5849  1.4784  1.9273
 8753TIP3   OH247749   1.082   6.331  12.497  0.6241 -0.4566  0.3078
 8753TIP3    H147750   0.993   6.334  12.533  0.3571  0.2486 -0.3910
 8753TIP3    H247751   1.092   6.242  12.465  0.2495 -0.6033  0.5932
 8754TIP3   OH247752   2.062   2.335  15.731  0.0047  0.3251  0.4641
 8754TIP3    H147753   2.154   2.310  15.739 -0.0374  0.3617  1.1721
 8754TIP3    H247754   2.022   2.263  15.682  0.1043 -0.4947  1.5431
 8755TIP3   OH247755   2.665   3.028  15.170 -0.0046 -0.7985  0.5959
 8755TIP3    H147756   2.676   2.991  15.258 -0.7787 -0.4424  0.8484
 8755TIP3    H247757   2.591   2.979  15.133 -0.9417  0.3772  0.8742
 8756TIP3   OH247758   0.195   1.457   3.931 -0.1283 -0.2997  0.4050
 8756TIP3    H147759   0.179   1.523   3.863 -0.6923  0.3117  1.1008
 8756TIP3    H247760   0.107   1.430   3.959  0.0930 -0.3894  1.0269
 8757TIP3   OH247761   4.431   2.325  13.993 -0.3476 -0.0719  0.2768
 8757TIP3    H147762   4.503   2.263  13.981  0.2328  0.2268  2.0023
 8757TIP3    H247763   4.404   2.315  14.084 -1.3055  1.0930  0.1567
 8758TIP3   OH247764   5.746   1.533   0.010  0.1952  0.6011  0.0013
 8758TIP3    H147765   5.699   1.563  -0.067 -2.2330 -0.4331  0.9666
 8758TIP3    H247766   5.699   1.572   0.084  1.3768  0.1762  1.0196
 8759TIP3   OH247767   4.851   0.642   3.132  0.0370 -0.3203 -0.1787
 8759TIP3    H147768   4.916   0.671   3.196 -0.3534  0.3806 -0.0826
 8759TIP3    H247769   4.847   0.714   3.069  0.5233 -1.0694 -1.0756
 8760TIP3   OH247770   5.531   4.477   6.247  0.0298 -0.4480  0.5519
 8760TIP3    H147771   5.569   4.428   6.320  0.9086  0.0818  0.4642
 8760TIP3    H247772   5.442   4.442   6.238  0.5201 -1.7680  0.7130
 8761TIP3   OH247773   1.703   5.561   2.362 -0.0387 -0.2377  1.0120
 8761TIP3    H147774   1.658   5.508   2.296  2.1193 -3.0742  1.6064
 8761TIP3    H247775   1.639   5.573   2.432 -1.3044 -0.0546 -0.1386
 8762TIP3   OH247776   4.333   3.144  10.879 -0.5897  0.4905 -0.1827
 8762TIP3    H147777   4.354   3.195  10.801 -3.0628  0.8706 -0.6887
 8762TIP3    H247778   4.343   3.053  10.851  0.7192  0.6261 -0.2293
 8763TIP3   OH247779   2.555   5.233   5.639 -0.1640 -0.0827  0.0872
 8763TIP3    H147780   2.600   5.152   5.664 -0.1095 -0.5500 -1.3969
 8763TIP3    H247781   2.475   5.233   5.691 -0.2450 -1.1904 -0.0090
 8764TIP3   OH247782   2.207   0.042   2.603 -0.3582  0.1155  0.3383
 8764TIP3    H147783   2.211   0.136   2.587 -1.3922  0.4924  2.0550
 8764TIP3    H247784   2.289   0.008   2.566 -0.3455  1.5441 -1.0395
 8765TIP3   OH247785   1.999   4.965   0.728  0.0956 -0.1554 -0.0906
 8765TIP3    H147786   2.051   5.004   0.658 -0.7073  0.9480 -0.0976
 8765TIP3    H247787   1.909   4.985   0.706 -0.1295  1.3265  1.8601
 8766TIP3   OH247788   6.594   4.549   6.424  0.0014  0.1962  0.3344
 8766TIP3    H147789   6.660   4.481   6.420 -1.5181 -1.6247  2.8436
 8766TIP3    H247790   6.610   4.594   6.507 -1.5425  0.0504  0.7542
 8767TIP3   OH247791   0.985   3.138  15.706  0.4347  0.0297 -0.2847
 8767TIP3    H147792   0.992   3.042  15.707  1.1047  0.0599  1.5362
 8767TIP3    H247793   1.043   3.166  15.636  0.5795 -0.8741 -0.5403
 8768TIP3   OH247794   5.139   1.048  11.014 -0.0646  0.0818  0.4372
 8768TIP3    H147795   5.082   1.124  10.999  0.6696  0.4552 -0.6032
 8768TIP3    H247796   5.143   1.004  10.929 -1.4429 -1.8383  1.2962
 8769TIP3   OH247797   0.113   6.017  17.025  0.0547 -0.8287 -0.2971
 8769TIP3    H147798   0.018   6.018  17.011 -0.2010  0.3099  1.2272
 8769TIP3    H247799   0.140   5.928  17.003 -2.2096 -2.8783  3.8578
 8770TIP3   OH247800   1.683   0.331  15.586  0.6230 -0.2692  0.0929
 8770TIP3    H147801   1.744   0.389  15.630 -0.0113  0.4219  0.0736
 8770TIP3    H247802   1.602   0.382  15.578  1.1605  0.3008 -3.3596
 8771TIP3   OH247803   3.244   0.551  15.097 -0.1027  0.3735 -0.2772
 8771TIP3    H147804   3.285   0.636  15.078  1.0358 -0.2150 -0.5334
 8771TIP3    H247805   3.271   0.495  15.025 -1.5479  0.0011 -0.5493
 8772TIP3   OH247806   5.189   4.764  14.594 -0.0716 -0.4417  0.3347
 8772TIP3    H147807   5.204   4.707  14.669  1.7451  0.5655  0.7905
 8772TIP3    H247808   5.162   4.705  14.523  0.9772 -1.7615  0.9977
 8773TIP3   OH247809   5.572   6.332  16.014  0.5091  0.2967  0.0304
 8773TIP3    H147810   5.582   6.391  16.089  1.1198  0.5552 -0.2402
 8773TIP3    H247811   5.556   6.390  15.940  1.3161  0.1524 -0.2733
 8774TIP3   OH247812   2.635   6.280  15.001  0.6331  0.1029  0.0353
 8774TIP3    H147813   2.646   6.190  14.971  0.1334  0.4891 -1.3982
 8774TIP3    H247814   2.544   6.301  14.978  1.0144  1.2565 -0.4512
 8775TIP3   OH247815   2.501   0.340   5.508 -0.2485  0.2030  0.1025
 8775TIP3    H147816   2.589   0.326   5.544 -1.2117  0.1560  2.6608
 8775TIP3    H247817   2.508   0.314   5.416  2.3246 -0.0683  0.3012
 8776TIP3   OH247818   3.552   3.259   1.588  0.0182 -0.6726  0.3043
 8776TIP3    H147819   3.531   3.204   1.663 -1.3792 -0.0130  0.4322
 8776TIP3    H247820   3.610   3.328   1.623 -1.8422  0.5313  1.1691
 8777TIP3   OH247821   2.100   2.321   1.599 -0.1040  0.1007 -0.0535
 8777TIP3    H147822   2.075   2.405   1.560  1.5629  1.7084  2.0471
 8777TIP3    H247823   2.052   2.320   1.682  1.5851  0.0976  0.9633
 8778TIP3   OH247824   3.143   6.230  15.784 -0.4607  0.4755  0.2184
 8778TIP3    H147825   3.217   6.271  15.738  0.4305 -2.1983 -0.9821
 8778TIP3    H247826   3.109   6.167  15.721 -4.7960  2.4929  0.1881
 8779TIP3   OH247827   6.076   0.603  13.821 -0.1266 -0.4660  0.2379
 8779TIP3    H147828   6.079   0.607  13.725 -0.4585  0.6176  0.2518
 8779TIP3    H247829   5.988   0.572  13.841  0.1007 -1.1582  0.1965
 8780TIP3   OH247830   2.250   4.686  16.338 -0.3549  0.1441  0.1297
 8780TIP3    H147831   2.275   4.593  16.343 -0.2120  0.2130  0.7478
 8780TIP3    H247832   2.183   4.696  16.405 -0.6600  0.4068 -0.2096
 8781TIP3   OH247833   3.599   0.470  17.050  0.8313 -0.5411  0.2308
 8781TIP3    H147834   3.632   0.383  17.028  2.1353  0.4391 -2.0840
 8781TIP3    H247835   3.677   0.521  17.070  0.0389  0.0174  2.1898
 8782TIP3   OH247836   6.779   1.654  12.533 -0.2982 -0.4400  0.2319
 8782TIP3    H147837   6.770   1.597  12.609 -0.3664  0.1105  0.6459
 8782TIP3    H247838   6.718   1.618  12.469 -2.5846  0.8258  1.5258
 8783TIP3   OH247839   0.205   1.334   1.175 -0.0481 -0.0161  0.3817
 8783TIP3    H147840   0.258   1.410   1.152  0.0836 -0.7388 -1.8670
 8783TIP3    H247841   0.255   1.289   1.243  1.7220 -0.1345 -0.9640
 8784TIP3   OH247842   2.884   3.084   5.689 -0.2157 -0.0428 -0.1736
 8784TIP3    H147843   2.951   3.136   5.733  0.5181 -1.2936  0.2200
 8784TIP3    H247844   2.929   3.004   5.661 -1.1666 -0.1909 -1.3560
 8785TIP3   OH247845   5.630   3.970   3.737  0.0709 -0.4185 -0.2057
 8785TIP3    H147846   5.682   4.039   3.695 -0.6078 -0.1075 -0.5445
 8785TIP3    H247847   5.549   4.013   3.764 -0.7123 -1.2438 -1.1587
 8786TIP3   OH247848   4.516   2.913  14.305  0.3410  0.4617 -0.9237
 8786TIP3    H147849   4.457   2.938  14.234  1.2835  0.1793 -1.8231
 8786TIP3    H247850   4.566   2.839  14.270 -0.9467 -1.4131  0.9299
 8787TIP3   OH247851   0.942   6.068   1.896  0.2023 -0.5895 -0.0484
 8787TIP3    H147852   0.928   6.078   1.990 -2.6322 -0.3456 -0.3788
 8787TIP3    H247853   0.912   5.979   1.877 -0.2195 -0.2919 -0.8320
 8788TIP3   OH247854   3.184   0.650  14.433  0.1256  0.0339 -0.3429
 8788TIP3    H147855   3.279   0.655  14.446  0.2436 -2.3978  0.1560
 8788TIP3    H247856   3.174   0.612  14.346 -0.3703 -0.0694 -0.2418
 8789TIP3   OH247857   5.882   1.209   2.665  0.1122 -0.2479 -0.0838
 8789TIP3    H147858   5.817   1.174   2.605  0.2266  0.6716 -0.7605
 8789TIP3    H247859   5.942   1.137   2.681  0.1378 -0.4757 -1.1612
 8790TIP3   OH247860   5.386   6.231  16.233  0.4907  0.2145 -0.5111
 8790TIP3    H147861   5.422   6.266  16.151  3.0475  0.5871  0.6909
 8790TIP3    H247862   5.368   6.139  16.213  3.5295 -0.4058 -0.8777
 8791TIP3   OH247863   1.577   2.435   4.231  0.4974 -0.4374  0.3663
 8791TIP3    H147864   1.544   2.473   4.150  0.8749 -1.3487 -0.2400
 8791TIP3    H247865   1.637   2.500   4.266 -0.3654  0.3542  0.4003
 8792TIP3   OH247866   4.949   2.553  11.432 -0.2713 -0.1508  0.3523
 8792TIP3    H147867   4.968   2.592  11.517 -1.3892  0.9689  0.1156
 8792TIP3    H247868   4.884   2.485  11.450  0.1261 -0.4995  0.4918
 8793TIP3   OH247869   5.491   4.364  13.514 -0.7363 -0.0061  0.0038
 8793TIP3    H147870   5.528   4.447  13.545  1.5901 -1.3586  1.1340
 8793TIP3    H247871   5.396   4.378  13.516 -0.5126  1.9250  2.2678
 8794TIP3   OH247872   0.435   4.524   2.242 -0.0528 -0.2265  0.3887
 8794TIP3    H147873   0.372   4.503   2.173  1.6346  2.4802 -2.2455
 8794TIP3    H247874   0.395   4.595   2.291 -1.9650 -3.1920  3.5457
 8795TIP3   OH247875   4.265   2.901  11.453  0.7664 -0.1848 -0.0711
 8795TIP3    H147876   4.354   2.890  11.485  0.2467 -1.3395  1.0675
 8795TIP3    H247877   4.209   2.883  11.529 -0.4573 -0.6578 -1.0344
 8796TIP3   OH247878   6.818   0.709  15.436  0.1780  0.0435  0.0172
 8796TIP3    H147879   6.860   0.775  15.381 -1.5002  0.8306 -0.3750
 8796TIP3    H247880   6.768   0.656  15.374 -3.8887  2.5269  0.8350
 8797TIP3   OH247881   2.034   1.539  11.895 -0.0971 -0.6375 -0.0725
 8797TIP3    H147882   1.991   1.475  11.952 -0.0608 -0.6587 -0.0690
 8797TIP3    H247883   1.967   1.604  11.877  0.1602 -0.1229  0.7746
 8798TIP3   OH247884   3.706   5.789  14.861  0.7472 -0.2347  0.3980
 8798TIP3    H147885   3.703   5.707  14.812 -1.6744 -0.4108  0.7169
 8798TIP3    H247886   3.747   5.851  14.802  1.5762 -1.4048 -0.2848
 8799TIP3   OH247887   4.672   5.525  14.028 -0.4430  0.1154 -0.2211
 8799TIP3    H147888   4.715   5.564  13.952 -0.7306 -0.0656 -0.4774
 8799TIP3    H247889   4.589   5.491  13.994 -0.5813  0.0542  0.1770
 8800TIP3   OH247890   4.823   1.277  12.269  0.0342  0.0386  0.0940
 8800TIP3    H147891   4.851   1.366  12.291  2.1221 -0.4665 -0.2918
 8800TIP3    H247892   4.764   1.288  12.194  1.5139  1.0385 -0.9920
 8801TIP3   OH247893   6.094   4.218  12.692  0.1308  0.0530 -0.3503
 8801TIP3    H147894   6.028   4.287  12.702 -0.1251 -0.2184 -0.1586
 8801TIP3    H247895   6.157   4.255  12.630  1.7788  1.8088  2.1743
 8802TIP3   OH247896   6.466   6.777   1.657  0.1681 -0.1579 -0.0818
 8802TIP3    H147897   6.559   6.763   1.642  0.0439 -1.3409  0.1886
 8802TIP3    H247898   6.438   6.833   1.584  0.6902 -1.3781 -1.2503
 8803TIP3   OH247899   0.032   0.088  11.314  0.1334 -0.1707  0.0057
 8803TIP3    H147900   0.073   0.067  11.230  0.2712 -0.3690  0.1213
 8803TIP3    H247901  -0.047   0.136  11.291 -0.9016 -1.9620 -0.3154
 8804TIP3   OH247902   1.980   6.336   0.414  0.4475  0.2490  0.2263
 8804TIP3    H147903   2.008   6.409   0.359  0.4008  1.4368  1.7068
 8804TIP3    H247904   2.058   6.312   0.463  0.1835  0.0639  0.5574
 8805TIP3   OH247905   2.242   5.357   4.376  0.1753  0.2240 -0.2487
 8805TIP3    H147906   2.197   5.436   4.405  0.8214  0.1202  1.1172
 8805TIP3    H247907   2.319   5.390   4.329 -0.6562  0.3945 -1.5265
 8806TIP3   OH247908   5.289   1.913  12.650  0.0362  0.4287  0.3738
 8806TIP3    H147909   5.233   1.871  12.585  0.6417 -0.2678  0.2876
 8806TIP3    H247910   5.344   1.842  12.685  1.6612  1.2572 -0.3681
 8807TIP3   OH247911   4.299   3.482   5.768  0.0647  0.7936 -0.2274
 8807TIP3    H147912   4.327   3.491   5.677 -0.1426 -1.0337 -0.5218
 8807TIP3    H247913   4.378   3.459   5.815 -0.4445 -2.4274 -0.7253
 8808TIP3   OH247914   2.554   6.394   5.232 -0.4960 -0.0895  0.1304
 8808TIP3    H147915   2.478   6.379   5.289 -3.2865 -0.3019 -3.2987
 8808TIP3    H247916   2.554   6.320   5.171  0.6556  1.3597 -1.7467
 8809TIP3   OH247917   6.189   6.396  12.794 -0.4256  0.3364  0.1298
 8809TIP3    H147918   6.126   6.461  12.826 -1.5812 -0.5480 -0.3286
 8809TIP3    H247919   6.139   6.316  12.784  0.9335 -0.5877  0.4448
 8810TIP3   OH247920   2.547   6.259   2.173 -0.1448  0.1541  0.5713
 8810TIP3    H147921   2.481   6.194   2.199 -0.6612  0.8463  1.0455
 8810TIP3    H247922   2.497   6.340   2.164  0.5724  0.5863  0.4650
 8811TIP3   OH247923   2.487   1.720  15.352 -0.3043  0.1104  0.1613
 8811TIP3    H147924   2.457   1.641  15.307  0.0547  0.2987 -0.4225
 8811TIP3    H247925   2.413   1.746  15.406 -0.3127 -0.8077  0.6132
 8812TIP3   OH247926   1.719   5.121   3.235 -0.5271  0.0810  0.7158
 8812TIP3    H147927   1.761   5.191   3.186  0.1721  0.1982  1.4599
 8812TIP3    H247928   1.783   5.097   3.303 -0.3341 -1.9193 -0.0900
 8813TIP3   OH247929   5.281   3.121  13.379  0.4171 -0.6918  0.5960
 8813TIP3    H147930   5.263   3.027  13.373  1.8731 -0.9595 -0.0532
 8813TIP3    H247931   5.304   3.135  13.471  0.9112 -1.1250  0.5442
 8814TIP3   OH247932   1.965   3.484  16.539 -0.2842 -0.6130  0.2485
 8814TIP3    H147933   1.985   3.512  16.628  1.0276  1.1075 -0.5456
 8814TIP3    H247934   2.032   3.418  16.519  0.0416 -0.2641  0.1856
 8815TIP3   OH247935   4.313   2.511  16.007  0.4486  0.0351 -0.4806
 8815TIP3    H147936   4.377   2.492  16.075  0.7834 -0.3727 -0.8975
 8815TIP3    H247937   4.290   2.603  16.020 -0.1901 -0.2768  0.7520
 8816TIP3   OH247938   5.897   0.539  17.152 -0.3169  0.5084  0.2588
 8816TIP3    H147939   5.849   0.464  17.118 -0.4994  0.8044 -0.1429
 8816TIP3    H247940   5.872   0.612  17.096 -0.3891  0.9418  0.8381
 8817TIP3   OH247941   3.370   5.817  11.202  0.3986 -0.4906  0.2428
 8817TIP3    H147942   3.448   5.847  11.155  0.9937 -1.9531  0.2510
 8817TIP3    H247943   3.358   5.882  11.271  0.9229  0.3800 -0.4632
 8818TIP3   OH247944   3.686   6.757  13.610 -0.4930 -0.4367  0.6198
 8818TIP3    H147945   3.624   6.713  13.668  0.7167 -1.6791  1.0415
 8818TIP3    H247946   3.772   6.732  13.644  0.2494 -0.0320 -0.8675
 8819TIP3   OH247947   4.278   1.331   5.376  0.1917 -0.3608  0.2128
 8819TIP3    H147948   4.208   1.345   5.312 -0.1101 -2.7082 -0.0659
 8819TIP3    H247949   4.331   1.411   5.372 -1.1225  0.4865 -1.2967
 8820TIP3   OH247950   3.057   2.556   5.785  0.7127  0.0341  0.0107
 8820TIP3    H147951   3.049   2.540   5.879  0.2535 -1.2818 -0.2388
 8820TIP3    H247952   3.096   2.476   5.750 -1.3710 -0.4933 -1.2439
 8821TIP3   OH247953   4.897   0.663  14.350 -0.0157  0.8816  0.1726
 8821TIP3    H147954   4.849   0.597  14.301  0.6466  1.3356 -1.1240
 8821TIP3    H247955   4.830   0.724  14.381 -0.5367  0.0797  0.6648
 8822TIP3   OH247956   4.339   3.965  10.873  0.4066  0.5225  0.3486
 8822TIP3    H147957   4.271   4.002  10.928  1.1425  0.0647  1.6274
 8822TIP3    H247958   4.308   3.978  10.783 -0.7521  1.4427  0.8561
 8823TIP3   OH247959   2.738   3.980  15.396  0.0104  0.0121 -0.2150
 8823TIP3    H147960   2.780   4.052  15.349  0.5774 -1.0967 -1.4644
 8823TIP3    H247961   2.810   3.921  15.418 -0.4664 -0.2502  0.6699
 8824TIP3   OH247962   2.917   6.067   2.654 -0.0172  0.1198  0.4981
 8824TIP3    H147963   2.941   5.993   2.598 -0.2063 -1.3878  2.2917
 8824TIP3    H247964   3.001   6.108   2.677  0.4236 -1.3911  1.8219
 8825TIP3   OH247965   5.321   2.954  14.700  0.5040  0.1039  0.2169
 8825TIP3    H147966   5.415   2.947  14.682  0.8781  0.5191  1.8004
 8825TIP3    H247967   5.317   2.978  14.793 -1.0742  3.3272 -0.5515
 8826TIP3   OH247968   0.632   2.112  13.402 -0.7644  0.3191  0.5775
 8826TIP3    H147969   0.722   2.145  13.409 -0.6416  0.1144  0.0236
 8826TIP3    H247970   0.592   2.133  13.487  0.2766 -0.9705  1.4424
 8827TIP3   OH247971   0.733   1.523  14.304  0.4112 -0.1236  0.3306
 8827TIP3    H147972   0.758   1.440  14.264  0.2326 -0.1641  0.3024
 8827TIP3    H247973   0.816   1.562  14.332  0.4064 -0.9979  1.7043
 8828TIP3   OH247974   2.562   0.904  11.061  0.0029  0.3431 -0.1097
 8828TIP3    H147975   2.523   0.820  11.038 -3.0513  1.7164 -0.4511
 8828TIP3    H247976   2.570   0.951  10.978 -1.6925  1.6400  0.4039
 8829TIP3   OH247977   1.920   1.128   0.335 -0.0891  0.1283 -0.6603
 8829TIP3    H147978   1.974   1.207   0.336 -1.3211  0.9936 -0.1769
 8829TIP3    H247979   1.952   1.076   0.408  0.2951  0.4733 -0.5752
 8830TIP3   OH247980   3.945   2.713   6.575 -0.2977  0.4343 -1.2084
 8830TIP3    H147981   3.987   2.791   6.611 -0.0927  0.0526 -0.6085
 8830TIP3    H247982   4.017   2.666   6.531 -0.4742  0.7153 -1.8037
 8831TIP3   OH247983   0.549   3.986   3.727 -0.5995 -0.8708 -0.0343
 8831TIP3    H147984   0.512   3.899   3.745  0.1709 -0.8709  1.7858
 8831TIP3    H247985   0.624   3.968   3.669  0.1056 -1.5641  1.0452
 8832TIP3   OH247986   0.495   2.838  11.387  0.0322 -0.6763 -0.2923
 8832TIP3    H147987   0.490   2.872  11.297  0.8333 -0.8653 -0.4128
 8832TIP3    H247988   0.587   2.845  11.410 -0.3715  0.7274  1.0558
 8833TIP3   OH247989   2.693   1.684  16.715  0.2367  0.5784 -0.3534
 8833TIP3    H147990   2.731   1.627  16.782  0.8959  0.9559 -0.3889
 8833TIP3    H247991   2.601   1.659  16.711  0.5413 -0.6166 -0.5102
 8834TIP3   OH247992   3.567   6.648   1.527  0.1255 -0.2588  0.1400
 8834TIP3    H147993   3.648   6.686   1.560  0.0855 -0.9363  1.0513
 8834TIP3    H247994   3.503   6.719   1.535 -0.1259 -0.6669  2.5318
 8835TIP3   OH247995   6.194   4.803  14.546  0.0679 -0.7521 -0.2855
 8835TIP3    H147996   6.189   4.713  14.577  1.1747 -0.1420  1.8540
 8835TIP3    H247997   6.164   4.856  14.620  1.1910  0.7179 -0.8193
 8836TIP3   OH247998   3.163   3.419  11.965 -0.1266  0.5132  0.3579
 8836TIP3    H147999   3.126   3.341  12.006 -0.1761  0.8191  0.8948
 8836TIP3    H248000   3.178   3.393  11.874 -0.8095  0.1053  0.3573
 8837TIP3   OH248001   2.747   0.777   3.532  0.1162  0.9044 -0.0369
 8837TIP3    H148002   2.717   0.852   3.584 -0.8463  1.3878 -1.2302
 8837TIP3    H248003   2.837   0.798   3.508  0.2006  1.1814  0.5066
 8838TIP3   OH248004   6.418   3.805  15.366  0.4175 -0.1331  0.1309
 8838TIP3    H148005   6.325   3.826  15.372  0.1849 -1.0575 -0.0349
 8838TIP3    H248006   6.451   3.814  15.455  0.0027 -0.5033  0.3261
 8839TIP3   OH248007   0.964   1.534  11.047 -0.2765 -0.4409 -0.2203
 8839TIP3    H148008   1.054   1.563  11.030  0.7517 -3.2192  0.0611
 8839TIP3    H248009   0.929   1.600  11.107  0.9952  1.5503 -1.5461
 8840TIP3   OH248010   6.605   4.152  14.129 -0.5760  0.5369  0.0430
 8840TIP3    H148011   6.550   4.209  14.183 -1.0004 -0.1490  0.3519
 8840TIP3    H248012   6.681   4.134  14.185 -1.1799 -0.4580  0.5723
 8841TIP3   OH248013   0.413   3.765  15.473  0.2498  0.0434  0.3615
 8841TIP3    H148014   0.394   3.698  15.538  1.2290  0.2363  0.8527
 8841TIP3    H248015   0.383   3.727  15.390  0.2195 -0.7439  0.7270
 8842TIP3   OH248016   0.958   0.257  13.438 -0.1125 -0.2539 -0.2521
 8842TIP3    H148017   1.007   0.179  13.415 -1.2977 -0.9369 -0.5464
 8842TIP3    H248018   0.909   0.233  13.517  0.1655  0.4688  0.1484
 8843TIP3   OH248019   5.120   5.549  15.667 -0.3038 -0.6134  0.3019
 8843TIP3    H148020   5.126   5.620  15.603  0.2809 -1.5107 -0.6622
 8843TIP3    H248021   5.210   5.523  15.684 -0.5401 -2.0281 -0.4106
 8844TIP3   OH248022   1.384   5.809   5.214 -0.2071  1.1488  0.1574
 8844TIP3    H148023   1.466   5.802   5.262 -0.3452 -0.6547  0.2009
 8844TIP3    H248024   1.408   5.844   5.129  1.5985 -3.9259 -1.8193
 8845TIP3   OH248025   5.815   5.792  11.103  0.2256  0.0614 -0.1059
 8845TIP3    H148026   5.776   5.848  11.170 -1.2038  0.1145 -0.9332
 8845TIP3    H248027   5.887   5.844  11.067  1.2265 -0.1021  1.5787
 8846TIP3   OH248028   5.508   1.819   3.937 -0.2018  0.0680  0.2096
 8846TIP3    H148029   5.429   1.832   3.989 -0.9290 -0.3965 -0.7521
 8846TIP3    H248030   5.503   1.728   3.907  1.7146 -0.6369  1.7646
 8847TIP3   OH248031   5.343   5.414  15.390  0.2784 -0.2534  0.3289
 8847TIP3    H148032   5.322   5.324  15.368 -1.1302 -0.0779  0.8306
 8847TIP3    H248033   5.305   5.466  15.319 -1.4408  0.0953  1.4257
 8848TIP3   OH248034   1.564   5.505   0.456 -0.9116  0.9570  0.6368
 8848TIP3    H148035   1.518   5.422   0.439  0.8409 -0.0972  0.8542
 8848TIP3    H248036   1.494   5.569   0.462 -2.2980 -0.4063 -0.0906
 8849TIP3   OH248037   4.944   0.303   0.115 -0.0488 -0.3711  0.1372
 8849TIP3    H148038   5.002   0.242   0.070 -1.2410 -1.6289  0.2388
 8849TIP3    H248039   5.002   0.355   0.171  0.9923 -1.4545  0.0974
 8850TIP3   OH248040   3.883   5.700  14.063  0.6940  0.4350 -0.0384
 8850TIP3    H148041   3.871   5.732  13.974 -0.7624  0.9580  0.3060
 8850TIP3    H248042   3.862   5.775  14.119 -0.3045 -0.3920  0.7506
 8851TIP3   OH248043   6.012   2.316  15.072 -0.1385 -0.2308  0.2876
 8851TIP3    H148044   6.104   2.324  15.048 -0.3674  0.2667 -0.4758
 8851TIP3    H248045   5.977   2.248  15.014 -0.8018  1.2977 -1.2165
 8852TIP3   OH248046   5.473   1.486  12.715 -0.7914  0.1094  0.4909
 8852TIP3    H148047   5.526   1.498  12.636 -1.9496 -0.6174 -0.4350
 8852TIP3    H248048   5.477   1.570  12.759  1.2788  0.0313  0.5739
 8853TIP3   OH248049   0.345   6.715   4.573 -0.5872  0.0805  0.3080
 8853TIP3    H148050   0.385   6.636   4.537  2.2861  1.6907 -0.3366
 8853TIP3    H248051   0.356   6.708   4.667  3.4613  1.3772  0.1122
 8854TIP3   OH248052   5.475   2.207   3.738  0.0827  0.6411  0.3100
 8854TIP3    H148053   5.507   2.117   3.747  0.3578  0.4927 -1.8235
 8854TIP3    H248054   5.390   2.207   3.782  0.8735 -0.1603  1.9238
 8855TIP3   OH248055   1.273   5.454  10.535 -0.2278  0.9419 -0.3012
 8855TIP3    H148056   1.281   5.548  10.514 -1.9002  1.4724  1.1905
 8855TIP3    H248057   1.191   5.428  10.494  1.1375 -0.4089 -2.3201
 8856TIP3   OH248058   4.358   6.684  12.033 -0.0499  0.2398  0.3928
 8856TIP3    H148059   4.387   6.633  12.109 -1.1963 -0.3223  0.4717
 8856TIP3    H248060   4.307   6.623  11.981 -1.0776  1.1860  0.2536
 8857TIP3   OH248061   2.266   5.906  11.027 -0.4395 -0.2802 -0.1975
 8857TIP3    H148062   2.189   5.897  11.082  0.1026  1.7676  1.0189
 8857TIP3    H248063   2.241   5.972  10.961 -0.3471 -1.0652 -1.0408
 8858TIP3   OH248064   0.633   6.231  16.956  0.5321 -0.2216  0.1563
 8858TIP3    H148065   0.570   6.224  16.885 -0.6929 -0.2467  1.2087
 8858TIP3    H248066   0.611   6.159  17.015 -0.0133  1.1726  1.7195
 8859TIP3   OH248067   2.176   2.611   2.917  0.0890 -0.3078  0.3211
 8859TIP3    H148068   2.224   2.584   2.839 -2.0577 -1.0600 -0.8445
 8859TIP3    H248069   2.149   2.530   2.959  0.3381  0.0909  1.2755
 8860TIP3   OH248070   3.188   5.055  16.917  0.6255 -0.1787  0.2636
 8860TIP3    H148071   3.225   5.139  16.943  1.2694  0.3633 -2.1928
 8860TIP3    H248072   3.151   5.070  16.830  1.2372 -2.5493 -0.4924
 8861TIP3   OH248073   3.410   0.185  16.713  0.6510  0.6075  0.1095
 8861TIP3    H148074   3.497   0.160  16.683 -0.0732 -0.6501 -1.0313
 8861TIP3    H248075   3.351   0.123  16.670 -0.7672  1.1048  1.2629
 8862TIP3   OH248076   3.472   5.799  14.162  0.0679 -0.2286 -0.1915
 8862TIP3    H148077   3.493   5.892  14.149 -0.2362 -0.1613 -0.2059
 8862TIP3    H248078   3.410   5.798  14.235 -0.8066 -0.3173 -0.9167
 8863TIP3   OH248079   5.784   5.519   5.272 -0.1299 -0.2187 -0.0907
 8863TIP3    H148080   5.739   5.483   5.348 -2.3212 -0.2006 -1.3090
 8863TIP3    H248081   5.775   5.451   5.205  0.4872  0.3777 -0.7980
 8864TIP3   OH248082   4.452   2.558  14.843  0.0541 -0.7393  0.7120
 8864TIP3    H148083   4.437   2.626  14.777 -1.6022 -0.3162  1.4770
 8864TIP3    H248084   4.491   2.486  14.794  1.8522  0.6971 -0.1381
 8865TIP3   OH248085   0.542   5.274  11.808  0.5409 -0.1336  0.2858
 8865TIP3    H148086   0.620   5.328  11.803  0.8991 -0.6398  0.3716
 8865TIP3    H248087   0.568   5.199  11.862 -0.0278 -0.2562  0.3950
 8866TIP3   OH248088   6.275   1.067  13.604 -0.1919 -0.1076  0.5108
 8866TIP3    H148089   6.276   0.994  13.541 -2.1639  0.2913 -0.0433
 8866TIP3    H248090   6.361   1.063  13.646  0.7246 -1.1500 -1.3307
 8867TIP3   OH248091   0.959   4.795  13.491  1.0664  0.2227  0.1171
 8867TIP3    H148092   0.971   4.704  13.462  3.1553  0.7225 -0.7781
 8867TIP3    H248093   0.948   4.845  13.410 -2.1627  0.5946  0.6717
 8868TIP3   OH248094   2.733   0.183   0.496 -0.7143  0.1733 -0.3549
 8868TIP3    H148095   2.767   0.094   0.509  0.4681  0.0356 -3.5609
 8868TIP3    H248096   2.639   0.170   0.481 -0.5697 -0.5392 -0.7160
 8869TIP3   OH248097   1.130   2.109   2.912  0.2093  0.2143  0.3889
 8869TIP3    H148098   1.078   2.124   2.991 -0.3376 -1.3468  0.3671
 8869TIP3    H248099   1.066   2.075   2.848  1.0241 -0.5731 -0.0265
 8870TIP3   OH248100   5.339   5.952  15.644 -0.3586  0.2671 -0.1706
 8870TIP3    H148101   5.289   5.978  15.722  0.4537 -3.3085  1.7887
 8870TIP3    H248102   5.274   5.919  15.583 -0.8493  1.5587 -0.3886
 8871TIP3   OH248103   5.856   2.878  14.497  0.5913 -0.1879  0.1089
 8871TIP3    H148104   5.777   2.848  14.542  0.4765 -1.2335 -0.7551
 8871TIP3    H248105   5.835   2.967  14.469  0.3343  0.1465  1.3136
 8872TIP3   OH248106   4.126   1.145   3.073 -0.0911  0.2803 -0.1785
 8872TIP3    H148107   4.185   1.116   3.142 -1.1242  2.2771  1.6659
 8872TIP3    H248108   4.182   1.189   3.010  0.5458  1.6093  1.2330
 8873TIP3   OH248109   6.818   4.995   1.600  0.0946  0.0440  0.1508
 8873TIP3    H148110   6.828   4.900   1.594  1.2825  0.1807 -0.2262
 8873TIP3    H248111   6.724   5.008   1.613 -0.2563 -1.1272 -0.9939
 8874TIP3   OH248112   1.281   6.695  11.145  0.6054 -0.3937  0.0914
 8874TIP3    H148113   1.355   6.729  11.094  0.9890 -1.1140  0.1568
 8874TIP3    H248114   1.213   6.679  11.079  1.0363 -1.1477 -0.1857
 8875TIP3   OH248115   0.001   5.035  13.307 -0.8725 -0.1568  0.0769
 8875TIP3    H148116   0.057   5.098  13.260  0.4058  0.2045  1.9739
 8875TIP3    H248117  -0.086   5.075  13.305 -0.4997  0.6591 -0.5384
 8876TIP3   OH248118   0.613   3.831  14.855 -0.1251 -0.3677 -0.1518
 8876TIP3    H148119   0.606   3.914  14.903 -3.3965 -0.6650  0.0750
 8876TIP3    H248120   0.627   3.765  14.924  1.0395 -0.2071 -0.2097
 8877TIP3   OH248121   3.745   5.851   3.479 -0.0319  0.4807  0.2109
 8877TIP3    H148122   3.668   5.874   3.427  1.4085  1.0768 -1.7644
 8877TIP3    H248123   3.796   5.793   3.422  0.2293 -1.2681  2.1070
 8878TIP3   OH248124   0.691   6.769   5.181 -0.4115  0.4805  0.3521
 8878TIP3    H148125   0.598   6.779   5.159 -0.4663  1.2049  0.8725
 8878TIP3    H248126   0.698   6.683   5.221 -0.7545  0.1887 -0.2023
 8879TIP3   OH248127   5.567   0.853   4.707  0.2309 -0.6145 -0.2840
 8879TIP3    H148128   5.553   0.792   4.635  0.5771 -1.3538  0.2664
 8879TIP3    H248129   5.549   0.802   4.786 -1.5473  0.5551  0.1324
 8880TIP3   OH248130   3.083   5.385  16.175  0.1300 -0.5107 -0.1700
 8880TIP3    H148131   3.052   5.475  16.171 -1.2778 -0.9936 -0.8929
 8880TIP3    H248132   3.043   5.349  16.254  1.0100 -0.4121  0.3383
 8881TIP3   OH248133   2.663   2.628   1.572  0.2595 -0.0232 -0.2219
 8881TIP3    H148134   2.707   2.585   1.645  0.3507 -0.8812 -0.7650
 8881TIP3    H248135   2.728   2.627   1.501 -0.2339 -0.2599 -0.6755
 8882TIP3   OH248136   4.393   6.114  12.966 -0.0875 -0.3088  0.5996
 8882TIP3    H148137   4.315   6.164  12.940  0.3058  0.7469  1.3816
 8882TIP3    H248138   4.364   6.022  12.965 -1.4629  0.0890  1.2487
 8883TIP3   OH248139   5.461   5.928  11.277 -0.3950 -0.2314 -0.3960
 8883TIP3    H148140   5.436   6.006  11.327  1.9989  0.1367  0.3693
 8883TIP3    H248141   5.393   5.919  11.210 -2.3153  0.7685  1.3207
 8884TIP3   OH248142   6.733   2.740  16.558  0.3562 -0.7497  0.3967
 8884TIP3    H148143   6.654   2.691  16.533 -0.0217 -0.0975  0.2933
 8884TIP3    H248144   6.714   2.771  16.647  0.1316  0.1484  0.0384
 8885TIP3   OH248145   4.158   0.134   4.198 -0.4098  0.4649 -0.4404
 8885TIP3    H148146   4.113   0.051   4.188  0.6978 -0.5564  2.1941
 8885TIP3    H248147   4.088   0.199   4.203 -1.3948 -0.5702 -0.4968
 8886TIP3   OH248148   1.056   3.272   5.068  0.3964  0.4278 -0.0392
 8886TIP3    H148149   0.983   3.334   5.075 -0.3675 -0.5256  0.8618
 8886TIP3    H248150   1.126   3.312   5.120  0.4845  1.2948 -0.8028
 8887TIP3   OH248151   6.480   3.390   0.124  0.4541 -0.3446  0.3350
 8887TIP3    H148152   6.437   3.366   0.206 -1.8464  2.0378 -0.0634
 8887TIP3    H248153   6.553   3.447   0.150 -0.6554  0.9235  0.7360
 8888TIP3   OH248154   3.371   5.067  17.147 -0.1076 -0.1130  0.1926
 8888TIP3    H148155   3.383   4.996  17.085 -1.1893  0.4378 -0.6833
 8888TIP3    H248156   3.359   5.145  17.093  0.6071  0.6722  1.1216
 8889TIP3   OH248157   3.131   1.485  11.833  0.3466  0.0563  0.2544
 8889TIP3    H148158   3.085   1.515  11.912 -1.0083 -0.4036 -0.3381
 8889TIP3    H248159   3.208   1.438  11.866 -0.5723 -0.7277  1.3168
 8890TIP3   OH248160   3.063   6.552   4.443  0.0665  0.0851  0.2928
 8890TIP3    H148161   3.152   6.551   4.408  0.0072  1.0243  0.0844
 8890TIP3    H248162   3.022   6.473   4.408  0.9467 -0.5866  0.7457
 8891TIP3   OH248163   3.958   6.765   4.151 -0.7215  0.8200 -0.2084
 8891TIP3    H148164   3.913   6.682   4.166 -0.5302  0.8865  0.7995
 8891TIP3    H248165   3.940   6.786   4.060  0.0820 -0.8498 -0.8056
 8892TIP3   OH248166   3.897   0.933   2.293  0.2508  0.2854  1.0341
 8892TIP3    H148167   3.837   0.870   2.334 -0.2242  1.1169  1.6666
 8892TIP3    H248168   3.842   0.984   2.234  0.7038 -0.1137  0.2502
 8893TIP3   OH248169   2.280   6.763  16.957 -0.0768 -0.3496  0.1781
 8893TIP3    H148170   2.364   6.725  16.984 -0.3434 -0.4663  0.8629
 8893TIP3    H248171   2.238   6.695  16.905  0.5568 -0.0272 -0.7852
 8894TIP3   OH248172   3.397   2.062  15.583 -0.1591 -0.9229  0.0172
 8894TIP3    H148173   3.489   2.068  15.610  0.3724  1.1083 -1.9931
 8894TIP3    H248174   3.400   2.020  15.497 -1.0102  0.0714 -0.5155
 8895TIP3   OH248175   5.711   6.099  16.036 -0.0713  0.2943 -0.1491
 8895TIP3    H148176   5.792   6.147  16.050  0.2611 -0.1051 -0.6621
 8895TIP3    H248177   5.645   6.167  16.019  0.3723  0.5809 -0.7608
 8896TIP3   OH248178   3.164   4.533   5.287 -0.5922 -0.2548 -0.3242
 8896TIP3    H148179   3.207   4.605   5.332 -2.0671 -1.1068  2.7237
 8896TIP3    H248180   3.151   4.564   5.198  1.4160  2.0559  0.0882
 8897TIP3   OH248181   5.881   1.999  14.041  0.1461 -0.5865  0.6309
 8897TIP3    H148182   5.798   1.953  14.051  0.4934 -1.1520  0.9571
 8897TIP3    H248183   5.937   1.937  13.994 -0.3449  0.6660 -1.7687
 8898TIP3   OH248184   5.995   6.052  11.944  0.0673 -0.3039  0.3223
 8898TIP3    H148185   5.930   6.042  12.013 -0.5419 -0.0602 -0.2075
 8898TIP3    H248186   5.955   6.013  11.866  0.3768  0.2317 -0.1139
 8899TIP3   OH248187   6.267   6.663   0.420 -0.7383  0.2167  0.1407
 8899TIP3    H148188   6.284   6.582   0.467 -0.1161  1.6241  2.5366
 8899TIP3    H248189   6.215   6.716   0.481 -0.2173  2.0162 -0.8925
 8900TIP3   OH248190   0.694   3.361   4.271  0.2968 -0.1061  0.6941
 8900TIP3    H148191   0.700   3.321   4.357  0.0533  0.0839  0.8009
 8900TIP3    H248192   0.620   3.422   4.278 -0.4658 -0.9323  0.0224
 8901TIP3   OH248193   3.176   6.234  14.454 -0.4611  0.4062  0.2892
 8901TIP3    H148194   3.196   6.193  14.370  0.0177  3.8046 -1.4615
 8901TIP3    H248195   3.081   6.249  14.451 -0.2533  1.8086 -0.4000
 8902TIP3   OH248196   1.101   4.755   0.435  0.2551  0.2912 -0.2340
 8902TIP3    H148197   1.181   4.724   0.477  0.9776 -0.1883 -1.8869
 8902TIP3    H248198   1.132   4.806   0.360 -0.9698  2.0891  0.4094
 8903TIP3   OH248199   0.237   5.660  16.539 -0.9671  0.6150  0.2879
 8903TIP3    H148200   0.326   5.629  16.525 -1.5642 -0.5262 -1.2727
 8903TIP3    H248201   0.229   5.738  16.483 -0.8634  0.9213  0.6913
 8904TIP3   OH248202   6.824   5.900  13.052 -0.0989 -0.3664 -0.2668
 8904TIP3    H148203   6.796   5.975  13.104  2.3261 -0.3058  1.1373
 8904TIP3    H248204   6.906   5.928  13.012  0.2319 -1.8641 -0.7076
 8905TIP3   OH248205   1.593   5.075  14.324 -0.4762 -0.5465  0.5247
 8905TIP3    H148206   1.550   5.093  14.408  0.7914 -1.1411  1.3508
 8905TIP3    H248207   1.649   4.999  14.343 -0.9497 -1.3537 -1.1561
 8906TIP3   OH248208   3.654   1.929  16.853  0.1377  0.0208 -0.0577
 8906TIP3    H148209   3.659   1.841  16.814  0.2626 -0.0081  0.0237
 8906TIP3    H248210   3.561   1.952  16.846 -0.2364 -0.8343  1.4720
 8907TIP3   OH248211   0.737   4.377  13.788  0.1317 -0.2906  0.2132
 8907TIP3    H148212   0.724   4.460  13.744  0.1067  0.9412  2.4110
 8907TIP3    H248213   0.832   4.362  13.783 -0.0761 -1.2448 -1.9822
 8908TIP3   OH248214   0.576   0.229  15.710  0.4527 -0.9279 -0.7799
 8908TIP3    H148215   0.622   0.294  15.763 -1.5178  0.0490 -0.1894
 8908TIP3    H248216   0.557   0.158  15.770 -1.7776  0.1779 -0.0971
 8909TIP3   OH248217   2.111   1.039  16.803 -0.5883  1.2762 -0.2773
 8909TIP3    H148218   2.043   1.009  16.743 -1.6271 -0.6053  1.7315
 8909TIP3    H248219   2.087   1.129  16.825 -0.1133  2.0631 -2.6715
 8910TIP3   OH248220   0.165   2.878  15.329 -0.3410 -0.2775  0.2932
 8910TIP3    H148221   0.215   2.956  15.303  1.6758  0.3057  4.8139
 8910TIP3    H248222   0.228   2.806  15.321 -0.7374 -0.6324  0.3580
 8911TIP3   OH248223   5.430   1.550   1.763 -0.4882 -0.2501  0.1801
 8911TIP3    H148224   5.500   1.582   1.706 -0.5248 -0.8838 -0.2161
 8911TIP3    H248225   5.432   1.455   1.754 -0.2148 -0.3987  1.5594
 8912TIP3   OH248226   5.117   2.507   6.821  0.1904 -0.5485  0.2061
 8912TIP3    H148227   5.187   2.564   6.852 -1.0681  1.6263 -0.7273
 8912TIP3    H248228   5.130   2.502   6.726  0.5374 -2.2492  0.3079
 8913TIP3   OH248229   6.613   6.221   1.683  0.1209 -0.2631  0.6041
 8913TIP3    H148230   6.664   6.269   1.618 -0.2094 -0.5095  0.1625
 8913TIP3    H248231   6.608   6.132   1.648  0.1928 -0.4706  1.1103
 8914TIP3   OH248232   2.911   5.592   4.031 -0.2276 -0.7208 -0.4596
 8914TIP3    H148233   2.894   5.565   3.941  1.0723 -0.3674 -0.8312
 8914TIP3    H248234   2.906   5.511   4.082  2.9416 -1.6528 -1.4437
 8915TIP3   OH248235   2.445   0.660   5.312 -0.3870  0.0488  0.7314
 8915TIP3    H148236   2.426   0.729   5.248  1.0287 -0.5284 -0.3483
 8915TIP3    H248237   2.397   0.583   5.280 -0.6836  0.0861  1.0705
 8916TIP3   OH248238   6.803   3.203  11.559 -0.3437  0.1131  0.0040
 8916TIP3    H148239   6.712   3.196  11.532 -1.3643 -1.7349  3.4019
 8916TIP3    H248240   6.841   3.117  11.538  0.2634  0.4129 -0.1620
 8917TIP3   OH248241   3.705   0.717  13.851 -0.0096  0.5446 -0.2867
 8917TIP3    H148242   3.732   0.773  13.779  2.5349  0.1648  0.2792
 8917TIP3    H248243   3.758   0.746  13.925 -0.5064 -0.9297  0.6875
 8918TIP3   OH248244   3.425   3.755   2.290 -0.2335  0.0099  0.5187
 8918TIP3    H148245   3.471   3.799   2.218 -2.1840 -0.5950 -1.1971
 8918TIP3    H248246   3.486   3.687   2.318  0.3896 -0.0776 -0.9305
 8919TIP3   OH248247   4.948   5.899  15.052 -0.1110  0.3796 -0.6877
 8919TIP3    H148248   4.971   5.842  15.125  2.6563  0.9705 -1.0128
 8919TIP3    H248249   4.853   5.908  15.059 -0.0402 -0.1027  2.4268
 8920TIP3   OH248250   2.991   3.071  11.604  0.1985  0.1642 -0.1836
 8920TIP3    H148251   3.080   3.051  11.632  0.8708  1.3560 -1.3706
 8920TIP3    H248252   2.990   3.050  11.511 -1.1255 -0.9095  0.0344
 8921TIP3   OH248253   6.082   4.784  15.659  0.6862  0.2863  0.1015
 8921TIP3    H148254   6.007   4.791  15.718  0.5018 -2.7541  0.4027
 8921TIP3    H248255   6.085   4.691  15.635  2.5620  0.8554 -2.3246
 8922TIP3   OH248256   1.721   1.482   3.526 -0.5153 -0.1584  0.0215
 8922TIP3    H148257   1.705   1.506   3.617 -0.9392  0.3206 -0.1748
 8922TIP3    H248258   1.782   1.548   3.494 -1.1522  0.2667 -0.3270
 8923TIP3   OH248259   4.846   4.011   4.040  0.0692 -0.3322 -0.2743
 8923TIP3    H148260   4.850   4.051   4.127  0.5864  1.3270 -1.0244
 8923TIP3    H248261   4.754   3.989   4.028  0.0502 -0.9685  0.8358
 8924TIP3   OH248262   1.796   2.815  11.277 -0.1678 -0.1851  0.2126
 8924TIP3    H148263   1.723   2.878  11.276  1.0601  1.3310  1.0622
 8924TIP3    H248264   1.824   2.810  11.186 -0.5298  0.1912  0.0753
 8925TIP3   OH248265   4.840   3.553  15.805 -0.8582 -0.2646 -0.4236
 8925TIP3    H148266   4.868   3.517  15.888 -1.5752 -0.0250 -0.0682
 8925TIP3    H248267   4.875   3.493  15.739 -1.4117 -1.2005  0.1143
 8926TIP3   OH248268   4.873   1.651   2.940 -0.3338  0.1736 -0.3205
 8926TIP3    H148269   4.869   1.555   2.947  0.7761 -0.0249 -1.8556
 8926TIP3    H248270   4.788   1.680   2.973 -0.8078 -1.3580 -0.0750
 8927TIP3   OH248271   4.837   6.767   0.560  0.2172 -0.5610 -0.1161
 8927TIP3    H148272   4.895   6.694   0.543  1.2542  0.5203 -1.4518
 8927TIP3    H248273   4.869   6.804   0.643  0.8625 -0.5178 -0.3786
 8928TIP3   OH248274   2.765   6.465   2.307 -0.0115  0.2938  0.0279
 8928TIP3    H148275   2.680   6.509   2.294  0.4283  0.6192 -2.1538
 8928TIP3    H248276   2.758   6.384   2.256  1.1946  0.6344 -0.7169
 8929TIP3   OH248277   1.796   5.621   4.192 -0.0381 -0.4076  0.2508
 8929TIP3    H148278   1.761   5.546   4.144 -1.2481  0.0176  0.4352
 8929TIP3    H248279   1.831   5.679   4.124 -0.5618 -0.4103 -0.0309
 8930TIP3   OH248280   1.807   5.312  11.901  0.2172  0.2927  0.0014
 8930TIP3    H148281   1.782   5.355  11.819 -0.4523  0.6131  0.3663
 8930TIP3    H248282   1.794   5.219  11.885  2.2494  0.1161 -1.0007
 8931TIP3   OH248283   2.878   2.050   5.714  0.8697 -0.0333  0.1003
 8931TIP3    H148284   2.875   1.957   5.694  0.0524 -0.2093  0.9810
 8931TIP3    H248285   2.882   2.054   5.809 -0.4583  0.8454  0.1363
 8932TIP3   OH248286   0.739   2.853  15.710  0.3870  0.1979 -0.5510
 8932TIP3    H148287   0.834   2.863  15.724  0.3310  0.1049 -0.0961
 8932TIP3    H248288   0.727   2.871  15.616  0.9953 -0.8224 -0.8364
 8933TIP3   OH248289   0.680   5.816   3.324  0.3957 -0.4205  0.3564
 8933TIP3    H148290   0.699   5.729   3.359 -0.7480 -1.3267 -1.1348
 8933TIP3    H248291   0.720   5.816   3.237  0.6536  0.6793  0.4611
 8934TIP3   OH248292   1.718   0.717  12.099 -0.2228  0.0219 -0.2385
 8934TIP3    H148293   1.740   0.797  12.051  6.2858 -0.2834  1.2927
 8934TIP3    H248294   1.752   0.646  12.045 -2.2785 -1.4349  0.2526
 8935TIP3   OH248295   0.110   1.087   1.989  0.6494  0.1122 -0.4308
 8935TIP3    H148296   0.133   0.994   1.995 -1.4982 -0.3993  0.6900
 8935TIP3    H248297   0.017   1.087   1.970  0.6042  2.0603 -0.3627
 8936TIP3   OH248298   5.134   6.432  13.432  0.1802 -0.1414  0.6070
 8936TIP3    H148299   5.170   6.414  13.519 -0.4113  0.3701  0.9646
 8936TIP3    H248300   5.162   6.358  13.378  1.0670 -0.1613  1.0802
 8937TIP3   OH248301   5.423   3.983  15.588 -0.8647 -0.0025 -0.3549
 8937TIP3    H148302   5.429   4.052  15.654 -1.0650  1.0896 -1.4562
 8937TIP3    H248303   5.502   3.993  15.535 -1.4215  0.0607 -1.1745
 8938TIP3   OH248304   2.763   0.890   4.199 -0.3539 -0.3511  0.4540
 8938TIP3    H148305   2.777   0.893   4.294 -4.8682  0.3663  1.3592
 8938TIP3    H248306   2.773   0.798   4.176  0.7371 -0.5588  1.6093
 8939TIP3   OH248307   2.539   2.632  13.397 -0.1417 -0.3745  0.0734
 8939TIP3    H148308   2.627   2.640  13.435 -0.3303 -0.9024  0.6299
 8939TIP3    H248309   2.481   2.665  13.465 -0.5845 -2.4399  0.7541
 8940TIP3   OH248310   1.294   1.490   1.146 -0.5607 -0.0591  0.0855
 8940TIP3    H148311   1.238   1.510   1.221  0.3194  0.8431  0.5186
 8940TIP3    H248312   1.338   1.572   1.125  1.9938 -1.1151  0.9404
 8941TIP3   OH248313   2.376   0.365   0.390 -0.1100 -0.5664  0.2652
 8941TIP3    H148314   2.447   0.312   0.354  1.1632  1.0671  0.2757
 8941TIP3    H248315   2.312   0.373   0.319  0.9695  0.1355 -0.6448
 8942TIP3   OH248316   1.241   1.612  10.613  0.2682 -0.2478 -0.1340
 8942TIP3    H148317   1.168   1.662  10.649 -0.1904  0.2408 -1.6537
 8942TIP3    H248318   1.304   1.607  10.684 -0.1927  1.4676  0.4495
 8943TIP3   OH248319   1.707   4.699  11.113 -0.0248  0.0467 -0.1235
 8943TIP3    H148320   1.636   4.751  11.076 -0.5308 -0.5869 -0.0636
 8943TIP3    H248321   1.750   4.659  11.037 -2.9326 -3.7119 -0.0654
 8944TIP3   OH248322   4.354   4.561  15.679  0.4070  0.1685  1.1477
 8944TIP3    H148323   4.288   4.592  15.618 -0.1854 -1.4764  0.9016
 8944TIP3    H248324   4.424   4.626  15.674 -1.5037  2.4541  2.0702
 8945TIP3   OH248325   1.198   5.067   2.056 -0.5221  0.3143  0.1059
 8945TIP3    H148326   1.206   5.151   2.013  1.2132 -0.2677 -0.8061
 8945TIP3    H248327   1.113   5.033   2.027 -0.5291  1.0553 -0.7880
 8946TIP3   OH248328   4.274   4.413  16.379  0.0038  0.3665  0.3729
 8946TIP3    H148329   4.344   4.392  16.441 -0.5251 -1.0598  0.5415
 8946TIP3    H248330   4.310   4.482  16.324  1.9761 -1.0225 -0.2161
 8947TIP3   OH248331   0.524   5.520   5.517 -0.5075 -0.3747 -0.1068
 8947TIP3    H148332   0.432   5.503   5.537 -0.5314  0.4349  0.5079
 8947TIP3    H248333   0.522   5.581   5.444 -0.4848  0.3583  0.4893
 8948TIP3   OH248334   5.920   6.177  11.482  0.2163 -0.2169 -0.0177
 8948TIP3    H148335   5.834   6.146  11.511  0.4872 -0.5530  0.4474
 8948TIP3    H248336   5.959   6.216  11.560  0.9604 -1.1313  0.0766
 8949TIP3   OH248337   3.925   2.409   2.881 -0.0865 -0.4838  0.3393
 8949TIP3    H148338   3.960   2.497   2.889  0.2981 -0.7934  2.5487
 8949TIP3    H248339   3.999   2.357   2.848  0.5251 -0.4544  1.5913
 8950TIP3   OH248340   1.674   4.384   6.456 -0.2221 -0.4049  0.1154
 8950TIP3    H148341   1.725   4.459   6.425 -1.2307  0.5167  0.6575
 8950TIP3    H248342   1.722   4.353   6.533 -1.4499  1.6490  1.7886
 8951TIP3   OH248343   0.469   6.452   5.958 -0.0794  0.2262 -0.0929
 8951TIP3    H148344   0.430   6.429   6.042  1.3298  0.2402  0.5909
 8951TIP3    H248345   0.474   6.369   5.910 -0.0306  0.0673  0.1905
 8952TIP3   OH248346   3.662   0.864  12.327  0.3359 -0.4379 -0.2676
 8952TIP3    H148347   3.610   0.784  12.326  0.2247 -0.4128  1.3554
 8952TIP3    H248348   3.677   0.883  12.234  0.3929 -2.3278 -0.6878
 8953TIP3   OH248349   4.448   3.979   5.924  0.3989  0.3183 -0.0496
 8953TIP3    H148350   4.364   3.936   5.934  0.1651  0.7647 -0.0803
 8953TIP3    H248351   4.474   4.004   6.013  1.2225 -1.1599  0.1573
 8954TIP3   OH248352   0.416   1.202   5.283 -0.0045  0.2253 -0.2615
 8954TIP3    H148353   0.368   1.149   5.347 -0.6466 -0.1042 -0.9991
 8954TIP3    H248354   0.361   1.279   5.271 -0.6357 -0.3905 -1.4923
 8955TIP3   OH248355   1.975   1.064  11.808  0.4165 -0.1602  0.2397
 8955TIP3    H148356   2.001   1.049  11.717 -1.5951  0.3196 -0.4736
 8955TIP3    H248357   1.965   1.159  11.815 -0.1576 -0.2529  0.7520
 8956TIP3   OH248358   2.221   2.995   3.832  0.5033 -0.1714 -0.1686
 8956TIP3    H148359   2.200   3.016   3.923 -0.8123 -1.8101 -0.0549
 8956TIP3    H248360   2.137   2.983   3.789  1.0922  0.8303 -1.7059
 8957TIP3   OH248361   1.512   2.569   3.356 -0.1201 -0.6053  0.3374
 8957TIP3    H148362   1.438   2.531   3.310  0.3127 -1.4508  0.3250
 8957TIP3    H248363   1.563   2.614   3.288  0.5719 -1.9331 -0.0563
 8958TIP3   OH248364   3.931   0.717   3.165 -0.0856 -0.2163 -0.0983
 8958TIP3    H148365   4.013   0.724   3.214  0.0797  0.1267 -0.4218
 8958TIP3    H248366   3.954   0.665   3.087 -0.5855 -1.6882  0.7061
 8959TIP3   OH248367   3.649   5.888  13.365  0.0676  0.0041  0.3933
 8959TIP3    H148368   3.584   5.822  13.339  1.3741 -0.9126 -0.7038
 8959TIP3    H248369   3.613   5.971  13.334 -0.8752 -0.4043  0.3700
 8960TIP3   OH248370   4.982   5.173   4.249  0.2194  0.1048 -0.7913
 8960TIP3    H148371   5.065   5.190   4.204  0.2102 -2.1200 -1.7766
 8960TIP3    H248372   4.996   5.204   4.338  2.1781 -0.3229 -0.9073
 8961TIP3   OH248373   0.318   3.128   2.286  0.1473  0.4353  0.2528
 8961TIP3    H148374   0.272   3.148   2.367  1.4935  2.2878  0.6290
 8961TIP3    H248375   0.401   3.089   2.313 -0.2233 -0.8079 -0.3295
 8962TIP3   OH248376   2.504   3.447   2.689 -0.1171  0.4770  0.1343
 8962TIP3    H148377   2.581   3.502   2.671  0.1418 -0.8448 -3.5641
 8962TIP3    H248378   2.541   3.360   2.705 -0.7052 -0.6170 -3.5855
 8963TIP3   OH248379   0.825   1.108  11.205  0.1216  0.4302  0.2390
 8963TIP3    H148380   0.830   1.031  11.148  2.8790  0.5735  0.1661
 8963TIP3    H248381   0.839   1.182  11.145 -0.1249  0.8152  0.6544
 8964TIP3   OH248382   6.083   0.936  16.216  0.2106 -0.2682 -0.6703
 8964TIP3    H148383   6.080   1.023  16.254  1.5184 -0.0649 -1.0106
 8964TIP3    H248384   6.155   0.892  16.262 -1.9489 -2.0407  1.2701
 8965TIP3   OH248385   1.618   0.816  14.579  0.7983  0.4451  0.2065
 8965TIP3    H148386   1.561   0.801  14.654  0.8054  1.2858  0.3882
 8965TIP3    H248387   1.658   0.730  14.561  0.7405  0.2239  1.1059
 8966TIP3   OH248388   3.657   5.997  14.456  0.0330 -0.4212 -0.2203
 8966TIP3    H148389   3.605   5.927  14.496  0.5329 -0.3551  0.5652
 8966TIP3    H248390   3.680   6.054  14.529  0.9028 -0.2566 -0.6136
 8967TIP3   OH248391   3.028   1.143  15.331 -0.6660 -0.1657 -0.3155
 8967TIP3    H148392   3.067   1.143  15.244 -1.4471  0.6904 -0.6835
 8967TIP3    H248393   3.098   1.111  15.388  0.4050  0.7802 -1.0331
 8968TIP3   OH248394   4.062   4.745  11.025 -0.2076  0.3052  0.2023
 8968TIP3    H148395   4.154   4.769  11.015 -0.2162 -0.0230 -0.8418
 8968TIP3    H248396   4.043   4.693  10.947 -0.6446 -1.6020  1.5103
 8969TIP3   OH248397   5.749   1.967   1.021 -0.0841 -0.1670  0.0241
 8969TIP3    H148398   5.714   1.894   1.072  0.0077  0.0514  0.4000
 8969TIP3    H248399   5.807   1.925   0.957  0.5825 -0.3657  0.7474
 8970TIP3   OH248400   5.325   1.792  15.988 -0.5913 -0.5653 -0.0514
 8970TIP3    H148401   5.297   1.716  15.937  0.8345 -1.6834  0.7829
 8970TIP3    H248402   5.419   1.782  15.998 -0.5125  0.7922  0.9344
 8971TIP3   OH248403   2.308   0.894   2.403  0.7012 -0.1836 -0.1988
 8971TIP3    H148404   2.244   0.840   2.449 -0.4154  2.3373  1.4326
 8971TIP3    H248405   2.265   0.918   2.321  0.6973 -0.7158 -0.3562
 8972TIP3   OH248406   3.353   0.534   2.706  0.2816 -0.1571  0.4917
 8972TIP3    H148407   3.317   0.458   2.661  1.0142 -0.9961  1.2772
 8972TIP3    H248408   3.337   0.516   2.799 -1.7794  1.8263  0.6055
 8973TIP3   OH248409   4.351   4.896   1.178 -0.1445  0.5682 -0.4705
 8973TIP3    H148410   4.336   4.907   1.272 -1.0016 -3.1585 -0.0381
 8973TIP3    H248411   4.437   4.936   1.163  1.0943 -0.7454  2.3826
 8974TIP3   OH248412   4.580   4.735  15.117 -0.2632  0.2568  0.3516
 8974TIP3    H148413   4.530   4.688  15.051  1.2075 -1.8907  0.6799
 8974TIP3    H248414   4.669   4.699  15.111  0.6009  2.0126  1.6035
 8975TIP3   OH248415   0.107   4.780   6.542 -0.6148  0.5403  0.7206
 8975TIP3    H148416   0.018   4.811   6.560 -0.2737  0.8081  2.0333
 8975TIP3    H248417   0.107   4.689   6.569 -0.7432  0.2679 -0.1735
 8976TIP3   OH248418   0.475   4.753   1.975 -0.8468 -0.3354 -0.3573
 8976TIP3    H148419   0.526   4.710   2.044 -3.6477 -0.7240  1.6764
 8976TIP3    H248420   0.478   4.691   1.902  0.6622 -0.8080  0.0592
 8977TIP3   OH248421   3.664   5.518  13.282  0.2614 -0.3392  0.1357
 8977TIP3    H148422   3.750   5.512  13.239  0.2020  2.2679 -0.4799
 8977TIP3    H248423   3.625   5.598  13.247 -2.8829 -1.9331 -0.3314
 8978TIP3   OH248424   1.373   2.803   5.940  0.4436 -0.5667 -1.0121
 8978TIP3    H148425   1.318   2.754   6.001  1.2264  0.1041  0.2736
 8978TIP3    H248426   1.463   2.781   5.965  1.0046  3.4766  1.5370
 8979TIP3   OH248427   0.582   2.709   3.692  0.9173 -0.3498  0.0499
 8979TIP3    H148428   0.622   2.656   3.623 -0.8906 -1.8058  0.0311
 8979TIP3    H248429   0.566   2.648   3.763 -0.3466  0.3663  0.4156
 8980TIP3   OH248430   0.611   4.270  14.103  0.0531  0.3666 -0.3905
 8980TIP3    H148431   0.598   4.357  14.140 -0.5433 -0.0080  0.3108
 8980TIP3    H248432   0.642   4.286  14.014 -2.1203  1.3602 -1.0603
 8981TIP3   OH248433   5.177   6.218  16.776 -0.1654  0.7197  0.1356
 8981TIP3    H148434   5.267   6.220  16.807 -0.2952 -1.6038  0.8631
 8981TIP3    H248435   5.127   6.264  16.843  0.3218  0.9463  0.3467
 8982TIP3   OH248436   4.481   3.375  14.274 -0.0222 -0.4798 -0.1326
 8982TIP3    H148437   4.529   3.310  14.326  1.3613 -1.5807 -2.5615
 8982TIP3    H248438   4.429   3.424  14.337  0.2668 -2.7775  2.0450
 8983TIP3   OH248439   0.062   0.728  13.721  0.2330 -0.2843 -0.7118
 8983TIP3    H148440  -0.018   0.684  13.749  0.7451 -0.6374  0.2386
 8983TIP3    H248441   0.130   0.662  13.732  0.6763  0.0522 -1.3903
 8984TIP3   OH248442   5.653   6.234  11.379  0.5412  0.4364 -0.0386
 8984TIP3    H148443   5.665   6.297  11.450 -0.0783  0.2130  0.2769
 8984TIP3    H248444   5.702   6.270  11.305  0.7459  0.9435  0.3399
 8985TIP3   OH248445   4.679   3.754   3.562  0.1855 -0.0851  0.1825
 8985TIP3    H148446   4.756   3.798   3.525 -0.3024 -0.4562 -1.3537
 8985TIP3    H248447   4.697   3.660   3.550 -0.3015 -0.1868  0.2075
 8986TIP3   OH248448   1.792   0.637   5.378  0.5879  0.5465 -0.2737
 8986TIP3    H148449   1.746   0.657   5.296  0.5767  2.0055  0.0691
 8986TIP3    H248450   1.885   0.638   5.354  0.5501 -0.5759 -0.5689
 8987TIP3   OH248451   1.008   5.376   6.068  0.1735  0.0231  0.1928
 8987TIP3    H148452   0.988   5.379   5.974 -0.3880  0.1873  0.3158
 8987TIP3    H248453   1.097   5.343   6.072  0.0651 -0.3566 -0.3862
 8988TIP3   OH248454   3.071   3.062  16.974  0.4977  0.3867  0.4557
 8988TIP3    H148455   3.149   3.115  16.990 -0.0268  1.9322 -1.6463
 8988TIP3    H248456   3.084   3.027  16.886 -1.0870  0.5370  0.1377
 8989TIP3   OH248457   0.666   1.315  14.905 -0.0040  0.1710 -0.4947
 8989TIP3    H148458   0.651   1.347  14.994 -1.7995 -1.0228 -0.3160
 8989TIP3    H248459   0.658   1.220  14.912  0.6986 -0.0100 -1.7898
 8990TIP3   OH248460   4.902   5.751  14.746 -0.5632 -0.1969  0.1518
 8990TIP3    H148461   4.961   5.723  14.816 -1.4656 -3.1790 -0.1360
 8990TIP3    H248462   4.831   5.797  14.792  0.2597  0.3968  0.8563
 8991TIP3   OH248463   0.978   3.411  12.112  0.3602  0.2093 -0.3104
 8991TIP3    H148464   0.900   3.459  12.084  0.1768  0.7847  1.1060
 8991TIP3    H248465   1.051   3.470  12.093  0.1428  1.0547  1.3363
 8992TIP3   OH248466   6.197   5.041  12.654 -0.1814  0.2757  0.5761
 8992TIP3    H148467   6.152   5.124  12.667  2.2210  1.4850  1.6793
 8992TIP3    H248468   6.185   4.994  12.737 -1.4077 -0.4719  0.0081
 8993TIP3   OH248469   2.895   1.152  16.691 -0.2525 -0.2445  0.0943
 8993TIP3    H148470   2.836   1.126  16.762  2.7784 -0.4166  2.7710
 8993TIP3    H248471   2.860   1.108  16.613 -2.6892 -1.5784  1.8120
 8994TIP3   OH248472   4.160   6.529  12.448 -0.1074  0.3854  0.2474
 8994TIP3    H148473   4.227   6.576  12.498 -0.0410  0.0405  0.4823
 8994TIP3    H248474   4.208   6.490  12.375  0.2731 -1.3256  1.3676
 8995TIP3   OH248475   1.806   2.272  11.767 -0.0015  0.0753 -0.0664
 8995TIP3    H148476   1.779   2.325  11.692 -0.0169 -0.5842 -0.5410
 8995TIP3    H248477   1.897   2.297  11.782  0.3884 -0.6304 -1.0785
 8996TIP3   OH248478   1.291   4.273  13.673 -0.4441 -0.3988  0.1209
 8996TIP3    H148479   1.291   4.182  13.702 -0.7575 -0.1850  0.7957
 8996TIP3    H248480   1.333   4.321  13.744 -1.9394  0.2364  0.6148
 8997TIP3   OH248481   5.513   3.645  13.977  0.2635 -0.0602  0.6109
 8997TIP3    H148482   5.543   3.603  13.897  0.3878  4.1929 -1.8563
 8997TIP3    H248483   5.588   3.697  14.007 -0.9627  1.4912  1.1566
 8998TIP3   OH248484   1.933   1.242  12.257  0.2991  0.2557 -0.3882
 8998TIP3    H148485   1.865   1.291  12.209  0.2285  0.5942  0.0496
 8998TIP3    H248486   1.993   1.213  12.189 -0.1204  0.2153 -0.7507
 8999TIP3   OH248487   6.274   1.311  12.371 -0.3250  0.0988  0.5969
 8999TIP3    H148488   6.343   1.274  12.427  0.3114  0.4073  0.0216
 8999TIP3    H248489   6.321   1.356  12.301 -1.1127  0.7454  0.4762
 9000TIP3   OH248490   1.073   0.463  13.278  0.3002 -0.0190 -0.0038
 9000TIP3    H148491   1.077   0.405  13.354  4.2282 -0.5411 -0.4149
 9000TIP3    H248492   1.077   0.552  13.315 -1.9642 -0.0504  0.4599
 9001TIP3   OH248493   1.063   3.872  15.479 -0.1300  0.4025  0.3912
 9001TIP3    H148494   1.038   3.916  15.561 -0.1415  0.5155  0.3270
 9001TIP3    H248495   1.041   3.780  15.494  0.6755  0.2772  0.8387
 9002TIP3   OH248496   4.829   4.455   3.075 -0.4702 -0.6301 -0.4779
 9002TIP3    H148497   4.880   4.454   3.156 -0.4577  2.7697 -0.2790
 9002TIP3    H248498   4.740   4.476   3.102 -0.6409 -0.3234 -1.2376
 9003TIP3   OH248499   1.800   4.169  14.109 -0.2494  0.1568 -0.1465
 9003TIP3    H148500   1.807   4.122  14.192  0.0682 -0.6046 -0.5887
 9003TIP3    H248501   1.707   4.161  14.085 -0.6840  1.7301  0.8858
 9004TIP3   OH248502   6.751   2.640  12.289 -0.4011 -0.3016  0.2644
 9004TIP3    H148503   6.707   2.556  12.271 -2.0587  0.5670  0.1086
 9004TIP3    H248504   6.723   2.697  12.218  1.9025  0.0022 -0.4699
 9005TIP3   OH248505   3.627   0.139  10.776 -1.0601 -0.0070 -0.7105
 9005TIP3    H148506   3.560   0.119  10.842 -0.2750 -1.1537 -0.2162
 9005TIP3    H248507   3.676   0.212  10.813 -0.5578 -0.7129  0.0488
 9006TIP3   OH248508   0.701   6.620   0.941 -0.6688  0.0399 -0.1440
 9006TIP3    H148509   0.788   6.583   0.953 -1.1250 -0.8947  0.4907
 9006TIP3    H248510   0.649   6.547   0.905 -1.4785  0.1884  0.6791
 9007TIP3   OH248511   3.307   3.226  13.823  0.0942 -0.0259  0.4416
 9007TIP3    H148512   3.397   3.209  13.795  0.8920 -0.4593  3.0205
 9007TIP3    H248513   3.268   3.140  13.833 -0.7085  0.1617 -0.7565
 9008TIP3   OH248514   4.944   4.765   5.071  0.3861 -0.4447 -0.6017
 9008TIP3    H148515   4.941   4.859   5.052 -0.9745 -0.6231 -1.4012
 9008TIP3    H248516   5.031   4.751   5.108  0.1685  1.3501  0.7600
 9009TIP3   OH248517   2.027   2.569   1.489 -0.7055  0.3479  0.4569
 9009TIP3    H148518   2.037   2.646   1.545 -1.0978 -0.0156  1.0347
 9009TIP3    H248519   2.016   2.605   1.401  2.2760  0.8903  0.1985
 9010TIP3   OH248520   3.124   2.820   5.437  0.1637  0.1531 -0.1255
 9010TIP3    H148521   3.062   2.751   5.412 -2.6219  2.1940  0.6376
 9010TIP3    H248522   3.140   2.867   5.355  0.7560 -0.3790 -0.3253
 9011TIP3   OH248523   5.452   2.411  16.976 -0.1518  0.1429 -0.0610
 9011TIP3    H148524   5.442   2.495  17.021  0.8901  0.5466 -0.5475
 9011TIP3    H248525   5.543   2.412  16.944 -0.5551 -0.5524 -1.2951
 9012TIP3   OH248526   2.550   1.707   5.783 -0.0487  0.0631  0.8084
 9012TIP3    H148527   2.607   1.682   5.710  0.2866  0.3090  0.9828
 9012TIP3    H248528   2.573   1.646   5.853  1.3595  1.3414  1.5126
 9013TIP3   OH248529   1.222   1.179  14.804 -0.2239 -0.3209  0.2058
 9013TIP3    H148530   1.271   1.122  14.863 -0.0148  1.0757  1.4412
 9013TIP3    H248531   1.140   1.131  14.787  1.1976 -2.3906 -1.3839
 9014TIP3   OH248532   4.964   5.613   0.904 -0.2695  0.8196  0.2839
 9014TIP3    H148533   5.009   5.544   0.953  0.4264 -0.1131 -1.5910
 9014TIP3    H248534   4.871   5.597   0.922 -0.0661  0.1178  0.7800
 9015TIP3   OH248535   0.403   0.540   2.769 -0.6621 -0.4960 -0.2811
 9015TIP3    H148536   0.393   0.445   2.772  2.1519 -0.8812 -0.6188
 9015TIP3    H248537   0.393   0.568   2.860  2.2489 -1.6651  0.5091
 9016TIP3   OH248538   5.514   0.205  15.091  0.3711  0.2797  0.3335
 9016TIP3    H148539   5.528   0.227  14.999  0.2939 -0.7271  0.0742
 9016TIP3    H248540   5.602   0.190  15.126  0.3677  0.2157  0.3140
 9017TIP3   OH248541   5.981   6.261  14.746 -0.1190 -0.3326  0.2303
 9017TIP3    H148542   5.903   6.303  14.783 -0.7589 -0.9566 -0.3745
 9017TIP3    H248543   5.947   6.188  14.695  0.6712  0.7732 -2.0473
 9018TIP3   OH248544   1.904   1.684   3.471 -0.0896  0.2161 -0.4653
 9018TIP3    H148545   1.870   1.707   3.384 -1.1871 -1.3970 -0.4899
 9018TIP3    H248546   1.952   1.762   3.498  0.9869  0.4840 -2.8591
 9019TIP3   OH248547   3.194   1.926   1.622 -0.1754  0.3204  0.4250
 9019TIP3    H148548   3.159   1.958   1.539  0.0976 -1.1243 -0.2625
 9019TIP3    H248549   3.270   1.874   1.598 -2.1531 -3.2519  1.1811
 9020TIP3   OH248550   2.189   3.864   3.280  0.5068  0.1558 -0.3570
 9020TIP3    H148551   2.213   3.835   3.368 -1.0696 -0.4862 -0.1149
 9020TIP3    H248552   2.161   3.785   3.235 -2.7347  0.9925 -0.0666
 9021TIP3   OH248553   3.730   4.830  14.159  0.1897  0.7539  0.0939
 9021TIP3    H148554   3.640   4.825  14.127 -1.0915 -1.0719  3.4476
 9021TIP3    H248555   3.727   4.891  14.232  1.6611  0.4987  0.4121
 9022TIP3   OH248556   5.601   0.832  14.159  0.5914  0.3453  0.2772
 9022TIP3    H148557   5.681   0.839  14.108 -0.1037  0.7562 -0.7894
 9022TIP3    H248558   5.607   0.901  14.225  2.0578 -0.9717  1.6006
 9023TIP3   OH248559   4.703   3.055  12.142 -0.3168 -0.0029  0.8779
 9023TIP3    H148560   4.786   3.074  12.185  1.3512  0.3978 -2.2326
 9023TIP3    H248561   4.649   3.132  12.160  0.3893  0.2519  2.0081
 9024TIP3   OH248562   6.791   2.260  13.852  0.5926 -0.0757  0.0354
 9024TIP3    H148563   6.769   2.323  13.784  2.5358  0.6930  0.0460
 9024TIP3    H248564   6.825   2.184  13.804  2.0120  0.4868  0.1119
 9025TIP3   OH248565   1.802   5.542   3.172 -0.0536 -0.3352 -0.0056
 9025TIP3    H148566   1.872   5.480   3.193  0.5676 -0.1132 -1.2957
 9025TIP3    H248567   1.847   5.614   3.128 -1.0297  0.0696 -0.3623
 9026TIP3   OH248568   4.212   0.156   5.913  0.0961  0.5510  0.4863
 9026TIP3    H148569   4.136   0.175   5.969 -1.4773  1.7222 -1.8359
 9026TIP3    H248570   4.228   0.239   5.867  1.9109 -0.0900 -0.1169
 9027TIP3   OH248571   4.609   6.437   4.527 -0.7258 -0.6788  0.3502
 9027TIP3    H148572   4.563   6.373   4.474 -3.0845 -0.3600  1.8587
 9027TIP3    H248573   4.610   6.399   4.615  0.0866  0.2562  0.7645
 9028TIP3   OH248574   5.604   2.984  13.120  0.1810 -0.2978  0.1022
 9028TIP3    H148575   5.665   3.025  13.182  0.0250  1.2743 -0.7173
 9028TIP3    H248576   5.522   2.975  13.168 -0.3175  2.0913 -0.1791
 9029TIP3   OH248577   0.132   2.012  15.548 -0.1651  0.0188  0.3117
 9029TIP3    H148578   0.037   2.003  15.550 -0.0531 -1.3892  2.1752
 9029TIP3    H248579   0.158   2.015  15.641  1.6278 -0.0204 -0.1500
 9030TIP3   OH248580   1.617   2.596  16.194  0.3482  0.2646  0.1310
 9030TIP3    H148581   1.684   2.596  16.263 -1.8106  3.2799  2.4699
 9030TIP3    H248582   1.553   2.531  16.223  1.0330 -0.9460 -0.9295
 9031TIP3   OH248583   2.031   0.108   4.203  0.0079  0.0721 -0.2311
 9031TIP3    H148584   1.969   0.036   4.202 -0.3830  0.3954  0.2212
 9031TIP3    H248585   2.003   0.163   4.277  0.1435  0.8207 -0.7275
 9032TIP3   OH248586   0.247   2.627   0.284  0.4194  0.0712 -0.2949
 9032TIP3    H148587   0.315   2.662   0.226 -0.9746  0.8076 -1.5564
 9032TIP3    H248588   0.191   2.574   0.227  0.5836 -1.5123  0.9519
 9033TIP3   OH248589   4.157   4.911   5.671  0.4393  0.1363 -0.8531
 9033TIP3    H148590   4.104   4.848   5.622 -1.9018  0.0292  1.5942
 9033TIP3    H248591   4.178   4.867   5.753 -1.3041  2.4304  0.9464
 9034TIP3   OH248592   6.270   2.237  17.121 -0.3444  0.4571  0.2899
 9034TIP3    H148593   6.210   2.297  17.165  0.4388  0.8033  0.8898
 9034TIP3    H248594   6.258   2.256  17.027 -1.9739 -0.2489  0.3195
 9035TIP3   OH248595   3.444   3.060   2.638  0.0155  0.1810  0.2649
 9035TIP3    H148596   3.515   3.123   2.625 -0.6481  0.6690 -1.2606
 9035TIP3    H248597   3.374   3.091   2.580 -1.0078 -0.9425  0.8555
 9036TIP3   OH248598   2.571   3.709   5.411 -0.2664 -0.0610 -0.0066
 9036TIP3    H148599   2.510   3.661   5.357  0.0986 -1.5084  0.8137
 9036TIP3    H248600   2.516   3.758   5.473 -0.6256 -1.0534  0.4784
 9037TIP3   OH248601   1.712   0.086  16.930  0.4641 -0.0613  0.0448
 9037TIP3    H148602   1.639   0.126  16.883 -0.2302 -0.7427  0.5081
 9037TIP3    H248603   1.754   0.030  16.864 -0.0414 -0.4320  0.0318
 9038TIP3   OH248604   4.268   3.463   4.366 -0.2729 -0.4963  0.7152
 9038TIP3    H148605   4.218   3.392   4.407  0.3600 -1.2485  0.1982
 9038TIP3    H248606   4.356   3.456   4.404 -0.4455  0.6346  1.3963
 9039TIP3   OH248607   2.532   0.971  16.245  0.0458 -0.0189 -0.6417
 9039TIP3    H148608   2.471   1.038  16.215 -0.5909 -0.1575  0.2952
 9039TIP3    H248609   2.617   1.015  16.244 -0.3355  0.7653 -0.2079
 9040TIP3   OH248610   1.180   2.495   0.765  0.5729  0.4781  0.1487
 9040TIP3    H148611   1.148   2.484   0.854 -0.5155 -1.2635 -0.3947
 9040TIP3    H248612   1.111   2.456   0.710  2.1471 -0.3579 -1.3129
 9041TIP3   OH248613   0.123   4.626   5.957  0.6274  0.8473  0.7868
 9041TIP3    H148614   0.132   4.691   5.887  0.7778  1.3751  1.2868
 9041TIP3    H248615   0.210   4.587   5.965  0.9462  1.6679  1.5119
 9042TIP3   OH248616   3.061   6.602  14.676  0.2627 -0.3763 -0.1464
 9042TIP3    H148617   3.084   6.635  14.589  2.6034 -2.7676 -0.5839
 9042TIP3    H248618   3.116   6.652  14.737 -1.8396  1.7475  0.1341
 9043TIP3   OH248619   4.986   2.795   2.952  0.1375  0.1876 -0.2041
 9043TIP3    H148620   5.054   2.843   2.904  1.1764 -0.7543  0.2696
 9043TIP3    H248621   5.015   2.797   3.043 -0.5524 -0.1123  0.0279
 9044TIP3   OH248622   1.913   4.823  10.394  0.2494 -0.1526 -0.2554
 9044TIP3    H148623   1.830   4.825  10.346  0.4122 -1.2013 -0.5943
 9044TIP3    H248624   1.923   4.912  10.428 -1.3185 -0.1632  0.3042
 9045TIP3   OH248625   6.424   4.309   4.794 -0.4508 -0.0406 -0.1982
 9045TIP3    H148626   6.393   4.219   4.793  0.7579 -0.4729 -0.3771
 9045TIP3    H248627   6.468   4.320   4.709  1.2040  0.0569  0.6438
 9046TIP3   OH248628   2.061   6.328  12.452  0.1687 -0.5259  0.2590
 9046TIP3    H148629   1.991   6.271  12.420  0.1427 -0.5540  0.3652
 9046TIP3    H248630   2.029   6.360  12.537 -0.1742  0.2849 -0.1720
 9047TIP3   OH248631   1.622   6.467  12.017  0.5603  0.2741 -0.1403
 9047TIP3    H148632   1.631   6.538  12.081 -3.5213 -0.4705  1.5970
 9047TIP3    H248633   1.597   6.510  11.936 -1.7448  0.9627  0.8633
 9048TIP3   OH248634   0.486   4.247   4.255 -0.2437 -0.3007  0.5862
 9048TIP3    H148635   0.561   4.225   4.199 -1.8066 -0.6000 -1.4966
 9048TIP3    H248636   0.488   4.181   4.324  1.6864  0.0007  0.8901
 9049TIP3   OH248637   4.742   6.808   1.883 -0.2180  0.1425 -0.4749
 9049TIP3    H148638   4.648   6.803   1.868 -0.3872 -1.3104  0.8621
 9049TIP3    H248639   4.760   6.742   1.949  1.5122  1.4708  0.4815
 9050TIP3   OH248640   3.208   4.487   1.658 -0.3016  0.3666  0.1519
 9050TIP3    H148641   3.222   4.498   1.752  0.1782  1.3703 -0.0257
 9050TIP3    H248642   3.269   4.417   1.634 -0.0184  0.4929  0.4851
 9051TIP3   OH248643   2.073   1.209   5.706  0.4052 -0.1736 -0.2440
 9051TIP3    H148644   2.037   1.185   5.791  0.9028  0.4933  0.1655
 9051TIP3    H248645   2.161   1.244   5.726  0.1825  0.8239 -0.9270
 9052TIP3   OH248646   5.621   3.747  15.848 -0.2438  0.3262 -0.2229
 9052TIP3    H148647   5.545   3.796  15.880 -1.3201 -0.6640 -1.1551
 9052TIP3    H248648   5.653   3.798  15.773 -0.3141  0.4585 -0.1642
 9053TIP3   OH248649   5.165   6.508  12.662  0.0369 -0.3727  0.3159
 9053TIP3    H148650   5.095   6.495  12.726 -1.0534 -1.6066 -1.0686
 9053TIP3    H248651   5.183   6.602  12.665 -1.2890 -0.1132  1.1054
 9054TIP3   OH248652   3.843   5.290  12.410  0.4701 -0.1955 -0.4547
 9054TIP3    H148653   3.853   5.195  12.417 -1.6210 -0.4389 -0.2251
 9054TIP3    H248654   3.925   5.326  12.444  1.3084 -1.9071 -0.5848
 9055TIP3   OH248655   3.600   3.365   3.411  0.0072  0.7724 -0.2939
 9055TIP3    H148656   3.673   3.330   3.461  0.0801  3.3544  1.6015
 9055TIP3    H248657   3.522   3.333   3.456 -0.0229 -0.2310 -1.0319
 9056TIP3   OH248658   6.012   5.712  15.329  0.3986 -0.3764 -0.8115
 9056TIP3    H148659   6.007   5.770  15.404  0.6172  0.1508 -1.2007
 9056TIP3    H248660   6.079   5.647  15.353  0.0587 -0.5497 -0.3256
 9057TIP3   OH248661   6.307   1.066  11.418 -0.1946 -0.0255  0.1912
 9057TIP3    H148662   6.304   1.051  11.323 -0.3424 -1.1437  0.3600
 9057TIP3    H248663   6.393   1.031  11.444 -0.4373 -0.3444  0.5658
 9058TIP3   OH248664   5.118   2.575   1.744  0.0656 -0.1449  0.1071
 9058TIP3    H148665   5.162   2.498   1.707  1.8437  0.2632  1.2514
 9058TIP3    H248666   5.036   2.540   1.780  0.2761 -1.2750 -0.4676
 9059TIP3   OH248667   6.249   4.725  12.109 -0.5689  0.3676 -0.0720
 9059TIP3    H148668   6.319   4.774  12.067  1.4563 -2.6217 -0.4743
 9059TIP3    H248669   6.200   4.686  12.037 -2.1525  1.6720  0.2388
 9060TIP3   OH248670   3.404   4.577   4.872  0.0386  0.3525  0.4263
 9060TIP3    H148671   3.339   4.565   4.802  0.9575 -2.0080 -0.1098
 9060TIP3    H248672   3.400   4.671   4.892 -3.7183  0.3198  0.6344
 9061TIP3   OH248673   1.789   3.840   3.707  0.4227  0.3379 -0.1388
 9061TIP3    H148674   1.721   3.796   3.759 -0.5645  1.3398 -0.5481
 9061TIP3    H248675   1.808   3.778   3.637 -0.5477  0.3010 -0.3919
 9062TIP3   OH248676   6.407   0.989   4.416 -0.4055  0.0675 -0.3577
 9062TIP3    H148677   6.426   0.899   4.445 -1.3409 -0.4499 -1.2927
 9062TIP3    H248678   6.337   1.018   4.474 -0.1354  0.1861 -0.0868
 9063TIP3   OH248679   5.998   2.105   3.941  0.1786  0.2707 -0.3850
 9063TIP3    H148680   5.932   2.062   3.887  0.1794 -1.2646  0.7791
 9063TIP3    H248681   5.969   2.196   3.947 -1.5221 -0.2420 -0.3870
 9064TIP3   OH248682   6.556   4.110  11.973  0.0458 -0.0623 -0.4409
 9064TIP3    H148683   6.552   4.025  12.017 -0.4456  0.1922  0.0138
 9064TIP3    H248684   6.571   4.173  12.043 -1.3344  0.4179 -0.5388
 9065TIP3   OH248685   6.392   6.527  15.302 -0.1332  0.4769 -0.0090
 9065TIP3    H148686   6.402   6.591  15.231 -3.5671  0.8379 -0.3293
 9065TIP3    H248687   6.383   6.581  15.381 -0.1451  0.2613  0.1363
 9066TIP3   OH248688   0.060   5.193   0.475 -0.8557 -0.2670  0.8113
 9066TIP3    H148689   0.004   5.116   0.475  0.3916 -1.2233 -0.2479
 9066TIP3    H248690   0.141   5.164   0.518  0.0286  0.1092 -0.5394
 9067TIP3   OH248691   0.690   3.883  15.377 -0.4658 -0.6254  0.7487
 9067TIP3    H148692   0.634   3.829  15.432 -0.4701 -0.9379  0.4343
 9067TIP3    H248693   0.717   3.955  15.435 -2.2726  0.2858  0.5281
 9068TIP3   OH248694   2.835   5.516   0.882 -0.0718 -0.1856  0.6275
 9068TIP3    H148695   2.838   5.606   0.849 -0.9688 -0.2870  0.2249
 9068TIP3    H248696   2.784   5.468   0.817  2.2304 -1.5178 -0.3014
 9069TIP3   OH248697   2.270   0.954  15.495  0.1566  1.1491  0.3606
 9069TIP3    H148698   2.348   0.915  15.455 -0.5585  0.2963 -0.2506
 9069TIP3    H248699   2.228   1.002  15.425 -2.1217 -1.9003 -0.6008
 9070TIP3   OH248700   1.133   1.443  16.539  0.1736  0.0501  0.3965
 9070TIP3    H148701   1.112   1.407  16.453 -4.1204  0.0708  1.2426
 9070TIP3    H248702   1.188   1.376  16.580 -0.5909 -1.5734 -1.1077
 9071TIP3   OH248703   3.667   5.938   5.934  0.7504  0.3053  0.1411
 9071TIP3    H148704   3.663   5.972   6.024 -0.1192  0.8663 -0.0978
 9071TIP3    H248705   3.680   5.843   5.945  1.0826  0.4234  0.8461
 9072TIP3   OH248706   3.165   0.528   2.943 -0.9678 -0.2195  0.0275
 9072TIP3    H148707   3.180   0.616   2.978  0.4054 -0.3252 -0.2252
 9072TIP3    H248708   3.088   0.537   2.887 -0.2963  1.0537 -0.7550
 9073TIP3   OH248709   3.770   4.556  13.777 -0.2189 -0.1572 -0.5421
 9073TIP3    H148710   3.739   4.540  13.688 -1.4498 -0.9357  0.0025
 9073TIP3    H248711   3.786   4.469  13.814  0.9712  0.1777 -0.2247
 9074TIP3   OH248712   2.475   5.643   1.190  0.1029 -0.3019 -0.3913
 9074TIP3    H148713   2.538   5.629   1.120  1.3557  3.7451 -0.3329
 9074TIP3    H248714   2.408   5.700   1.151 -0.9689 -0.6275  0.8765
 9075TIP3   OH248715   0.670   3.772   6.425 -0.7370  0.4000  0.7545
 9075TIP3    H148716   0.715   3.711   6.483  0.3470  2.2220  1.9345
 9075TIP3    H248717   0.671   3.855   6.472 -2.1094  1.3713 -0.8033
 9076TIP3   OH248718   4.884   4.894   3.777 -0.0852 -0.2958  0.7066
 9076TIP3    H148719   4.837   4.975   3.793  1.8543  0.9213  0.5217
 9076TIP3    H248720   4.938   4.881   3.855  2.0511  0.4011 -0.5652
 9077TIP3   OH248721   4.188   5.772   5.568 -0.5315  0.2342  0.7013
 9077TIP3    H148722   4.246   5.847   5.558 -0.2111 -0.1085 -0.1567
 9077TIP3    H248723   4.100   5.809   5.565 -0.3731  0.5999  0.4701
 9078TIP3   OH248724   5.923   6.534  16.034 -0.1394  0.5443 -0.0034
 9078TIP3    H148725   5.914   6.442  16.058  0.0404 -0.0912 -2.1758
 9078TIP3    H248726   5.986   6.569  16.096  2.4817 -1.6833 -1.2177
 9079TIP3   OH248727   1.939   1.763   0.614 -0.3971  0.0549 -0.0512
 9079TIP3    H148728   1.905   1.713   0.540 -0.2664  1.4264 -1.0554
 9079TIP3    H248729   2.031   1.779   0.593  0.0950 -0.9327  1.1904
 9080TIP3   OH248730   2.617   3.419   1.219  0.0786  0.4090  0.4723
 9080TIP3    H148731   2.574   3.499   1.250 -0.2564  0.0512  0.9489
 9080TIP3    H248732   2.666   3.447   1.142 -0.9750  0.8466 -0.0709
 9081TIP3   OH248733   3.578   4.385   0.176  0.4933  0.7355  0.0392
 9081TIP3    H148734   3.550   4.434   0.098 -2.5027  2.0809  1.7757
 9081TIP3    H248735   3.648   4.438   0.214 -0.7032  2.2121  0.2944
 9082TIP3   OH248736   3.878   4.132   5.727 -0.2099 -0.2999  0.6109
 9082TIP3    H148737   3.866   4.084   5.644  1.6914 -0.1837  0.2151
 9082TIP3    H248738   3.825   4.211   5.717 -1.6672 -1.2585  0.3911
 9083TIP3   OH248739   5.725   0.803   0.055  0.5224 -0.4802  0.2370
 9083TIP3    H148740   5.721   0.789  -0.040 -0.7330  1.2389 -0.0188
 9083TIP3    H248741   5.778   0.730   0.088  0.9797 -1.1226 -1.7703
 9084TIP3   OH248742   2.316   2.176   3.072 -0.4036  0.3712  0.9831
 9084TIP3    H148743   2.388   2.220   3.117  0.5633 -0.6556  0.4921
 9084TIP3    H248744   2.289   2.106   3.131  2.2406 -2.3096 -0.7325
 9085TIP3   OH248745   5.956   1.820   0.877 -1.0367  0.2480 -0.1681
 9085TIP3    H148746   5.983   1.871   0.800 -1.3614  1.6757  0.6194
 9085TIP3    H248747   5.949   1.730   0.845  0.6536  0.4901 -1.3560
 9086TIP3   OH248748   0.260   5.436   2.641 -0.2981  0.0456 -0.0931
 9086TIP3    H148749   0.195   5.453   2.573 -0.2610  1.4126  0.1914
 9086TIP3    H248750   0.287   5.345   2.626  0.4516  0.6018 -2.5533
 9087TIP3   OH248751   0.732   3.987   6.882 -0.4323 -0.7047 -0.1310
 9087TIP3    H148752   0.647   3.989   6.927 -1.7272  0.0500 -2.4602
 9087TIP3    H248753   0.710   3.978   6.789  1.9698  0.9186 -0.9630
 9088TIP3   OH248754   3.994   2.398   2.215 -0.8163 -0.6666  0.0693
 9088TIP3    H148755   3.918   2.402   2.157 -0.7094  1.0062 -0.0140
 9088TIP3    H248756   4.050   2.330   2.177 -1.6032 -0.8931 -0.7143
 9089TIP3   OH248757   6.178   2.633  17.189  0.5595 -0.6706 -0.3444
 9089TIP3    H148758   6.194   2.726  17.199  0.1169 -0.7100  0.9359
 9089TIP3    H248759   6.178   2.618  17.094 -0.7625  0.8658 -0.6182
 9090TIP3   OH248760   0.220   5.102   2.060 -0.0954  0.6031  0.3747
 9090TIP3    H148761   0.204   5.139   2.147 -2.2970 -0.4051  0.4576
 9090TIP3    H248762   0.174   5.018   2.061  0.6330  0.1377 -1.4642
 9091TIP3   OH248763   0.866   6.782   3.982 -0.1530  0.1753  0.6418
 9091TIP3    H148764   0.941   6.839   3.964 -0.8463  0.4987 -1.4258
 9091TIP3    H248765   0.846   6.740   3.899 -2.1138 -0.0987  1.1886
 9092TIP3   OH248766   5.787   1.644  16.520  0.0855 -0.7072  1.1471
 9092TIP3    H148767   5.781   1.739  16.509  3.5055 -0.1624  2.5860
 9092TIP3    H248768   5.698   1.616  16.540 -0.9254  2.3058  1.3446
 9093TIP3   OH248769   1.843   0.868  12.485 -0.0012 -0.1722 -0.6735
 9093TIP3    H148770   1.915   0.870  12.422 -0.4970  0.4125 -1.2258
 9093TIP3    H248771   1.886   0.863  12.570  0.6874 -2.3107 -1.0697
 9094TIP3   OH248772   5.305   6.769   4.162 -0.1984 -0.0154 -0.0855
 9094TIP3    H148773   5.344   6.727   4.238 -0.1535 -2.4664 -1.3521
 9094TIP3    H248774   5.242   6.831   4.198  0.0397 -0.8825  1.9370
 9095TIP3   OH248775   4.242   0.413   3.045  0.2095 -0.2007 -0.0184
 9095TIP3    H148776   4.293   0.378   2.972  0.7548 -0.4533  0.4775
 9095TIP3    H248777   4.298   0.401   3.121  0.2984  1.4750  0.2197
 9096TIP3   OH248778   0.162   1.587   2.697 -0.6204  0.2528 -0.1466
 9096TIP3    H148779   0.187   1.657   2.757 -0.0771 -0.7630  0.8468
 9096TIP3    H248780   0.234   1.525   2.701 -1.9111 -1.2762  0.4459
 9097TIP3   OH248781   1.211   3.848   5.312 -0.1450  0.1622 -0.4815
 9097TIP3    H148782   1.265   3.925   5.295 -0.7010  0.5836 -0.3443
 9097TIP3    H248783   1.202   3.807   5.226 -0.9266  0.9695 -0.8041
 9098TIP3   OH248784   2.268   2.126  16.411  0.4914  0.1515 -0.0393
 9098TIP3    H148785   2.281   2.220  16.396  0.7123  0.0378 -0.5916
 9098TIP3    H248786   2.255   2.118  16.506  1.1536  0.6598  0.1022
 9099TIP3   OH248787   2.032   4.827   6.292  0.1374 -0.0208 -0.3610
 9099TIP3    H148788   1.959   4.849   6.349  2.7699  3.1694  2.1364
 9099TIP3    H248789   2.091   4.775   6.347  0.2415 -1.8831 -2.0886
 9100TIP3   OH248790   1.762   4.134  12.693  0.1399  0.1360  1.0279
 9100TIP3    H148791   1.704   4.135  12.617  0.4889  0.2125  0.7604
 9100TIP3    H248792   1.706   4.108  12.766 -0.2245  0.1876  0.7668
 9101TIP3   OH248793   0.528   2.347   3.657 -0.4747  0.3438  0.4181
 9101TIP3    H148794   0.541   2.401   3.579 -0.7833 -0.3063 -0.0990
 9101TIP3    H248795   0.608   2.358   3.708  1.8870 -2.7504 -2.1506
 9102TIP3   OH248796   1.719   2.486  15.207  0.3822 -0.2807  0.0794
 9102TIP3    H148797   1.754   2.406  15.246 -0.1690 -0.4638  0.2078
 9102TIP3    H248798   1.796   2.531  15.172  0.9806  0.1519  1.8336
 9103TIP3   OH248799   2.620   1.310  15.506 -0.7923 -0.3610  0.3455
 9103TIP3    H148800   2.689   1.279  15.564 -1.4026  0.1722  1.3862
 9103TIP3    H248801   2.665   1.364  15.442  0.0974 -2.1620 -0.6375
 9104TIP3   OH248802   6.786   1.747  11.654  0.0222  0.4966 -1.1073
 9104TIP3    H148803   6.691   1.754  11.664  0.0505  0.5028 -0.8468
 9104TIP3    H248804   6.820   1.749  11.743  0.3407  1.5551 -1.2394
 9105TIP3   OH248805   2.627   6.817   5.098 -0.4448  0.4060  0.7802
 9105TIP3    H148806   2.701   6.758   5.111  0.0545  0.9951  0.6453
 9105TIP3    H248807   2.631   6.877   5.172  0.6877  1.9711 -0.4784
 9106TIP3   OH248808   0.833   1.838  14.628  0.0763  0.3071 -0.0761
 9106TIP3    H148809   0.925   1.813  14.637  0.2020  0.2573 -1.3514
 9106TIP3    H248810   0.803   1.850  14.718  1.2166 -0.0737  0.3765
 9107TIP3   OH248811   6.066   5.213  15.945  0.0177 -0.5181  0.3434
 9107TIP3    H148812   5.982   5.205  15.901 -0.8635 -0.4985  1.9521
 9107TIP3    H248813   6.119   5.142  15.908 -0.2387  0.2845 -1.6335
 9108TIP3   OH248814   5.224   4.151  15.457 -0.9666  0.3642  0.0995
 9108TIP3    H148815   5.257   4.072  15.500 -0.9881  0.8739  1.0641
 9108TIP3    H248816   5.138   4.126  15.424 -0.7233 -0.1907 -0.1357
 9109TIP3   OH248817   3.352   6.160   2.323 -0.5706  0.2836 -0.1924
 9109TIP3    H148818   3.339   6.088   2.262 -0.5463  1.6107 -1.8529
 9109TIP3    H248819   3.306   6.234   2.283  2.2262  2.0908 -0.3503
 9110TIP3   OH248820   4.794   1.368   4.632 -0.0577 -0.2580 -0.0821
 9110TIP3    H148821   4.798   1.463   4.642 -0.3822 -0.2995  0.5097
 9110TIP3    H248822   4.869   1.346   4.577  1.0599  0.1608  1.2009
 9111TIP3   OH248823   1.522   0.230   3.513  0.6561 -0.1025  0.1836
 9111TIP3    H148824   1.580   0.302   3.488  1.5311  0.2580  2.9797
 9111TIP3    H248825   1.508   0.241   3.607 -2.1056 -1.5493  0.0412
 9112TIP3   OH248826   4.576   3.980  12.195 -0.7348 -0.0337  0.2569
 9112TIP3    H148827   4.571   3.890  12.227 -2.4762 -0.2840 -0.5656
 9112TIP3    H248828   4.664   4.009  12.216  0.6448 -2.6649 -1.3678
 9113TIP3   OH248829   3.177   1.420  14.030  0.6778  0.2262  0.4522
 9113TIP3    H148830   3.132   1.453  13.952 -1.5345 -1.3047  0.9803
 9113TIP3    H248831   3.194   1.328  14.011 -1.0412 -0.5228  2.1707
 9114TIP3   OH248832   0.582   0.911   6.472  0.4012  0.3132  0.1197
 9114TIP3    H148833   0.554   0.858   6.397  0.1080  0.3766  0.1838
 9114TIP3    H248834   0.587   0.848   6.544 -0.3853  0.4463  0.3016
 9115TIP3   OH248835   4.537   6.335   2.782  0.5208  0.0445 -0.3278
 9115TIP3    H148836   4.628   6.353   2.759  0.7515 -0.5512  0.0849
 9115TIP3    H248837   4.488   6.407   2.743  0.9273 -0.6648 -2.2579
 9116TIP3   OH248838   1.882   5.717   3.925  0.2630 -0.0020  0.2709
 9116TIP3    H148839   1.928   5.801   3.914 -0.9134  0.8289  1.4740
 9116TIP3    H248840   1.795   5.732   3.888 -0.9301  0.2575  2.9630
 9117TIP3   OH248841   4.215   1.270  14.517 -0.3415  0.1959  0.5428
 9117TIP3    H148842   4.129   1.280  14.559 -0.7694  2.4326 -0.6604
 9117TIP3    H248843   4.213   1.335  14.446  1.1983 -1.8057 -1.4553
 9118TIP3   OH248844   4.913   6.539   5.248  0.0387  0.0394  0.3167
 9118TIP3    H148845   4.888   6.631   5.254  1.8729  0.6299 -0.3754
 9118TIP3    H248846   4.847   6.493   5.300 -2.4696  1.4234 -1.3988
 9119TIP3   OH248847   5.259   4.444   3.121 -0.0773  0.1424  0.6708
 9119TIP3    H148848   5.192   4.490   3.171  0.1673  1.3274 -0.0547
 9119TIP3    H248849   5.277   4.365   3.172 -1.7602 -0.0240  1.0518
 9120TIP3   OH248850   2.667   2.939  15.791 -0.1209 -0.4420  0.2088
 9120TIP3    H148851   2.682   2.873  15.859  1.2654 -0.2133  0.1616
 9120TIP3    H248852   2.740   2.927  15.730 -0.7096  0.1207 -0.6264
 9121TIP3   OH248853   3.510   0.207  14.918  0.3192  0.5646  0.3870
 9121TIP3    H148854   3.570   0.140  14.954  0.1719 -1.4257 -2.6636
 9121TIP3    H248855   3.423   0.172  14.934  0.2593 -0.8647 -2.4506
 9122TIP3   OH248856   2.133   1.563   1.237  0.3284  0.0544  0.0507
 9122TIP3    H148857   2.081   1.643   1.226 -0.6585 -0.5225  0.4307
 9122TIP3    H248858   2.204   1.588   1.296  0.9989  1.0771 -1.1428
 9123TIP3   OH248859   3.857   2.300  13.771  0.2141  0.3845 -0.1253
 9123TIP3    H148860   3.769   2.279  13.802  0.7573  0.7085  1.7846
 9123TIP3    H248861   3.847   2.383  13.725 -0.2970  1.1085  1.2248
 9124TIP3   OH248862   0.255   6.314   1.515 -0.3957  0.0442  0.0323
 9124TIP3    H148863   0.345   6.282   1.511 -0.6025 -0.4000 -1.9957
 9124TIP3    H248864   0.242   6.361   1.433 -2.8244 -2.1741 -0.9797
 9125TIP3   OH248865   1.916   4.522  15.550  0.2118 -0.6351  0.4101
 9125TIP3    H148866   1.828   4.485  15.536  0.2642 -0.4526 -0.5119
 9125TIP3    H248867   1.918   4.599  15.494  0.3586  0.3821  1.7756
 9126TIP3   OH248868   3.676   3.632  15.145  0.0040  0.2179 -0.1618
 9126TIP3    H148869   3.626   3.588  15.214  0.5771  1.2582  0.9556
 9126TIP3    H248870   3.641   3.596  15.063 -1.8545  0.1897  0.6019
 9127TIP3   OH248871   1.729   1.058   6.408 -0.2875  0.7927 -0.7540
 9127TIP3    H148872   1.762   0.984   6.459 -0.0533  1.3766 -0.0225
 9127TIP3    H248873   1.786   1.062   6.332 -0.6938 -0.1543 -1.1223
 9128TIP3   OH248874   3.477   4.089   1.510  0.2924  0.2224 -0.2599
 9128TIP3    H148875   3.392   4.127   1.534 -0.3437 -0.5631 -1.2004
 9128TIP3    H248876   3.476   4.003   1.551  0.7723  0.3221 -0.0330
 9129TIP3   OH248877   4.616   2.455   4.989 -0.4186 -0.4799  0.1290
 9129TIP3    H148878   4.589   2.372   4.950 -0.2868 -0.6093  0.3104
 9129TIP3    H248879   4.661   2.501   4.919 -3.4802  0.9623 -1.1051
 9130TIP3   OH248880   2.381   1.489   4.357 -0.4283  0.0300  0.2465
 9130TIP3    H148881   2.419   1.576   4.354 -1.7229  0.6334 -2.8236
 9130TIP3    H248882   2.303   1.498   4.411  1.0280 -0.0494  2.4825
 9131TIP3   OH248883   2.728   1.242  16.244  0.1701 -0.2758  0.1286
 9131TIP3    H148884   2.645   1.286  16.225  0.3154 -0.3526 -0.7386
 9131TIP3    H248885   2.794   1.309  16.226  0.3159 -0.3278  0.4643
 9132TIP3   OH248886   1.576   5.543   1.874 -0.1403 -0.0857  0.1024
 9132TIP3    H148887   1.564   5.636   1.890  1.8916  0.4833 -1.2228
 9132TIP3    H248888   1.628   5.513   1.949 -0.2480  0.0123  0.2150
 9133TIP3   OH248889   2.995   6.764   4.242 -0.3394  0.0183 -0.0069
 9133TIP3    H148890   3.089   6.743   4.248 -0.5828 -1.7502 -1.4592
 9133TIP3    H248891   2.955   6.713   4.312 -0.3645 -0.4258 -0.3380
 9134TIP3   OH248892   1.279   4.288  11.859 -0.1702  0.2528 -0.4252
 9134TIP3    H148893   1.317   4.211  11.900  1.5878  1.3184  0.0640
 9134TIP3    H248894   1.284   4.269  11.765  1.6453  0.3417 -0.3813
 9135TIP3   OH248895   3.015   0.872   3.545  0.1079 -0.1117  0.2904
 9135TIP3    H148896   3.082   0.847   3.482  0.7009  0.6438  0.6040
 9135TIP3    H248897   3.057   0.867   3.630 -0.2826  0.1736  0.5078
 9136TIP3   OH248898   2.590   3.403  16.034 -0.5180 -0.2298 -0.1124
 9136TIP3    H148899   2.544   3.482  16.004  0.7574 -0.1346 -1.9775
 9136TIP3    H248900   2.611   3.355  15.954  3.0735  0.0214  0.4756
 9137TIP3   OH248901   3.974   0.371   2.707  0.3103  0.2644 -0.0874
 9137TIP3    H148902   3.936   0.426   2.639 -0.5046  1.1982  1.0823
 9137TIP3    H248903   3.902   0.351   2.766  0.8772 -1.0009  0.2140
 9138TIP3   OH248904   4.947   6.307   1.610  0.4483  0.7106 -0.6905
 9138TIP3    H148905   4.898   6.245   1.557  0.8108 -0.1366 -0.0552
 9138TIP3    H248906   5.014   6.341   1.551  0.6808 -0.0208 -0.8583
 9139TIP3   OH248907   2.355   5.235  13.874 -0.1657  0.1090 -0.0829
 9139TIP3    H148908   2.383   5.232  13.965 -1.2591 -0.5985  0.2552
 9139TIP3    H248909   2.395   5.158  13.834 -3.4536 -2.4361  1.0250
 9140TIP3   OH248910   0.820   4.533  12.057  0.1956 -0.4557  0.2628
 9140TIP3    H148911   0.818   4.447  12.098 -2.5367  0.2052  1.8406
 9140TIP3    H248912   0.759   4.527  11.984  1.9599 -0.4963 -1.2740
 9141TIP3   OH248913   1.745   4.629  12.879  0.3747  0.4330  0.3526
 9141TIP3    H148914   1.737   4.534  12.869  0.7830  0.4858 -0.5071
 9141TIP3    H248915   1.838   4.643  12.899  0.9081  0.8477 -2.1460
 9142TIP3   OH248916   6.743   0.764  12.316  0.8588  0.0059 -0.1255
 9142TIP3    H148917   6.756   0.857  12.297  1.5003 -0.1193 -0.3182
 9142TIP3    H248918   6.648   0.755  12.329  0.3960  0.1357 -2.9747
 9143TIP3   OH248919   3.700   0.128  10.508 -0.2941  0.4950  0.3061
 9143TIP3    H148920   3.697   0.108  10.601 -1.6080  0.5807  0.3093
 9143TIP3    H248921   3.640   0.203  10.498  0.4282  0.9838 -0.4872
 9144TIP3   OH248922   2.919   3.442   2.272  0.1036 -0.4081 -0.0677
 9144TIP3    H148923   2.893   3.486   2.353 -0.9166 -2.6225  0.8657
 9144TIP3    H248924   2.840   3.443   2.218  0.2379 -0.6111 -0.2657
 9145TIP3   OH248925   3.697   6.614   4.467 -0.1045 -0.2837  0.1251
 9145TIP3    H148926   3.719   6.707   4.467  0.2676 -0.3696  0.1333
 9145TIP3    H248927   3.648   6.601   4.549 -0.1285 -0.1024  0.1396
 9146TIP3   OH248928   3.594   3.073   0.467  0.1196  0.2953 -0.0052
 9146TIP3    H148929   3.685   3.093   0.443 -0.1717  1.1329 -0.4519
 9146TIP3    H248930   3.547   3.071   0.384 -0.2647 -0.2353  0.2143
 9147TIP3   OH248931   6.822   3.216  17.212  0.5252  0.3078 -0.0351
 9147TIP3    H148932   6.736   3.176  17.200  1.8709 -2.0209 -3.2421
 9147TIP3    H248933   6.815   3.302  17.171 -0.2693  0.1504 -0.2397
 9148TIP3   OH248934   6.455   3.862  16.830 -0.1933 -0.5156  0.6769
 9148TIP3    H148935   6.368   3.895  16.809  0.4424  1.3936  0.8663
 9148TIP3    H248936   6.513   3.937  16.820  1.4160 -1.6705  0.8051
 9149TIP3   OH248937   0.258   4.210  10.858  0.1794  0.2068  0.6053
 9149TIP3    H148938   0.228   4.139  10.802  0.9511  0.7720 -0.5843
 9149TIP3    H248939   0.226   4.289  10.814  1.6829  0.7139  0.3864
 9150TIP3   OH248940   1.946   2.338   2.596  0.6250 -0.1257  0.1643
 9150TIP3    H148941   1.908   2.321   2.683 -0.4719  0.1607 -0.2475
 9150TIP3    H248942   2.039   2.317   2.607  0.4939 -0.1726  1.3888
 9151TIP3   OH248943   0.972   6.800   5.053  0.2922 -0.1618 -0.0733
 9151TIP3    H148944   0.993   6.723   5.000  0.5543 -0.8709  1.0210
 9151TIP3    H248945   0.886   6.781   5.090 -0.1757  0.6113 -0.7356
 9152TIP3   OH248946   2.249   0.059  14.039 -0.2755  0.5575 -0.5631
 9152TIP3    H148947   2.262  -0.016  13.981 -0.2873  0.6628 -0.7012
 9152TIP3    H248948   2.226   0.131  13.980  0.2280  0.7885 -0.4809
 9153TIP3   OH248949   1.953   1.088  16.546 -0.3667 -0.0785  0.2940
 9153TIP3    H148950   1.892   1.161  16.537  0.5436  0.8597  1.4232
 9153TIP3    H248951   1.932   1.030  16.473 -1.6372  0.9174 -0.1677
 9154TIP3   OH248952   5.086   4.007  16.652 -0.0579 -0.6904 -0.0578
 9154TIP3    H148953   5.146   4.038  16.721 -1.5258  1.3760  0.3704
 9154TIP3    H248954   5.051   3.925  16.686  1.8750 -1.5618  0.0174
 9155TIP3   OH248955   3.137   3.817   5.352 -0.5837 -0.5921 -0.1445
 9155TIP3    H148956   3.079   3.828   5.428 -1.9169 -1.3336 -1.0149
 9155TIP3    H248957   3.157   3.723   5.351 -2.1869 -0.9733 -1.7918
 9156TIP3   OH248958   3.778   6.811  15.563  0.2934 -0.4380  0.1849
 9156TIP3    H148959   3.712   6.803  15.494  1.7586  1.3016 -1.5078
 9156TIP3    H248960   3.833   6.733  15.553 -0.0222 -0.6401  0.0011
 9157TIP3   OH248961   3.544   4.418   0.851 -0.2989  0.0878 -0.0025
 9157TIP3    H148962   3.596   4.398   0.929 -3.9509 -1.5470  2.2777
 9157TIP3    H248963   3.527   4.332   0.811 -3.9708 -0.0207  1.4119
 9158TIP3   OH248964   3.517   2.718  12.873 -0.0868 -0.1258  0.2704
 9158TIP3    H148965   3.548   2.749  12.788 -0.5602 -0.7397 -0.1401
 9158TIP3    H248966   3.422   2.731  12.869 -0.3002 -1.5718  0.0898
 9159TIP3   OH248967   4.613   4.547  12.361  0.2558 -0.0703  0.1082
 9159TIP3    H148968   4.575   4.598  12.290  1.0281 -1.2733 -1.2260
 9159TIP3    H248969   4.695   4.592  12.382  0.9925 -0.7887 -1.1422
 9160TIP3   OH248970   3.688   3.449  10.261  0.3338 -0.1680  0.1173
 9160TIP3    H148971   3.750   3.394  10.308  0.8429  0.3490  0.0580
 9160TIP3    H248972   3.715   3.538  10.281  1.2358  0.0834 -2.0007
 9161TIP3   OH248973   1.251   3.466  12.889  0.5058  0.0299  0.2289
 9161TIP3    H148974   1.213   3.394  12.941  1.0889  0.6750  1.6067
 9161TIP3    H248975   1.183   3.532  12.886  0.1825 -0.3235 -0.5403
 9162TIP3   OH248976   2.893   0.580  11.927 -0.3901  0.0582 -0.2024
 9162TIP3    H148977   2.858   0.491  11.925 -0.6154  0.1515 -0.5074
 9162TIP3    H248978   2.961   0.577  11.993 -1.4006  0.0313  0.8735
 9163TIP3   OH248979   3.544   3.172   5.057 -0.1815 -0.3985  0.1091
 9163TIP3    H148980   3.585   3.102   5.007  1.3129 -0.2537  1.0612
 9163TIP3    H248981   3.549   3.143   5.148 -2.7945 -0.6433  0.2722
 9164TIP3   OH248982   2.191   0.538  16.172  0.3722 -0.7177 -0.6954
 9164TIP3    H148983   2.210   0.526  16.265  1.5414 -0.0114 -0.8293
 9164TIP3    H248984   2.095   0.543  16.168  0.2489  3.8940  1.1532
 9165TIP3   OH248985   1.665   6.287  12.645 -0.2927 -0.5891 -0.1776
 9165TIP3    H148986   1.585   6.276  12.594 -0.1612  1.0221 -0.7776
 9165TIP3    H248987   1.735   6.256  12.587 -0.3659 -1.0248 -0.0411
 9166TIP3   OH248988   0.303   3.291   3.002  0.2952 -0.6072  0.0151
 9166TIP3    H148989   0.386   3.265   2.962  0.9035 -0.1038  0.9211
 9166TIP3    H248990   0.252   3.328   2.929  1.9185  1.6116 -0.1080
 9167TIP3   OH248991   5.299   1.659   0.250 -0.0159  0.9051  0.1832
 9167TIP3    H148992   5.367   1.591   0.253 -1.2055 -0.3513 -0.2538
 9167TIP3    H248993   5.323   1.720   0.319  1.4708  0.4136  0.1423
 9168TIP3   OH248994   0.255   6.292  11.208 -0.7016  0.2508 -0.8042
 9168TIP3    H148995   0.223   6.380  11.226 -1.9690 -0.5299  1.2225
 9168TIP3    H248996   0.175   6.241  11.191 -0.0977 -0.7286 -0.7522
 9169TIP3   OH248997   4.923   5.286   6.014  0.0966 -0.0523 -0.2226
 9169TIP3    H148998   4.921   5.256   6.105  0.6315 -0.6085 -0.3795
 9169TIP3    H248999   4.930   5.381   6.020  1.7435 -0.1636  0.3650
 9170TIP3   OH249000   1.055   5.596   4.701  0.3233 -0.0881  1.1061
 9170TIP3    H149001   1.051   5.690   4.719 -0.8480  0.3877 -1.3050
 9170TIP3    H249002   1.147   5.579   4.681  0.1960  1.0577 -0.6704
 9171TIP3   OH249003   0.298   5.884   5.957  0.1442  0.4558  0.4675
 9171TIP3    H149004   0.271   5.963   6.004 -2.0988  0.7235 -1.1018
 9171TIP3    H249005   0.312   5.913   5.867  1.9319 -0.4851  0.3998
 9172TIP3   OH249006   3.708   1.247   5.134 -0.4197  0.1122 -0.1362
 9172TIP3    H149007   3.694   1.329   5.085 -2.4059 -0.1282 -0.0492
 9172TIP3    H249008   3.719   1.275   5.225 -3.2196  0.2289  0.2366
 9173TIP3   OH249009   0.286   3.130   1.425  0.0297  0.5167  0.3148
 9173TIP3    H149010   0.273   3.220   1.455 -0.1227  0.6237 -0.0707
 9173TIP3    H249011   0.209   3.112   1.371  1.1587  0.9513 -1.5384
 9174TIP3   OH249012   4.149   5.607  12.758  0.0584  0.5480  0.0094
 9174TIP3    H149013   4.205   5.668  12.708  0.5662 -1.8763 -2.6527
 9174TIP3    H249014   4.061   5.621  12.722  0.1412 -0.0847 -0.4598
 9175TIP3   OH249015   5.899   4.570   3.037 -0.0234  0.0525 -0.5659
 9175TIP3    H149016   5.949   4.618   2.972 -0.7952 -0.4859 -1.5802
 9175TIP3    H249017   5.833   4.523   2.987 -0.0612 -1.0960  0.5206
 9176TIP3   OH249018   3.030   1.479   6.127  0.3530  0.4124 -0.1189
 9176TIP3    H149019   3.027   1.474   6.032 -1.6887  0.8660 -0.1303
 9176TIP3    H249020   2.942   1.508   6.152  0.9404  0.6035  1.8872
 9177TIP3   OH249021   0.990   4.339   3.679 -0.1218  0.4393  1.0954
 9177TIP3    H149022   1.055   4.392   3.633 -0.5307  0.5349  0.6163
 9177TIP3    H249023   0.935   4.303   3.610  0.5384 -1.1531  1.3540
 9178TIP3   OH249024   4.849   5.223   6.275  0.0715 -0.4768  0.2820
 9178TIP3    H149025   4.858   5.238   6.369 -0.0105 -0.4673  0.2883
 9178TIP3    H249026   4.849   5.128   6.266  1.8811 -0.4984  0.1217
 9179TIP3   OH249027   2.162   3.996  10.934  0.1356 -0.1752 -0.2110
 9179TIP3    H149028   2.236   3.979  10.875  0.9163 -1.7126  1.1345
 9179TIP3    H249029   2.093   3.938  10.903  0.7832 -1.5157  0.7470
 9180TIP3   OH249030   6.627   3.775   4.666 -0.0364  0.4443 -0.2144
 9180TIP3    H149031   6.711   3.771   4.622 -0.7416 -2.0166 -1.5194
 9180TIP3    H249032   6.628   3.702   4.728 -2.1655 -1.5518 -2.3049
 9181TIP3   OH249033   4.675   3.607  14.258 -0.3097  0.1378  0.0311
 9181TIP3    H149034   4.756   3.588  14.210  0.7003  0.9691  1.3200
 9181TIP3    H249035   4.610   3.547  14.221  1.0576 -1.0155 -0.5907
 9182TIP3   OH249036   0.232   1.262   3.686  0.0988 -0.1835 -0.2124
 9182TIP3    H149037   0.223   1.309   3.769 -0.3891  3.0260 -1.9264
 9182TIP3    H249038   0.325   1.240   3.681  0.2674  0.2344  0.8234
 9183TIP3   OH249039   0.457   2.419  15.412  0.3705  0.0833 -0.4784
 9183TIP3    H149040   0.481   2.471  15.334 -2.9874  0.3916 -1.5001
 9183TIP3    H249041   0.417   2.340  15.376 -0.5516 -0.1269  0.9476
 9184TIP3   OH249042   3.720   1.391   3.668  0.3257 -0.1826  0.3679
 9184TIP3    H149043   3.797   1.443   3.645 -0.3373  0.8337  0.3777
 9184TIP3    H249044   3.723   1.316   3.608  1.0441  0.1108  0.0288
 9185TIP3   OH249045   6.240   3.095   0.403 -0.4044  0.1003  0.3517
 9185TIP3    H149046   6.244   3.106   0.308 -1.2248 -1.4357  0.0984
 9185TIP3    H249047   6.156   3.133   0.428 -0.3977  0.0922  0.3877
 9186TIP3   OH249048   0.303   1.150  11.262  0.7187  0.0657 -0.2599
 9186TIP3    H149049   0.311   1.170  11.169  0.7603  0.7068 -0.1216
 9186TIP3    H249050   0.356   1.216  11.305  1.0589 -0.4962  0.1982
 9187TIP3   OH249051   6.027   5.487   5.117 -0.4892  0.0598  0.1869
 9187TIP3    H149052   5.949   5.498   5.171 -1.4484  1.4657 -1.3990
 9187TIP3    H249053   5.993   5.461   5.031  0.9437 -1.2461 -0.0319
 9188TIP3   OH249054   1.353   2.831  14.626 -0.2073  0.1917  0.1611
 9188TIP3    H149055   1.318   2.919  14.643 -1.4819 -0.3287  0.2573
 9188TIP3    H249056   1.338   2.783  14.707  0.0570 -0.2602 -0.0570
 9189TIP3   OH249057   2.678   1.068  11.279 -0.4743 -0.0215  0.1094
 9189TIP3    H149058   2.647   0.999  11.220  2.7323 -1.4165 -0.1560
 9189TIP3    H249059   2.693   1.024  11.362 -2.2769  1.3245  1.2018
 9190TIP3   OH249060   3.086   4.769   1.650 -0.5951  0.7759 -0.3720
 9190TIP3    H149061   3.165   4.717   1.637  0.2312  1.5103  1.3972
 9190TIP3    H249062   3.017   4.704   1.662  0.2781  0.0507  1.0076
 9191TIP3   OH249063   6.622   1.623   4.998 -0.4245  0.0484  0.1548
 9191TIP3    H149064   6.675   1.702   4.986 -0.9181  0.2000 -1.1868
 9191TIP3    H249065   6.616   1.584   4.910 -3.3047  0.5326  0.0397
 9192TIP3   OH249066   1.606   2.416  14.669 -0.1115 -0.0265 -0.0091
 9192TIP3    H149067   1.648   2.439  14.751 -1.2002 -2.6200  1.4168
 9192TIP3    H249068   1.514   2.440  14.682 -0.2973 -0.4907 -0.4463
 9193TIP3   OH249069   3.300   4.570   4.605 -0.3902 -0.5107  0.2948
 9193TIP3    H149070   3.245   4.504   4.564  0.1139  0.0801 -1.4218
 9193TIP3    H249071   3.382   4.567   4.555 -0.3156  1.3146  0.2299
 9194TIP3   OH249072   3.928   4.547   4.656 -0.6994  0.1058  0.0594
 9194TIP3    H149073   3.982   4.490   4.710 -1.6367 -1.2511 -0.3887
 9194TIP3    H249074   3.842   4.546   4.699 -0.8066  0.9739 -0.1148
 9195TIP3   OH249075   2.020   4.779   2.992  0.0435 -0.1842  0.3678
 9195TIP3    H149076   2.063   4.723   3.057  1.6596  0.9425  0.3348
 9195TIP3    H249077   1.937   4.804   3.033  0.4944 -0.4746  1.4975
 9196TIP3   OH249078   0.531   1.332   5.871  0.1012 -0.0253  0.0073
 9196TIP3    H149079   0.616   1.358   5.907  0.4727  0.6559 -1.3298
 9196TIP3    H249080   0.520   1.384   5.792 -1.3635 -0.4428 -0.1061
 9197TIP3   OH249081   5.509   4.645   0.925 -0.4256 -0.1872 -0.2697
 9197TIP3    H149082   5.447   4.581   0.889  0.4003 -2.1890  1.6609
 9197TIP3    H249083   5.537   4.607   1.008  1.4755  1.8736  0.1142
 9198TIP3   OH249084   0.718   0.824   2.461  0.0030 -0.9381  0.2566
 9198TIP3    H149085   0.673   0.818   2.377 -3.1290  2.1987  1.4791
 9198TIP3    H249086   0.688   0.748   2.510 -1.0830 -0.8534 -0.2426
 9199TIP3   OH249087   5.178   1.461  13.744  0.0820  0.1760 -0.1752
 9199TIP3    H149088   5.159   1.520  13.670  0.3010  0.6129  0.1145
 9199TIP3    H249089   5.135   1.379  13.720  1.5370 -0.2487 -1.5935
 9200TIP3   OH249090   1.115   0.638   0.563 -0.0941  0.0416 -0.5736
 9200TIP3    H149091   1.040   0.648   0.621  0.4766 -1.2893  0.4331
 9200TIP3    H249092   1.150   0.726   0.553 -1.2617  0.5428 -0.3542
 9201TIP3   OH249093   4.212   2.493  13.215 -0.0308 -0.4040 -0.1691
 9201TIP3    H149094   4.296   2.464  13.178  0.4904 -0.9290  1.3489
 9201TIP3    H249095   4.151   2.489  13.141  1.3374  0.3134 -1.3846
 9202TIP3   OH249096   0.241   4.654   0.353  0.0697  0.2906  0.0398
 9202TIP3    H149097   0.215   4.606   0.274 -3.0204 -0.2375  1.2364
 9202TIP3    H249098   0.307   4.598   0.394  1.0010  0.1030 -1.6071
 9203TIP3   OH249099   0.705   3.583   5.729 -0.1190  0.1558 -0.4468
 9203TIP3    H149100   0.624   3.540   5.756  0.7849 -1.2781  0.1138
 9203TIP3    H249101   0.771   3.549   5.790  1.0088  0.8276 -1.2628
 9204TIP3   OH249102   1.556   4.278   5.352  0.1766 -0.3040 -0.3214
 9204TIP3    H149103   1.511   4.356   5.382  0.0655 -1.1972  1.9911
 9204TIP3    H249104   1.624   4.262   5.417  1.3755 -1.1367 -1.7099
 9205TIP3   OH249105   1.433   6.150  17.105  0.2929  0.4319 -0.1203
 9205TIP3    H149106   1.462   6.101  17.028 -2.7012  0.7252 -1.5660
 9205TIP3    H249107   1.459   6.240  17.087  0.8797  0.2752 -0.0802
 9206TIP3   OH249108   5.459   5.244   0.733  0.1439 -0.1814  0.3414
 9206TIP3    H149109   5.424   5.221   0.648 -0.9222 -0.6419  0.8993
 9206TIP3    H249110   5.554   5.241   0.721  0.0694 -2.9171 -0.1326
 9207TIP3   OH249111   0.266   5.612   5.996  0.4520  0.1633  0.0862
 9207TIP3    H149112   0.299   5.701   5.990  1.0427 -0.0147  0.6256
 9207TIP3    H249113   0.290   5.582   6.083 -2.1010  0.3894  0.9565
 9208TIP3   OH249114   6.624   5.970  16.897 -0.1968  0.3640  0.5419
 9208TIP3    H149115   6.654   5.906  16.961  2.2871  1.3492  0.4743
 9208TIP3    H249116   6.572   6.032  16.947 -0.6690 -0.4206  1.0436
 9209TIP3   OH249117   3.264   4.079   5.585 -0.1374  0.3718  0.4964
 9209TIP3    H149118   3.283   4.170   5.563 -0.0173  0.7430  2.0123
 9209TIP3    H249119   3.171   4.079   5.607  0.2661  0.6183  2.4923
 9210TIP3   OH249120   5.994   5.319   1.476 -0.4662 -0.9122 -0.3259
 9210TIP3    H149121   6.071   5.376   1.475 -0.3412 -1.0839 -0.4702
 9210TIP3    H249122   5.919   5.379   1.473 -0.3450 -0.7324  0.1047
 9211TIP3   OH249123   2.959   6.787   3.049 -0.4159  0.7172 -0.1112
 9211TIP3    H149124   2.900   6.712   3.060  1.1284 -0.6649 -0.8690
 9211TIP3    H249125   2.999   6.774   2.963  1.2948  1.3712  0.5391
 9212TIP3   OH249126   5.061   4.666  14.397  0.1540 -0.3373 -0.1416
 9212TIP3    H149127   5.008   4.589  14.416 -1.7618  0.7125 -0.9779
 9212TIP3    H249128   5.061   4.672  14.302  0.6137  0.4928 -0.0997
 9213TIP3   OH249129   1.479   0.316   1.305  0.0102  0.2882 -0.4012
 9213TIP3    H149130   1.488   0.411   1.295 -0.9497  0.4669  0.2465
 9213TIP3    H249131   1.426   0.306   1.384  2.1908 -0.8459  1.0437
 9214TIP3   OH249132   2.857   6.786  14.402  0.5430  0.5796 -0.4630
 9214TIP3    H149133   2.899   6.866  14.431  1.4400 -0.7986  2.3723
 9214TIP3    H249134   2.764   6.808  14.395  1.0145  2.3332 -1.7606
 9215TIP3   OH249135   2.366   0.130   3.593  0.1021  0.4235  0.8200
 9215TIP3    H149136   2.278   0.094   3.596  0.0515  0.4016 -0.4485
 9215TIP3    H249137   2.412   0.077   3.528  0.9524  0.6421  1.2273
 9216TIP3   OH249138   3.616   0.571  14.981  0.1449 -0.1803 -0.1242
 9216TIP3    H149139   3.695   0.559  15.033 -0.6724 -1.8101  0.8509
 9216TIP3    H249140   3.615   0.664  14.958  1.1758  0.3471  1.7668
 9217TIP3   OH249141   3.066   1.977   1.356  0.8991  0.1961 -0.6872
 9217TIP3    H149142   3.152   2.009   1.329  1.5553 -1.6609 -0.9714
 9217TIP3    H249143   3.020   1.962   1.274  1.1178 -0.8654 -0.6276
 9218TIP3   OH249144   3.069   4.176   0.917  0.1736  0.1985 -0.2955
 9218TIP3    H149145   3.063   4.125   0.998  0.2176  0.1808 -0.3032
 9218TIP3    H249146   3.139   4.133   0.868  1.3152  1.2262  0.3717
 9219TIP3   OH249147   2.022   1.959  15.495  0.0158  0.7067  0.0872
 9219TIP3    H149148   1.982   1.876  15.522  0.8000 -0.8542 -3.1225
 9219TIP3    H249149   1.951   2.023  15.504 -1.3197 -0.7467  0.4518
 9220TIP3   OH249150   2.293   6.565   1.518  0.2859 -0.1380  0.0823
 9220TIP3    H149151   2.263   6.640   1.569  1.2904  0.2968  0.0523
 9220TIP3    H249152   2.268   6.586   1.428 -0.5865 -0.4475  0.2375
 9221TIP3   OH249153   4.871   1.850  10.881  0.5276 -0.1746 -0.2331
 9221TIP3    H149154   4.848   1.773  10.934  0.7238  0.2215  0.4422
 9221TIP3    H249155   4.847   1.925  10.936  0.8891  0.2446 -0.6409
 9222TIP3   OH249156   0.042   5.996   3.431 -0.2341  0.5639 -0.1196
 9222TIP3    H149157   0.047   6.059   3.359  1.1526  0.6296  0.0105
 9222TIP3    H249158   0.133   5.981   3.456 -0.6072 -0.6565  0.5894
 9223TIP3   OH249159   6.222   1.084  13.214  0.0166 -0.1656 -0.1208
 9223TIP3    H149160   6.267   1.136  13.147  0.4900 -0.3245  0.0719
 9223TIP3    H249161   6.222   0.995  13.179 -1.8381  0.1411 -0.9984
 9224TIP3   OH249162   1.247   0.439  14.505  0.5289 -0.6748  0.3880
 9224TIP3    H149163   1.265   0.370  14.442  0.6640  0.9755 -1.4599
 9224TIP3    H249164   1.156   0.425  14.532 -0.2864 -0.1732 -1.8795
 9225TIP3   OH249165   0.544   2.727   1.114 -0.3797 -0.2892  0.5714
 9225TIP3    H149166   0.615   2.746   1.175  1.4123  3.8447 -2.3620
 9225TIP3    H249167   0.545   2.632   1.105  2.4133 -0.6797  3.2885
 9226TIP3   OH249168   3.667   5.196  15.710 -0.1688 -0.4959 -0.8381
 9226TIP3    H149169   3.749   5.220  15.666 -0.6819 -0.2143 -1.6626
 9226TIP3    H249170   3.667   5.100  15.710  0.7380 -0.5146  0.2833
 9227TIP3   OH249171   1.203   6.047   1.054 -0.4106 -0.4656  0.4792
 9227TIP3    H149172   1.251   6.004   1.124 -0.2898  0.2915  0.8669
 9227TIP3    H249173   1.113   6.054   1.087 -0.0646  1.1483  1.1596
 9228TIP3   OH249174   6.749   3.471  11.169  0.0954  0.7014  0.2622
 9228TIP3    H149175   6.731   3.391  11.119  1.4672 -0.5942  1.6928
 9228TIP3    H249176   6.837   3.497  11.143  0.7634  0.1075  1.7609
 9229TIP3   OH249177   5.087   2.249   0.773  0.2091 -0.4085 -0.0831
 9229TIP3    H149178   5.068   2.207   0.857 -0.7074 -0.3034 -0.2292
 9229TIP3    H249179   5.163   2.305   0.791 -1.9237  2.2194  1.5768
 9230TIP3   OH249180   1.922   3.151  15.231  0.3739  0.4914  0.0963
 9230TIP3    H149181   2.006   3.110  15.250  0.5436  0.8643  0.1710
 9230TIP3    H249182   1.871   3.082  15.189  1.3477  0.7635 -1.6420
 9231TIP3   OH249183   4.946   3.215  13.964  0.0809 -0.0347 -0.4944
 9231TIP3    H149184   5.022   3.222  13.906 -0.4619 -0.8295 -1.3332
 9231TIP3    H249185   4.950   3.127  13.999 -0.6325 -0.2058 -0.8165
 9232TIP3   OH249186   1.461   1.277   2.540 -0.3857 -0.2290  1.1971
 9232TIP3    H149187   1.447   1.269   2.635 -2.7253  4.3321  1.5433
 9232TIP3    H249188   1.372   1.275   2.504  0.3831 -0.5995 -0.7421
 9233TIP3   OH249189   4.548   2.183   4.942 -0.3102  0.0943  0.4240
 9233TIP3    H149190   4.556   2.110   5.003 -0.5493  0.3508  0.7600
 9233TIP3    H249191   4.568   2.144   4.856  1.8616  0.1033  0.8613
 9234TIP3   OH249192   0.367   4.430   3.406 -0.0265 -0.3142 -0.0361
 9234TIP3    H149193   0.421   4.354   3.429  0.5326  0.0443 -0.1397
 9234TIP3    H249194   0.337   4.464   3.491 -0.5885 -0.8662 -0.0074
 9235TIP3   OH249195   5.900   2.953   2.532  0.2686 -0.3076 -0.5303
 9235TIP3    H149196   5.956   3.020   2.492  0.3729 -0.4644 -0.6485
 9235TIP3    H249197   5.875   2.896   2.459  0.4871 -0.6161 -0.3697
 9236TIP3   OH249198   5.672   6.449  15.232 -0.3836  0.0783 -0.1220
 9236TIP3    H149199   5.628   6.447  15.147  0.4420 -0.7517 -0.5449
 9236TIP3    H249200   5.622   6.388  15.286  0.4760 -1.1924 -0.7285
 9237TIP3   OH249201   5.109   1.824   3.574  0.1923 -0.4347  0.7375
 9237TIP3    H149202   5.054   1.795   3.647  1.9020 -1.2361  1.7759
 9237TIP3    H249203   5.197   1.793   3.596  1.0403  0.5713 -0.9785
 9238TIP3   OH249204   2.630   5.190   1.892 -0.7280 -0.0829 -0.0040
 9238TIP3    H149205   2.639   5.133   1.816 -0.4621 -1.3161  0.9275
 9238TIP3    H249206   2.647   5.278   1.857 -0.6181 -0.6124 -1.3603
 9239TIP3   OH249207   4.801   3.635   5.153  0.5149  0.1150  0.2118
 9239TIP3    H149208   4.838   3.667   5.235 -2.1199 -0.0921  1.5840
 9239TIP3    H249209   4.819   3.541   5.154  1.1342  0.2289  0.1766
 9240TIP3   OH249210   3.362   2.510  14.118 -0.5848 -0.4242 -0.4302
 9240TIP3    H149211   3.388   2.585  14.171  0.8593 -0.9780 -0.3194
 9240TIP3    H249212   3.297   2.465  14.171 -0.8618  0.2851 -0.1454
 9241TIP3   OH249213   3.260   3.973  14.871 -0.1604  0.4874  0.3841
 9241TIP3    H149214   3.248   3.940  14.782  2.9201 -0.6792  0.3109
 9241TIP3    H249215   3.286   4.065  14.859  2.1893 -0.1827 -0.1322
 9242TIP3   OH249216   1.499   2.076  12.295 -0.3672 -0.6144  0.1661
 9242TIP3    H149217   1.453   2.121  12.225 -0.3173 -3.2246 -1.7036
 9242TIP3    H249218   1.580   2.126  12.308 -0.2258 -0.2416 -1.9045
 9243TIP3   OH249219   1.706   4.999   4.407 -0.0771 -0.0678  0.0655
 9243TIP3    H149220   1.673   5.027   4.492 -0.8942 -0.3548 -0.1508
 9243TIP3    H249221   1.633   5.013   4.347  0.4903  0.1216 -0.5921
 9244TIP3   OH249222   0.829   6.106  15.570  0.0748 -0.6927 -0.3445
 9244TIP3    H149223   0.741   6.130  15.540 -0.1751 -2.7018 -1.4131
 9244TIP3    H249224   0.813   6.043  15.641  0.6559 -0.5340 -0.0692
 9245TIP3   OH249225   3.776   4.959   2.506 -0.1776 -0.6327 -0.1553
 9245TIP3    H149226   3.781   4.966   2.601 -2.5159 -2.7748  0.2682
 9245TIP3    H249227   3.683   4.975   2.486  0.4874  1.0402 -2.2673
 9246TIP3   OH249228   0.172   4.847   5.823 -0.8269  0.2532  0.2403
 9246TIP3    H149229   0.256   4.867   5.783 -0.3553 -1.3312  0.3687
 9246TIP3    H249230   0.108   4.893   5.769 -0.0967 -0.7514 -1.5633
 9247TIP3   OH249231   0.726   5.089   5.707  0.6443  0.5919 -0.5053
 9247TIP3    H149232   0.708   4.999   5.679 -0.4722  0.8495 -0.6566
 9247TIP3    H249233   0.668   5.143   5.654 -1.9665  1.0896  2.5197
 9248TIP3   OH249234   2.616   1.568  14.436 -0.3997 -0.5900  0.2591
 9248TIP3    H149235   2.669   1.611  14.504  0.8853 -1.7348  0.0384
 9248TIP3    H249236   2.630   1.474  14.451  1.6103 -0.9213 -2.7954
 9249TIP3   OH249237   2.185   4.064   0.809  0.6369 -0.1925  0.1864
 9249TIP3    H149238   2.170   4.091   0.900  0.0536 -0.6914  0.2485
 9249TIP3    H249239   2.276   4.036   0.807  0.3207 -1.3961  0.9577
 9250TIP3   OH249240   3.879   6.768   0.651  0.1779  0.9225  0.5908
 9250TIP3    H149241   3.857   6.797   0.563  1.7861  1.4485  0.3229
 9250TIP3    H249242   3.825   6.691   0.665  2.2604 -1.2781 -2.2364
 9251TIP3   OH249243   4.698   1.257   1.035 -0.9376 -0.3574  0.2472
 9251TIP3    H149244   4.752   1.315   0.981 -2.2092  0.2912 -0.3912
 9251TIP3    H249245   4.760   1.201   1.080  0.5302  2.6583  2.3181
 9252TIP3   OH249246   1.495   0.865  15.786 -0.4235 -0.6777  0.4189
 9252TIP3    H149247   1.486   0.955  15.755  0.1267 -0.5670  0.5680
 9252TIP3    H249248   1.468   0.811  15.712 -2.7687 -0.3884  0.9756
 9253TIP3   OH249249   1.690   0.073   1.065 -0.0697  0.1375 -0.3503
 9253TIP3    H149250   1.675   0.167   1.055 -1.9094 -0.2051 -1.2234
 9253TIP3    H249251   1.617   0.032   1.018 -0.2152 -1.7258  1.3834
 9254TIP3   OH249252   1.661   6.646  12.878 -0.3145  0.5475 -0.1186
 9254TIP3    H149253   1.671   6.616  12.788 -0.5269 -0.0577  0.0559
 9254TIP3    H249254   1.571   6.680  12.882 -0.0055  1.4125 -0.3705
 9255TIP3   OH249255   0.474   4.047  12.310 -0.2534  0.4423 -0.1009
 9255TIP3    H149256   0.401   3.987  12.295  0.7071 -0.7345 -0.2301
 9255TIP3    H249257   0.509   4.021  12.396  1.9017 -1.1132 -1.3483
 9256TIP3   OH249258   4.336   3.004   3.671  1.1801 -0.1068  0.1090
 9256TIP3    H149259   4.376   2.963   3.594  2.3183 -2.1009  1.6464
 9256TIP3    H249260   4.410   3.029   3.726  0.4555 -2.0699  2.1415
 9257TIP3   OH249261   0.821   4.085  11.033  0.3502 -0.2591  0.4610
 9257TIP3    H149262   0.786   4.148  10.970 -0.7069 -0.2067  1.0832
 9257TIP3    H249263   0.914   4.106  11.038  0.5517 -0.5396 -1.3967
 9258TIP3   OH249264   3.557   2.295  16.360  0.8668 -0.2595  0.0280
 9258TIP3    H149265   3.573   2.283  16.267 -0.7714  0.2070 -0.3354
 9258TIP3    H249266   3.528   2.209  16.391  0.5192 -0.1885 -0.0957
 9259TIP3   OH249267   4.922   0.317   4.365 -0.1077 -0.2746  0.8770
 9259TIP3    H149268   4.886   0.280   4.446 -0.7731  0.7204  1.0578
 9259TIP3    H249269   4.865   0.391   4.345 -0.3867 -0.9053 -0.8936
 9260TIP3   OH249270   1.084   5.726  16.242  0.2577 -0.0477  0.3460
 9260TIP3    H149271   1.018   5.670  16.282  2.3025 -2.6781  0.2578
 9260TIP3    H249272   1.124   5.672  16.174  2.6984  1.2951  0.5992
 9261TIP3   OH249273   1.066   0.502   4.748  0.1761  0.2828  0.0968
 9261TIP3    H149274   0.999   0.465   4.805  1.3777 -0.8927  0.8106
 9261TIP3    H249275   1.139   0.439   4.753  1.2357  1.3900 -0.8303
 9262TIP3   OH249276   5.427   4.155   2.248  0.4251  0.7224 -0.6870
 9262TIP3    H149277   5.399   4.123   2.334  0.8100 -0.6631 -1.0464
 9262TIP3    H249278   5.381   4.238   2.236 -0.6972  0.2558  0.2682
 9263TIP3   OH249279   5.643   1.592   1.589  0.1206 -0.0410 -0.4076
 9263TIP3    H149280   5.642   1.616   1.497 -1.0797 -2.0816 -1.0035
 9263TIP3    H249281   5.684   1.666   1.633 -0.4086  1.5430 -2.4130
 9264TIP3   OH249282   3.293   3.282  15.225  0.0559  0.1483  0.5257
 9264TIP3    H149283   3.208   3.241  15.207  0.6840 -1.6344  1.4524
 9264TIP3    H249284   3.297   3.288  15.321  1.5135 -1.0245  0.5654
 9265TIP3   OH249285   0.950   1.477  15.898  0.2098  0.1443  0.3819
 9265TIP3    H149286   0.856   1.487  15.908  0.5102  2.9218  1.4702
 9265TIP3    H249287   0.981   1.448  15.984  0.4059 -0.2010  0.1958
 9266TIP3   OH249288   3.415   6.024   0.948  0.3439  0.1003 -0.5919
 9266TIP3    H149289   3.418   6.058   1.037 -0.8028 -0.4009 -0.3461
 9266TIP3    H249290   3.413   5.928   0.958  0.4287  0.0311 -1.1624
 9267TIP3   OH249291   4.676   6.383  14.701  0.3453 -0.5566 -0.9598
 9267TIP3    H149292   4.631   6.311  14.745 -0.1572 -1.8753 -3.4427
 9267TIP3    H249293   4.631   6.392  14.617 -0.4061  3.5388 -0.3246
 9268TIP3   OH249294   1.749   1.610   5.393 -0.0392 -0.0850 -0.5732
 9268TIP3    H149295   1.801   1.530   5.396 -0.0864 -0.0976  0.2931
 9268TIP3    H249296   1.658   1.580   5.388 -0.4200 -0.2845  3.7772
 9269TIP3   OH249297   1.124   2.142  13.627  0.6960  0.0787  0.0205
 9269TIP3    H149298   1.190   2.166  13.562 -0.3599  1.2350 -0.6417
 9269TIP3    H249299   1.065   2.217  13.632 -0.3331 -0.7513  0.9275
 9270TIP3   OH249300   0.444   2.277  12.251  0.3499 -0.3204  0.2894
 9270TIP3    H149301   0.518   2.222  12.225  0.4213 -0.0926  0.0024
 9270TIP3    H249302   0.413   2.315  12.168  0.7648  0.6531  0.5568
 9271TIP3   OH249303   3.645   5.572  14.130 -0.6010  0.2288 -0.2905
 9271TIP3    H149304   3.592   5.652  14.135 -0.4127  0.4024 -0.9800
 9271TIP3    H249305   3.735   5.604  14.130 -0.5288  0.1397 -2.2188
 9272TIP3   OH249306   4.637   1.891  12.912 -0.0608  0.0927  0.7820
 9272TIP3    H149307   4.673   1.965  12.864 -0.9057 -0.4344 -0.7410
 9272TIP3    H249308   4.689   1.886  12.992 -0.1993  2.5043  1.0846
 9273TIP3   OH249309   3.178   3.140  14.343 -0.0944 -0.0661  0.1693
 9273TIP3    H149310   3.212   3.117  14.257  2.3562  0.9711  0.7611
 9273TIP3    H249311   3.194   3.063  14.397  4.1307  1.1938  1.0946
 9274TIP3   OH249312   5.703   6.246  11.878  0.8136 -0.4166  0.0303
 9274TIP3    H149313   5.707   6.330  11.834  1.8950 -0.5714 -0.1948
 9274TIP3    H249314   5.690   6.182  11.808  1.9014 -0.6028 -0.0169
 9275TIP3   OH249315   5.848   5.362   0.403  0.0053  0.8238  0.2139
 9275TIP3    H149316   5.811   5.434   0.454 -2.1674 -0.0672  0.0153
 9275TIP3    H249317   5.943   5.375   0.407  0.1365  0.1402  5.5059
 9276TIP3   OH249318   0.382   1.044  13.429  0.2523 -0.1306 -0.5319
 9276TIP3    H149319   0.316   0.977  13.448  0.3191 -0.3623 -1.0998
 9276TIP3    H249320   0.365   1.113  13.492  1.0762 -1.2909  1.0350
 9277TIP3   OH249321   5.436   5.248   2.088 -0.6652  0.0572 -0.5700
 9277TIP3    H149322   5.490   5.264   2.011  1.7855 -3.1365  0.2461
 9277TIP3    H249323   5.374   5.180   2.062 -0.0832 -0.7588  0.1002
 9278TIP3   OH249324   4.767   1.422   2.616  0.4934 -0.0759  0.0812
 9278TIP3    H149325   4.767   1.457   2.527  1.7520  0.7504  0.3782
 9278TIP3    H249326   4.721   1.488   2.668 -2.2286 -1.5598 -0.2588
 9279TIP3   OH249327   4.217   5.684  13.884 -0.2018 -0.3169  0.2265
 9279TIP3    H149328   4.288   5.626  13.856  1.1673  0.8659  1.0991
 9279TIP3    H249329   4.178   5.640  13.959 -0.5831 -1.0866 -0.4003
 9280TIP3   OH249330   1.268   0.548  13.044  0.3063  0.4687 -0.0725
 9280TIP3    H149331   1.216   0.504  13.111  1.9660  0.3256  1.1894
 9280TIP3    H249332   1.352   0.567  13.087  1.8388 -0.5782 -2.4130
 9281TIP3   OH249333   2.371   4.140  17.128  0.1667 -0.3677 -0.5564
 9281TIP3    H149334   2.283   4.178  17.139  1.0541  1.6811 -0.0406
 9281TIP3    H249335   2.397   4.165  17.040 -0.0959 -1.7924 -1.0646
 9282TIP3   OH249336   4.277   2.571  12.902 -0.4017 -0.4835  0.1660
 9282TIP3    H149337   4.326   2.534  12.975 -0.8412 -0.8560  0.2720
 9282TIP3    H249338   4.252   2.496  12.849  1.5242 -0.1155 -1.4091
 9283TIP3   OH249339   0.570   2.528  14.923 -0.1508  0.2309 -0.2758
 9283TIP3    H149340   0.479   2.518  14.897 -0.4662  0.4419  0.7036
 9283TIP3    H249341   0.590   2.620  14.909 -0.6803  0.6128  1.2664
 9284TIP3   OH249342   1.308   1.335  11.288 -0.1777 -0.5600 -0.0311
 9284TIP3    H149343   1.333   1.320  11.197  2.7628  1.0427  0.3786
 9284TIP3    H249344   1.225   1.382  11.283  1.4087  2.3752 -2.1554
 9285TIP3   OH249345   5.725   2.777   3.588  0.0186 -0.1819  0.6249
 9285TIP3    H149346   5.794   2.732   3.638 -1.2033 -2.7902  0.1544
 9285TIP3    H249347   5.754   2.772   3.497  0.5240  1.2865  0.6920
 9286TIP3   OH249348   5.842   2.997   4.162  0.2208  0.4963  0.2948
 9286TIP3    H149349   5.874   3.032   4.079 -0.9712 -0.8864 -0.7951
 9286TIP3    H249350   5.779   3.063   4.192  1.0747  1.2739  0.4035
 9287TIP3   OH249351   1.981   5.134   5.852 -0.1709 -0.5975 -0.4487
 9287TIP3    H149352   2.006   5.064   5.912  1.8846  1.6649  1.5246
 9287TIP3    H249353   1.930   5.195   5.906  0.8894  1.0234 -1.2092
 9288TIP3   OH249354   5.133   1.327   5.573 -0.4365 -0.0765 -0.4580
 9288TIP3    H149355   5.220   1.287   5.567 -0.4547 -0.4573  1.3318
 9288TIP3    H249356   5.140   1.406   5.518  2.0406  1.5339  1.8887
 9289TIP3   OH249357   3.224   4.332   1.317  0.0412  0.2930 -0.2228
 9289TIP3    H149358   3.295   4.336   1.381 -0.0959  2.6952 -0.1216
 9289TIP3    H249359   3.155   4.387   1.354 -0.6783  0.4349 -1.6934
 9290TIP3   OH249360   4.681   1.756   3.585 -0.7995 -0.2633 -0.5233
 9290TIP3    H149361   4.717   1.785   3.501 -0.2408  0.4274 -0.0705
 9290TIP3    H249362   4.732   1.678   3.607 -0.3323  0.0646 -0.4164
 9291TIP3   OH249363   5.654   1.062  14.331  0.3165 -0.5515  0.0867
 9291TIP3    H149364   5.618   1.058  14.420  0.5368 -1.9891  0.1309
 9291TIP3    H249365   5.733   1.116  14.340  0.1293 -0.3628  0.6865
 9292TIP3   OH249366   3.051   2.604   2.458 -0.4816 -0.1055  0.0406
 9292TIP3    H149367   3.123   2.550   2.426  0.5167  1.4874 -0.4454
 9292TIP3    H249368   2.991   2.540   2.498  0.4831 -1.6143 -0.8028
 9293TIP3   OH249369   1.630   2.610   3.658  0.6026  0.0909  0.2816
 9293TIP3    H149370   1.712   2.639   3.617 -1.0975  3.3447 -1.2301
 9293TIP3    H249371   1.573   2.687   3.654 -3.0922 -2.4168 -0.2053
 9294TIP3   OH249372   2.944   2.883  15.292  0.4347 -0.4539 -0.7160
 9294TIP3    H149373   2.937   2.873  15.387  2.5526 -2.3175 -0.6482
 9294TIP3    H249374   2.875   2.827  15.257  0.2559 -0.5253 -0.2642
 9295TIP3   OH249375   4.002   0.300   0.467 -0.7269 -0.3112  0.6045
 9295TIP3    H149376   3.935   0.284   0.534 -0.3620  0.0855  1.0791
 9295TIP3    H249377   4.037   0.386   0.489  0.0523 -0.5827  0.4640
 9296TIP3   OH249378   1.930   3.963   5.242 -0.1241 -0.0450  0.2035
 9296TIP3    H149379   2.015   3.972   5.286 -0.0602  1.2707 -0.1568
 9296TIP3    H249380   1.869   4.013   5.297 -0.4310 -0.0008 -0.1761
 9297TIP3   OH249381   2.431   2.388   2.477  0.0439 -0.6058 -0.0173
 9297TIP3    H149382   2.385   2.417   2.398  0.8211  2.3882  0.4788
 9297TIP3    H249383   2.361   2.355   2.535 -0.8595 -0.4498 -0.9891
 9298TIP3   OH249384   0.464   1.952   2.647  0.4258 -0.2465  0.0205
 9298TIP3    H149385   0.470   2.042   2.679 -2.5933  0.0036  0.1416
 9298TIP3    H249386   0.451   1.961   2.553 -3.6272 -0.1908  0.4097
 9299TIP3   OH249387   6.163   4.099   1.358 -0.1533 -0.0418  0.4569
 9299TIP3    H149388   6.078   4.061   1.336  0.3311 -0.2801 -1.0852
 9299TIP3    H249389   6.219   4.024   1.379 -0.0955  0.0656  0.7034
 9300TIP3   OH249390   0.685   2.654  14.640 -0.5123  0.0617 -0.0387
 9300TIP3    H149391   0.636   2.692  14.567 -0.3033  0.3470 -0.0343
 9300TIP3    H249392   0.694   2.562  14.618 -0.2635  0.1895 -0.4763
 9301TIP3   OH249393   6.335   0.904   5.739  0.1696  0.0847 -0.6084
 9301TIP3    H149394   6.330   0.996   5.711 -0.4894  0.6110  1.0903
 9301TIP3    H249395   6.426   0.894   5.770  0.3248  0.0736 -1.0613
 9302TIP3   OH249396   3.580   3.384  12.728 -0.1337  0.2680  0.3579
 9302TIP3    H149397   3.532   3.310  12.767  0.4252  0.3292  1.1909
 9302TIP3    H249398   3.671   3.357  12.731  0.3795  1.9077  2.9307
 9303TIP3   OH249399   1.983   3.394  14.296  0.1636 -0.2619  0.0856
 9303TIP3    H149400   2.055   3.358  14.349  1.3866 -0.5883 -1.7024
 9303TIP3    H249401   2.002   3.487  14.290  0.2120 -0.2786 -0.0335
 9304TIP3   OH249402   0.233   6.703   2.743 -0.1707 -0.0942 -0.3325
 9304TIP3    H149403   0.321   6.740   2.746 -0.3521  0.2774  1.5160
 9304TIP3    H249404   0.176   6.776   2.719 -0.0299 -0.2691 -1.2390
 9305TIP3   OH249405   6.065   0.186  17.008 -0.5030  0.3344 -0.0223
 9305TIP3    H149406   6.132   0.238  16.962 -1.2844  0.4722 -1.0468
 9305TIP3    H249407   6.048   0.234  17.089  0.6666  0.2683  0.2761
 9306TIP3   OH249408   5.988   6.062   2.294 -0.3457  0.3662  0.2622
 9306TIP3    H149409   6.011   6.059   2.201 -2.2884 -3.4843 -0.2485
 9306TIP3    H249410   6.073   6.069   2.339  0.8223 -0.1095 -1.7435
 9307TIP3   OH249411   6.594   1.706   0.306  0.1065  0.3886  0.4053
 9307TIP3    H149412   6.552   1.690   0.391  0.2899  1.4556  0.7160
 9307TIP3    H249413   6.658   1.636   0.297 -1.2043 -0.8360  0.2659
 9308TIP3   OH249414   3.408   4.021  14.490 -0.2408  0.3401 -0.0178
 9308TIP3    H149415   3.365   3.971  14.559 -0.9446  0.3980 -0.4054
 9308TIP3    H249416   3.367   3.990  14.409 -3.9385  4.4644 -0.1062
 9309TIP3   OH249417   5.190   1.089   1.858 -0.2748  0.3034  0.2440
 9309TIP3    H149418   5.134   1.082   1.935  0.2162 -1.6877  0.4621
 9309TIP3    H249419   5.218   1.181   1.858 -0.7865  0.5012  2.0724
 9310TIP3   OH249420   0.710   6.596   3.249  0.2771 -0.2581 -0.0485
 9310TIP3    H149421   0.741   6.663   3.188 -0.1616  0.9431  1.0050
 9310TIP3    H249422   0.617   6.585   3.228  0.5192 -1.1281 -0.7301
 9311TIP3   OH249423   3.818   6.200  15.974  0.8531  0.7819  0.2236
 9311TIP3    H149424   3.898   6.232  16.017  1.6596 -0.8880  0.0495
 9311TIP3    H249425   3.810   6.109  16.003 -1.1287  0.9600  0.3974
 9312TIP3   OH249426   6.188   2.249  14.870 -0.0567 -0.6251  0.5909
 9312TIP3    H149427   6.162   2.162  14.841 -0.2838  0.2365 -2.1748
 9312TIP3    H249428   6.268   2.268  14.820 -0.7592  1.2164  0.0711
 9313TIP3   OH249429   0.889   4.621   5.127  0.2645  0.0761  0.2704
 9313TIP3    H149430   0.982   4.605   5.143  0.5358  0.3327 -0.9621
 9313TIP3    H249431   0.868   4.697   5.181  0.8904  0.3128  0.1840
 9314TIP3   OH249432   5.802   6.458   5.050  0.0037 -0.1223  0.0371
 9314TIP3    H149433   5.846   6.396   5.109  0.1767 -0.4880 -0.4730
 9314TIP3    H249434   5.788   6.536   5.104  1.2173 -0.0252  0.2230
 9315TIP3   OH249435   3.799   0.118  16.176 -0.2162  0.0122 -0.0804
 9315TIP3    H149436   3.727   0.111  16.240 -1.6384 -0.6201 -1.6695
 9315TIP3    H249437   3.784   0.203  16.134  0.2040  0.0505 -0.1521
 9316TIP3   OH249438   2.581   4.151   5.374  0.0222 -0.5035 -0.3070
 9316TIP3    H149439   2.664   4.105   5.384  0.2768 -0.6034 -2.4820
 9316TIP3    H249440   2.569   4.160   5.280 -1.8108  0.6753 -0.0208
 9317TIP3   OH249441   6.392   4.612   4.678 -0.1053  0.2899 -0.0614
 9317TIP3    H149442   6.459   4.550   4.650 -0.6987 -0.3759 -0.0434
 9317TIP3    H249443   6.426   4.698   4.654  1.2537  0.0668  0.9376
 9318TIP3   OH249444   1.451   4.584  11.893  0.0424 -0.1768  0.5387
 9318TIP3    H149445   1.367   4.543  11.870 -0.5433  0.7387  0.9746
 9318TIP3    H249446   1.513   4.547  11.830 -0.9925  0.2862 -0.8135
 9319TIP3   OH249447   5.567   6.336  12.359 -0.3606 -0.5080  0.3192
 9319TIP3    H149448   5.474   6.313  12.365 -0.5344 -0.5769 -1.8235
 9319TIP3    H249449   5.568   6.432  12.366 -0.4705 -0.5592  1.2241
 9320TIP3   OH249450   0.306   0.122   2.057  0.2003  0.4849  0.5905
 9320TIP3    H149451   0.286   0.032   2.083 -0.7964  0.6165  0.3205
 9320TIP3    H249452   0.271   0.176   2.128  1.1031  0.6517  0.9184
 9321TIP3   OH249453   3.642   4.713   6.153 -0.1589  0.3205  0.4590
 9321TIP3    H149454   3.548   4.701   6.137  0.2457  0.6731 -2.9674
 9321TIP3    H249455   3.649   4.797   6.198 -1.4218  1.1967 -0.9057
 9322TIP3   OH249456   4.575   5.731   1.397 -0.0058  0.3587  0.2135
 9322TIP3    H149457   4.554   5.824   1.405  1.1639  0.5315  1.5599
 9322TIP3    H249458   4.495   5.692   1.362 -1.4339  1.4761  2.0440
 9323TIP3   OH249459   6.297   5.578   5.902 -0.0058 -0.1331 -0.6363
 9323TIP3    H149460   6.351   5.554   5.827 -0.0358 -0.3380 -0.5936
 9323TIP3    H249461   6.211   5.598   5.865 -0.2787 -1.1327 -0.5619
 9324TIP3   OH249462   0.865   1.598  10.493  0.7735  0.1973  0.5981
 9324TIP3    H149463   0.840   1.665  10.430 -1.9213  1.4098  2.7013
 9324TIP3    H249464   0.903   1.647  10.566  1.7696 -0.9353  0.8720
 9325TIP3   OH249465   2.508   4.394  12.258  0.2321 -0.6037  0.5374
 9325TIP3    H149466   2.440   4.418  12.195  0.6460  0.6557  0.5476
 9325TIP3    H249467   2.462   4.391  12.342 -0.0116 -0.7887  0.3995
 9326TIP3   OH249468   4.170   4.033   2.743 -0.3079 -0.0544  0.0185
 9326TIP3    H149469   4.261   4.061   2.753 -0.5940  0.5237  1.1179
 9326TIP3    H249470   4.172   3.938   2.753 -0.0108  0.0933  1.6362
 9327TIP3   OH249471   6.656   6.419   3.911  0.1133  0.2723 -0.1744
 9327TIP3    H149472   6.740   6.457   3.939  0.6029  0.3011 -1.5852
 9327TIP3    H249473   6.608   6.493   3.874 -0.7622  0.3550  1.1005
 9328TIP3   OH249474   0.521   2.354   0.197  0.4800 -0.2182 -0.3283
 9328TIP3    H149475   0.583   2.427   0.199 -0.8254  1.0062 -2.0265
 9328TIP3    H249476   0.512   2.328   0.289  2.2861  0.5904  0.1238
 9329TIP3   OH249477   4.152   0.330  13.985  0.4098  0.2364  0.1358
 9329TIP3    H149478   4.194   0.381  14.055  1.9544 -1.3187  0.4055
 9329TIP3    H249479   4.079   0.287  14.028 -1.1050  2.3499 -0.1572
 9330TIP3   OH249480   3.764   3.382  14.376  0.1326  0.7191 -0.0896
 9330TIP3    H149481   3.855   3.377  14.348 -0.5933  0.0950 -2.5766
 9330TIP3    H249482   3.756   3.469  14.415  1.8893  0.5606  0.7577
 9331TIP3   OH249483   0.314   6.231   1.079  0.2394 -0.3565  0.0150
 9331TIP3    H149484   0.342   6.147   1.044 -0.9267 -0.7331 -0.0734
 9331TIP3    H249485   0.289   6.282   1.002  0.8559  0.0380  0.0751
 9332TIP3   OH249486   5.738   2.877  13.330 -0.5236  0.0550  0.4587
 9332TIP3    H149487   5.780   2.803  13.374  2.5881  1.0926 -0.5174
 9332TIP3    H249488   5.808   2.942  13.320 -2.5164  2.1376 -0.9312
 9333TIP3   OH249489   1.690   6.012   5.980  0.0367  0.2688 -0.3973
 9333TIP3    H149490   1.646   6.020   6.065 -1.9494 -1.8114 -1.1021
 9333TIP3    H249491   1.647   6.077   5.925 -0.5661 -0.1845 -0.4749
 9334TIP3   OH249492   3.425   5.731   3.948 -0.4001  0.2448 -0.2402
 9334TIP3    H149493   3.442   5.822   3.972 -0.4499  0.0781  0.4457
 9334TIP3    H249494   3.409   5.687   4.032 -0.1070 -0.4475 -0.5403
 9335TIP3   OH249495   4.739   4.455  16.850  0.3009  0.1975 -0.0876
 9335TIP3    H149496   4.765   4.364  16.841  0.2904  0.2433 -0.5926
 9335TIP3    H249497   4.706   4.480  16.764  1.1381  0.9422 -0.2081
 9336TIP3   OH249498   0.568   0.685   1.177 -0.2326  0.4607 -0.4324
 9336TIP3    H149499   0.576   0.747   1.104 -0.6696 -0.4110 -1.2376
 9336TIP3    H249500   0.508   0.729   1.238  0.3077  1.2911 -0.4773
 9337TIP3   OH249501   3.681   5.234  16.995  0.3216  0.1134 -0.0508
 9337TIP3    H149502   3.738   5.258  17.068  1.3635 -0.2350 -0.7181
 9337TIP3    H249503   3.713   5.148  16.967 -1.6672 -0.8966  0.6467
 9338TIP3   OH249504   1.257   4.751  14.425  0.3359  0.5810  0.5721
 9338TIP3    H149505   1.328   4.687  14.424 -0.8442 -0.8332  2.1888
 9338TIP3    H249506   1.241   4.770  14.333 -0.9785 -3.4985 -0.2467
 9339TIP3   OH249507   1.175   2.209   2.520  0.5232 -0.3442  0.0778
 9339TIP3    H149508   1.265   2.239   2.529  0.1340  1.0226 -0.2387
 9339TIP3    H249509   1.131   2.280   2.473 -0.7949 -0.8187  0.5469
 9340TIP3   OH249510   6.764   3.003  11.806 -0.6108  0.2657  0.2428
 9340TIP3    H149511   6.787   2.950  11.882  1.2896  1.7214  0.7651
 9340TIP3    H249512   6.705   2.948  11.755 -1.8461 -0.8188  2.6740
 9341TIP3   OH249513   6.792   0.418   6.263 -0.0743  0.1608 -0.3960
 9341TIP3    H149514   6.710   0.458   6.235 -0.2425  0.0793 -0.0219
 9341TIP3    H249515   6.781   0.404   6.357  0.3387  0.0803 -0.3586
 9342TIP3   OH249516   4.267   5.832  12.631 -0.1556 -0.2939  0.3733
 9342TIP3    H149517   4.256   5.926  12.646  1.3711 -0.3006  1.8336
 9342TIP3    H249518   4.348   5.825  12.580 -0.8546 -0.7733 -0.6939
 9343TIP3   OH249519   4.601   5.217  15.647 -0.1696 -0.0571  0.0158
 9343TIP3    H149520   4.685   5.172  15.641 -0.5808 -0.8989  0.3939
 9343TIP3    H249521   4.610   5.275  15.722 -0.1335 -0.6349  0.4718
 9344TIP3   OH249522   3.906   3.638  14.976  1.1430  0.6474  0.1747
 9344TIP3    H149523   3.914   3.545  14.955 -0.5523  1.0273 -2.6946
 9344TIP3    H249524   3.839   3.642  15.044  0.9801 -0.2158  0.0762
 9345TIP3   OH249525   2.638   0.877  11.464  0.0495  0.1776  0.4544
 9345TIP3    H149526   2.675   0.797  11.428  1.3805  1.0948 -0.3067
 9345TIP3    H249527   2.598   0.850  11.546 -0.4027 -1.4327 -0.2441
 9346TIP3   OH249528   5.880   6.816   5.946 -0.2727 -0.0278  0.2329
 9346TIP3    H149529   5.822   6.741   5.929 -0.4202  0.0165  0.5394
 9346TIP3    H249530   5.821   6.886   5.975  0.0553 -0.3716  1.8154
 9347TIP3   OH249531   5.144   1.043  16.742 -0.0256  0.4012 -0.0155
 9347TIP3    H149532   5.127   1.133  16.714 -0.8838  0.1257 -0.4224
 9347TIP3    H249533   5.228   1.020  16.702 -0.1057  0.8077 -0.4201
 9348TIP3   OH249534   4.597   6.379   4.813 -0.2170  0.5263  0.3302
 9348TIP3    H149535   4.604   6.328   4.894 -1.1442  0.0701  0.1315
 9348TIP3    H249536   4.645   6.460   4.832  0.8467 -0.1969  0.8222
 9349TIP3   OH249537   6.257   1.507   3.819 -0.4974 -0.1354 -0.4313
 9349TIP3    H149538   6.329   1.516   3.881 -0.3540  0.0098 -0.6194
 9349TIP3    H249539   6.278   1.428   3.769 -0.3440  0.0451 -0.6517
 9350TIP3   OH249540   6.140   3.551   3.085 -0.3613 -0.1015  0.1644
 9350TIP3    H149541   6.208   3.586   3.028 -0.4772 -0.4390 -0.1826
 9350TIP3    H249542   6.184   3.537   3.169  0.3373 -1.5601 -0.4154
 9351TIP3   OH249543   6.565   6.171   6.039 -0.0442 -0.2390  0.2421
 9351TIP3    H149544   6.617   6.090   6.042 -0.3894 -0.4361  2.0847
 9351TIP3    H249545   6.606   6.227   6.104 -0.3852  0.7338 -0.3674
 9352TIP3   OH249546   1.042   6.186   0.498  0.0177  0.1638 -0.1000
 9352TIP3    H149547   1.062   6.158   0.409  2.1916  0.3769  0.2683
 9352TIP3    H249548   1.128   6.201   0.538 -0.8147 -1.1767  2.4244
 9353TIP3   OH249549   2.925   5.286   1.987  0.1865  0.2240  0.3519
 9353TIP3    H149550   2.843   5.316   1.946  1.6958  2.1196 -1.5557
 9353TIP3    H249551   2.992   5.342   1.948  2.3231 -0.7529  2.4151
 9354TIP3   OH249552   4.847   4.737   3.239  0.0804  0.2939 -0.6228
 9354TIP3    H149553   4.806   4.794   3.304  0.5281 -0.4014  0.2837
 9354TIP3    H249554   4.790   4.661   3.233  0.9453 -0.4586  0.2910
 9355TIP3   OH249555   5.376   1.493   5.788  0.1264 -0.0099 -0.2914
 9355TIP3    H149556   5.396   1.474   5.880 -0.2613 -1.7378 -0.5255
 9355TIP3    H249557   5.280   1.490   5.783  0.1493 -0.0704 -0.7823
 9356TIP3   OH249558   1.850   4.943   2.533  0.2658  0.6977  0.3922
 9356TIP3    H149559   1.786   4.882   2.569  1.0760  0.1894  1.0128
 9356TIP3    H249560   1.805   5.027   2.531 -1.1771 -0.0520 -1.3116
 9357TIP3   OH249561   1.637   6.772  11.334 -0.1870  0.0492  0.0966
 9357TIP3    H149562   1.603   6.698  11.282  1.0000  0.1748 -0.9112
 9357TIP3    H249563   1.731   6.769  11.321 -0.1374  1.9771 -0.2883
 9358TIP3   OH249564   1.104   2.838   1.947  0.1928  0.2705  0.0834
 9358TIP3    H149565   1.080   2.746   1.943 -2.3721  0.8743 -2.9226
 9358TIP3    H249566   1.091   2.863   2.038 -0.4287 -2.0246  0.6652
 9359TIP3   OH249567   2.168   0.607  12.471 -0.2002 -0.1168 -0.0255
 9359TIP3    H149568   2.096   0.632  12.413 -1.6384 -1.5689  1.0203
 9359TIP3    H249569   2.125   0.556  12.540  1.9887 -2.1872 -0.0783
 9360TIP3   OH249570   5.890   2.708  16.294 -0.2924 -0.0861 -0.2194
 9360TIP3    H149571   5.942   2.637  16.258 -0.2273  0.2727 -0.8534
 9360TIP3    H249572   5.943   2.744  16.365  0.7416  0.8237 -1.3996
 9361TIP3   OH249573   6.194   2.785   1.542  0.4395 -0.1876 -0.3169
 9361TIP3    H149574   6.182   2.690   1.552  1.7557 -0.4217 -0.8639
 9361TIP3    H249575   6.248   2.794   1.464  1.9007  0.9214  0.7783
 9362TIP3   OH249576   0.632   0.268   0.699 -0.0733 -0.1911  0.2811
 9362TIP3    H149577   0.665   0.227   0.619  0.3597  0.3872  0.1533
 9362TIP3    H249578   0.656   0.207   0.769 -1.6878 -1.3861 -0.1530
 9363TIP3   OH249579   2.539   6.159  16.857  0.3658  0.0953 -0.3700
 9363TIP3    H149580   2.532   6.204  16.941 -2.7048  0.4345 -0.6886
 9363TIP3    H249581   2.530   6.229  16.792  0.1962 -0.4355 -0.9291
 9364TIP3   OH249582   6.367   5.593  13.922  0.5015 -0.1318  0.2164
 9364TIP3    H149583   6.432   5.572  13.855  1.5032 -0.4649  1.2690
 9364TIP3    H249584   6.357   5.513  13.973 -0.5429 -0.0009  0.2488
 9365TIP3   OH249585   0.244   3.074  16.087 -0.1537  0.2085 -0.1083
 9365TIP3    H149586   0.283   3.013  16.150  2.9863  2.2811  0.1535
 9365TIP3    H249587   0.174   3.023  16.045  1.6984 -3.3079  0.6507
 9366TIP3   OH249588   5.375   5.652   0.326  0.1722 -0.6129 -0.2327
 9366TIP3    H149589   5.393   5.588   0.257  0.4857 -3.1024  1.9935
 9366TIP3    H249590   5.291   5.624   0.362 -1.0387  1.9075 -0.8311
 9367TIP3   OH249591   6.305   2.547  11.249 -0.7135  0.0635  0.1152
 9367TIP3    H149592   6.314   2.510  11.161 -0.5275  0.4434 -0.0250
 9367TIP3    H249593   6.382   2.603  11.260 -1.9885  2.0158 -0.4419
 9368TIP3   OH249594   3.783   3.979   4.818 -0.1044 -0.8241  0.5300
 9368TIP3    H149595   3.693   3.954   4.799 -0.2810 -0.4564  0.8679
 9368TIP3    H249596   3.776   4.050   4.881  0.4590 -1.7955  1.7226
 9369TIP3   OH249597   5.556   6.544  14.980  0.4648  0.0215 -0.0564
 9369TIP3    H149598   5.496   6.471  14.966  3.9314 -3.5359  1.7779
 9369TIP3    H249599   5.581   6.572  14.892  1.3142 -3.1840 -0.9419
 9370TIP3   OH249600   5.959   3.839   3.755  0.2277  0.3892 -0.1544
 9370TIP3    H149601   5.885   3.899   3.744  1.0947  1.6557  0.6925
 9370TIP3    H249602   6.034   3.896   3.771  0.9607 -0.9290  1.4314
 9371TIP3   OH249603   1.324   4.234  11.124 -0.4365  0.3423  0.0896
 9371TIP3    H149604   1.299   4.316  11.168 -1.4292  1.0349 -1.6906
 9371TIP3    H249605   1.420   4.239  11.118 -0.5052  1.5737 -0.3267
 9372TIP3   OH249606   1.220   0.732  12.693  0.1828  0.0066 -0.2704
 9372TIP3    H149607   1.158   0.730  12.766 -0.1648 -0.1731 -0.5694
 9372TIP3    H249608   1.192   0.806  12.640  1.4935  1.2266  0.6938
 9373TIP3   OH249609   4.997   2.793  15.659 -0.2112  0.3634 -0.0232
 9373TIP3    H149610   5.013   2.884  15.636  0.5363  0.2533  0.0397
 9373TIP3    H249611   4.931   2.763  15.596  0.0356  0.7523 -0.4694
 9374TIP3   OH249612   0.573   2.825   5.497 -0.4797  0.4561  0.0709
 9374TIP3    H149613   0.495   2.791   5.541 -1.3088  0.1322 -1.5891
 9374TIP3    H249614   0.646   2.790   5.548 -1.3442 -1.9848 -0.2284
 9375TIP3   OH249615   5.454   3.262   6.871 -0.1677  0.2689  0.0769
 9375TIP3    H149616   5.511   3.206   6.924 -0.7837 -1.1525 -0.7089
 9375TIP3    H249617   5.385   3.203   6.840 -0.5857  1.3723 -1.1613
 9376TIP3   OH249618   2.767   2.401   5.695  0.4080  0.6877 -0.1492
 9376TIP3    H149619   2.732   2.371   5.779  2.3498  0.1083  0.5135
 9376TIP3    H249620   2.862   2.388   5.703  0.6766  1.0016 -2.2902
 9377TIP3   OH249621   0.198   2.364   0.680  0.3353 -0.0395  0.1791
 9377TIP3    H149622   0.284   2.342   0.645  0.8048  2.3188 -0.3764
 9377TIP3    H249623   0.171   2.441   0.628 -1.6618 -0.1307  1.0039
 9378TIP3   OH249624   2.786   4.565  12.830  0.4797  0.3205  0.1760
 9378TIP3    H149625   2.802   4.573  12.736  0.9559  0.6078  0.2790
 9378TIP3    H249626   2.693   4.542  12.837 -0.4831  3.6564 -0.2496
 9379TIP3   OH249627   4.042   1.920   2.752 -0.6346  0.1903 -0.4649
 9379TIP3    H149628   3.965   1.869   2.777  0.0365  0.0198  1.4028
 9379TIP3    H249629   4.048   1.989   2.818 -0.3437  1.4901 -1.7725
 9380TIP3   OH249630   6.643   5.480  11.558  0.0123 -0.0810  0.5021
 9380TIP3    H149631   6.738   5.492  11.553  0.2182 -0.8960  1.8966
 9380TIP3    H249632   6.615   5.544  11.624  0.0658 -1.8473  2.3462
 9381TIP3   OH249633   3.256   3.671   4.732 -0.0416 -0.9366 -0.2517
 9381TIP3    H149634   3.276   3.731   4.660 -0.9257  1.6961  1.5476
 9381TIP3    H249635   3.160   3.670   4.736 -0.0004 -0.9140  0.9616
 9382TIP3   OH249636   0.520   2.167   1.573 -0.3482 -0.7425  0.1071
 9382TIP3    H149637   0.479   2.153   1.658 -0.8075  2.4879  0.5364
 9382TIP3    H249638   0.609   2.134   1.584 -0.3608 -0.2912  1.8929
 9383TIP3   OH249639   5.884   6.066  12.346  0.3901 -0.1973  0.0684
 9383TIP3    H149640   5.859   6.121  12.272  1.7685  1.4383  0.7550
 9383TIP3    H249641   5.800   6.038  12.384 -0.3418 -0.6996 -1.7912
 9384TIP3   OH249642   3.590   2.912  13.379  0.4468 -0.3672  0.3030
 9384TIP3    H149643   3.616   2.880  13.465 -2.1453 -0.4898  1.1170
 9384TIP3    H249644   3.606   2.838  13.320  0.2901 -1.0275  1.0655
 9385TIP3   OH249645   3.992   4.795  15.941  0.1031  0.1726  0.6248
 9385TIP3    H149646   3.979   4.888  15.962  4.1095  1.0671  0.0069
 9385TIP3    H249647   4.007   4.752  16.025  1.5740  0.8382  0.7410
 9386TIP3   OH249648   3.532   0.525   0.772 -0.3103  0.5916  0.1847
 9386TIP3    H149649   3.604   0.508   0.833  0.4003 -0.1090 -0.8076
 9386TIP3    H249650   3.454   0.491   0.816 -0.4751  3.2648  2.2090
 9387TIP3   OH249651   0.254   2.284   3.675 -0.0246 -0.2917  0.3342
 9387TIP3    H149652   0.250   2.217   3.744  0.4049  1.2072  1.8935
 9387TIP3    H249653   0.347   2.287   3.651 -0.1971 -0.9080 -0.4203
 9388TIP3   OH249654   6.652   2.335  14.934  0.2666  0.5386 -0.1660
 9388TIP3    H149655   6.656   2.264  14.998 -0.6595  0.3576 -0.2898
 9388TIP3    H249656   6.742   2.369  14.929 -0.0100  2.0707  2.8882
 9389TIP3   OH249657   0.113   5.406  15.537  0.0510  0.1394 -0.5344
 9389TIP3    H149658   0.108   5.361  15.622 -1.2834 -0.2901 -0.8293
 9389TIP3    H249659   0.203   5.440  15.534 -0.4423  1.9674  1.9688
 9390TIP3   OH249660   5.073   3.121   0.116 -0.6772  0.4142 -0.3266
 9390TIP3    H149661   5.131   3.197   0.121 -1.9225  1.4295 -0.7464
 9390TIP3    H249662   4.986   3.157   0.135 -1.3935 -0.7675 -1.2771
 9391TIP3   OH249663   1.708   0.626  12.499 -0.3594  0.5419 -0.0137
 9391TIP3    H149664   1.753   0.710  12.501 -1.5454  1.1987 -0.0172
 9391TIP3    H249665   1.710   0.596  12.590 -0.4159  0.8415  0.0873
 9392TIP3   OH249666   4.024   3.268   3.703  0.2831 -0.2785 -0.1733
 9392TIP3    H149667   4.034   3.283   3.797  0.1126  0.3125 -0.2475
 9392TIP3    H249668   3.939   3.305   3.681  0.5081 -0.0288 -0.6399
 9393TIP3   OH249669   3.990   6.197  13.890  0.3973 -0.1427 -0.3068
 9393TIP3    H149670   3.972   6.285  13.922 -1.1518 -0.5940  0.1516
 9393TIP3    H249671   3.914   6.146  13.918  0.1897 -1.1283 -2.4891
 9394TIP3   OH249672   3.717   4.563  15.489 -0.6617 -0.0032  0.2269
 9394TIP3    H149673   3.653   4.625  15.454 -0.9796 -1.2497 -1.5559
 9394TIP3    H249674   3.798   4.583  15.441 -0.8996 -1.2344 -0.7461
 9395TIP3   OH249675   4.651   6.631   5.146 -0.7381 -0.0085 -0.4292
 9395TIP3    H149676   4.583   6.676   5.196 -2.2123 -1.9471 -0.5938
 9395TIP3    H249677   4.632   6.654   5.055 -0.7790 -0.0354 -0.4277
 9396TIP3   OH249678   2.372   4.865   0.075 -0.2670  0.0915 -0.0512
 9396TIP3    H149679   2.370   4.957   0.048 -1.3547 -0.0456 -0.5206
 9396TIP3    H249680   2.340   4.817  -0.001 -1.0488 -0.5415  0.6479
 9397TIP3   OH249681   4.465   1.691   2.327  0.5732  0.4648 -0.7069
 9397TIP3    H149682   4.418   1.714   2.407 -0.0004 -0.2076 -0.8373
 9397TIP3    H249683   4.552   1.728   2.339  0.9866 -0.9084  0.9093
 9398TIP3   OH249684   3.612   0.062   0.016 -0.3501  0.5679  0.3016
 9398TIP3    H149685   3.689   0.112   0.044 -0.2877  1.1821 -0.9201
 9398TIP3    H249686   3.539   0.101   0.065 -0.3877  2.2478 -1.0282
 9399TIP3   OH249687   3.540   0.060   5.786 -0.7072 -0.4529  0.7158
 9399TIP3    H149688   3.554   0.153   5.768 -0.3894 -0.1487  2.3483
 9399TIP3    H249689   3.452   0.056   5.823 -0.2398 -0.5892  1.8607
 9400TIP3   OH249690   1.350   3.278   1.070 -0.5526  0.6172 -0.0965
 9400TIP3    H149691   1.376   3.187   1.085  1.4282  1.1654  0.1201
 9400TIP3    H249692   1.426   3.329   1.099 -1.0298  2.2638 -1.5754
 9401TIP3   OH249693   6.399   2.212   5.733  0.4886  0.1092 -0.1663
 9401TIP3    H149694   6.394   2.180   5.823 -0.5595  1.4265  0.2839
 9401TIP3    H249695   6.488   2.192   5.705  0.3356 -1.8126  0.5657
 9402TIP3   OH249696   5.446   1.243  13.863  0.0258  0.3622  0.1452
 9402TIP3    H149697   5.536   1.217  13.883 -0.7764 -0.9065  2.6306
 9402TIP3    H249698   5.427   1.314  13.925 -1.3047 -0.8789  1.2589
 9403TIP3   OH249699   3.866   1.922   1.411 -0.1739 -0.5690  0.7689
 9403TIP3    H149700   3.886   1.951   1.499  1.4537 -0.0450  0.2561
 9403TIP3    H249701   3.781   1.961   1.391 -0.5211 -0.6400  2.0573
 9404TIP3   OH249702   5.396   0.107  15.334  0.8950 -0.3680 -0.0623
 9404TIP3    H149703   5.410   0.200  15.351 -1.6933  0.1671 -0.4488
 9404TIP3    H249704   5.424   0.095  15.243  0.2916  0.2798 -0.3423
 9405TIP3   OH249705   4.135   4.591  14.110 -0.5413  0.1251 -0.4780
 9405TIP3    H149706   4.127   4.593  14.205 -0.2503  1.7636 -0.4543
 9405TIP3    H249707   4.045   4.584  14.078 -0.6240 -0.6787 -0.1042
 9406TIP3   OH249708   6.089   4.273   6.010  0.0422  0.0165 -0.8498
 9406TIP3    H149709   6.055   4.323   6.084  0.5509 -0.3242 -0.3691
 9406TIP3    H249710   6.012   4.253   5.957 -0.5548 -0.9079  0.3034
 9407TIP3   OH249711   0.751   5.092  12.616 -0.2902  0.1475 -0.0981
 9407TIP3    H149712   0.673   5.142  12.591  0.0508  0.0207 -1.5119
 9407TIP3    H249713   0.717   5.009  12.648 -0.7486  0.2611 -0.2781
 9408TIP3   OH249714   0.921   0.786   1.347  0.2153  0.2171  0.1025
 9408TIP3    H149715   0.887   0.697   1.350  0.6185  0.0786  0.4936
 9408TIP3    H249716   0.927   0.813   1.438 -0.6597  0.9368 -0.0291
 9409TIP3   OH249717   6.801   3.104   2.217  0.2209 -0.3634  0.0081
 9409TIP3    H149718   6.805   3.008   2.219 -1.2994 -0.5059 -1.5145
 9409TIP3    H249719   6.851   3.132   2.294  4.3810 -2.2182 -1.7510
 9410TIP3   OH249720   2.151   4.383   1.707  0.0077 -0.7593  0.4379
 9410TIP3    H149721   2.193   4.302   1.679  0.1194 -0.9691  1.1872
 9410TIP3    H249722   2.192   4.451   1.654  0.6386 -1.0742  0.5124
 9411TIP3   OH249723   2.531   4.742  10.812 -0.1833  0.1206 -1.0129
 9411TIP3    H149724   2.580   4.661  10.823  0.8040  0.9460  1.4031
 9411TIP3    H249725   2.569   4.783  10.735  2.8952  0.6069  0.6167
 9412TIP3   OH249726   3.571   2.217  13.801 -0.6108  0.2482  0.2363
 9412TIP3    H149727   3.508   2.151  13.771 -2.8296  2.4830 -0.3891
 9412TIP3    H249728   3.526   2.263  13.873  0.6997  1.3109  0.4297
 9413TIP3   OH249729   4.433   0.693  15.796 -0.1533  0.1474 -0.5040
 9413TIP3    H149730   4.481   0.610  15.795  0.3010  0.4055 -1.5569
 9413TIP3    H249731   4.479   0.747  15.860 -0.0715 -0.1978 -0.2717
 9414TIP3   OH249732   5.850   0.148  13.370 -0.0680 -0.6736  0.1928
 9414TIP3    H149733   5.877   0.240  13.367 -0.8639 -0.3124  2.3872
 9414TIP3    H249734   5.818   0.130  13.282  0.9629  0.8657 -0.5454
 9415TIP3   OH249735   4.608   2.402  16.546 -0.3091  0.2294  0.6407
 9415TIP3    H149736   4.654   2.410  16.463 -1.1174  2.3063  0.3398
 9415TIP3    H249737   4.671   2.357  16.604  0.8348  0.1123 -0.6456
 9416TIP3   OH249738   0.149   0.134   2.684 -0.6102  0.0288  0.2414
 9416TIP3    H149739   0.162   0.223   2.652 -0.3561  0.0957  0.5270
 9416TIP3    H249740   0.113   0.145   2.772  1.1194 -0.1165  1.0158
 9417TIP3   OH249741   0.278   5.140  16.166  0.2476 -0.5505  0.6034
 9417TIP3    H149742   0.270   5.140  16.261 -0.3532  2.7583  0.6794
 9417TIP3    H249743   0.194   5.107  16.134 -0.1826 -0.1089  1.2556
 9418TIP3   OH249744   4.301   4.869  10.984  0.5111 -0.0286 -0.2367
 9418TIP3    H149745   4.342   4.897  11.066  0.7437 -0.8448 -0.0594
 9418TIP3    H249746   4.375   4.854  10.925  0.5293 -1.7131  0.1480
 9419TIP3   OH249747   3.695   0.841   5.812  0.3088  0.7705 -0.0106
 9419TIP3    H149748   3.742   0.769   5.771  0.0948  0.7656 -0.2508
 9419TIP3    H249749   3.651   0.802   5.887  0.6605  0.7701  0.2017
 9420TIP3   OH249750   4.521   6.375   6.398 -0.8535  0.5193 -0.5027
 9420TIP3    H149751   4.555   6.449   6.449  0.5588 -1.6637  1.9252
 9420TIP3    H249752   4.449   6.340   6.450 -1.3352 -0.0174 -1.4979
 9421TIP3   OH249753   3.374   5.535  13.695 -0.5831  0.3182 -0.1503
 9421TIP3    H149754   3.450   5.478  13.706 -0.3995  0.3542 -1.2056
 9421TIP3    H249755   3.381   5.569  13.606  0.0295  3.0424  0.8369
 9422TIP3   OH249756   4.011   5.142  14.396 -0.5429  0.2319 -0.5697
 9422TIP3    H149757   3.986   5.071  14.455 -0.0913 -1.2460 -2.0709
 9422TIP3    H249758   3.981   5.113  14.310 -0.1589  1.7911 -1.2562
 9423TIP3   OH249759   2.567   1.787  15.787  0.0330 -0.1453  0.1429
 9423TIP3    H149760   2.501   1.727  15.751  0.1889  0.2084 -0.7386
 9423TIP3    H249761   2.645   1.772  15.733  0.0202  0.9754 -0.2050
 9424TIP3   OH249762   0.256   1.727  14.131 -0.4166  0.3577 -0.8833
 9424TIP3    H149763   0.284   1.804  14.080 -0.2514 -0.1052 -1.5020
 9424TIP3    H249764   0.335   1.674  14.139 -0.6656 -0.0240 -0.9523
 9425TIP3   OH249765   2.079   6.569  14.610  0.5803 -0.2367 -0.0585
 9425TIP3    H149766   2.043   6.545  14.524  0.4110  0.3482 -0.1551
 9425TIP3    H249767   2.132   6.493  14.636  1.0984 -0.1940 -0.9379
 9426TIP3   OH249768   3.003   3.013   4.762  0.3479 -0.6516 -0.0659
 9426TIP3    H149769   2.983   2.931   4.717 -0.5591  0.1314 -1.1679
 9426TIP3    H249770   3.067   3.057   4.705 -1.0304  0.4846 -0.7876
 9427TIP3   OH249771   5.970   6.233  12.788  0.3932  0.0593  0.3935
 9427TIP3    H149772   5.937   6.300  12.848  0.1529 -0.9280  1.3708
 9427TIP3    H249773   5.893   6.183  12.763  0.4154  0.6832 -1.0799
 9428TIP3   OH249774   6.417   5.611  14.858 -0.0282 -0.2100  0.3036
 9428TIP3    H149775   6.354   5.634  14.926 -0.0519  0.5308  0.0457
 9428TIP3    H249776   6.391   5.523  14.829 -0.3108 -0.3263  0.9089
 9429TIP3   OH249777   6.438   4.637  14.455 -0.3745  0.2505 -0.7563
 9429TIP3    H149778   6.424   4.727  14.484 -0.0066 -0.1545  0.7777
 9429TIP3    H249779   6.458   4.645  14.362 -0.6763  1.7164 -0.7270
 9430TIP3   OH249780   3.943   0.104   1.410 -0.5497 -0.2342  0.3008
 9430TIP3    H149781   3.971   0.117   1.320 -0.1188  2.1259  0.7185
 9430TIP3    H249782   3.999   0.161   1.462 -0.7798 -1.5395  2.1036
 9431TIP3   OH249783   3.808   1.390  11.666 -0.1742  0.4901  0.9797
 9431TIP3    H149784   3.799   1.419  11.575  3.2950 -1.3453 -0.1253
 9431TIP3    H249785   3.826   1.296  11.659 -1.1535  0.0111  3.7173
 9432TIP3   OH249786   5.462   4.451   3.558 -0.1042  0.0010 -0.3188
 9432TIP3    H149787   5.536   4.431   3.616  0.2587 -2.2098 -1.4141
 9432TIP3    H249788   5.395   4.486   3.616  0.7626 -0.7153  1.1874
 9433TIP3   OH249789   0.462   4.749  12.019  0.1526  0.3760 -0.5193
 9433TIP3    H149790   0.368   4.730  12.016  0.5334 -1.4994 -2.7263
 9433TIP3    H249791   0.490   4.714  12.104 -1.1879  1.5957  0.4983
 9434TIP3   OH249792   0.621   4.787   5.380 -0.3917 -0.1115  0.4827
 9434TIP3    H149793   0.587   4.876   5.373 -0.0835 -0.0206  0.0811
 9434TIP3    H249794   0.716   4.797   5.368 -0.1934 -0.3450  1.6378
 9435TIP3   OH249795   6.079   6.793   3.772  0.0457 -0.0000 -0.3697
 9435TIP3    H149796   6.125   6.863   3.818  1.1891 -0.8474 -0.1637
 9435TIP3    H249797   6.016   6.760   3.836 -0.0850  0.4493 -0.2650
 9436TIP3   OH249798   2.384   0.171   5.022 -0.0938 -0.1809  0.0091
 9436TIP3    H149799   2.397   0.088   4.975  1.8563  0.2134 -0.2478
 9436TIP3    H249800   2.292   0.192   5.009 -0.4001 -1.8262 -0.7357
 9437TIP3   OH249801   4.572   5.423   4.066 -0.4931 -0.4777 -0.1124
 9437TIP3    H149802   4.534   5.494   4.119  2.0509  0.7596  0.2214
 9437TIP3    H249803   4.527   5.344   4.096  0.6515  0.1545  3.8454
 9438TIP3   OH249804   0.267   3.007   5.391  0.1086 -0.6516 -0.1417
 9438TIP3    H149805   0.298   3.013   5.481  2.9978  2.2463 -1.1320
 9438TIP3    H249806   0.346   3.004   5.338 -1.4925 -2.9235 -2.6575
 9439TIP3   OH249807   5.111   2.027   1.584  0.0032  0.3877 -0.2259
 9439TIP3    H149808   5.183   1.994   1.638  0.8532 -0.4685 -1.7966
 9439TIP3    H249809   5.053   2.070   1.645  1.2327  0.0047  1.2772
 9440TIP3   OH249810   3.977   1.143   4.943  0.1178  0.2279 -0.1310
 9440TIP3    H149811   3.969   1.075   5.010  0.6269  0.4203  0.1298
 9440TIP3    H249812   4.069   1.170   4.947  0.5480 -0.8442 -1.9581
 9441TIP3   OH249813   1.506   4.556   2.618 -0.3697  0.6511 -0.5785
 9441TIP3    H149814   1.529   4.464   2.615 -2.6627  0.0268 -3.9159
 9441TIP3    H249815   1.414   4.557   2.645 -0.4411  1.9293 -0.7943
 9442TIP3   OH249816   4.857   5.120   5.607 -0.3235  0.0100  0.1004
 9442TIP3    H149817   4.846   5.130   5.701 -0.4333 -1.8230  0.3126
 9442TIP3    H249818   4.905   5.199   5.580  1.4284 -0.3355  2.0081
 9443TIP3   OH249819   6.513   0.724   5.489 -0.1857 -0.1742  0.3510
 9443TIP3    H149820   6.501   0.650   5.549  2.1885 -1.9956 -1.2290
 9443TIP3    H249821   6.434   0.726   5.436 -0.1222 -1.9263  0.1387
 9444TIP3   OH249822   3.810   3.431   2.283  0.6906  0.0361 -0.5055
 9444TIP3    H149823   3.716   3.413   2.282  0.0364  2.8061  1.2650
 9444TIP3    H249824   3.846   3.364   2.341 -0.4856  0.0081  0.2357
 9445TIP3   OH249825   3.989   2.252  15.279 -0.2927  0.2141  0.0431
 9445TIP3    H149826   3.982   2.278  15.187 -0.1860 -2.5092 -0.8250
 9445TIP3    H249827   3.904   2.212  15.299 -0.3229  0.8011  1.1552
 9446TIP3   OH249828   3.606   3.844  14.914 -0.0547 -0.0929  0.2801
 9446TIP3    H149829   3.598   3.785  14.840  0.1052 -0.2461  0.3847
 9446TIP3    H249830   3.539   3.814  14.976 -0.9759  0.7436 -0.2723
 9447TIP3   OH249831   3.296   0.804   2.679  0.3344  0.5721  0.7150
 9447TIP3    H149832   3.265   0.803   2.769 -2.2626 -1.6048 -0.0594
 9447TIP3    H249833   3.319   0.713   2.661  0.3053  0.8633 -0.9568
 9448TIP3   OH249834   3.726   3.320   3.658 -0.1384 -0.0043  0.0123
 9448TIP3    H149835   3.691   3.404   3.689 -1.2559 -0.3098 -0.3786
 9448TIP3    H249836   3.711   3.260   3.731 -1.0114 -0.2732 -0.3709
 9449TIP3   OH249837   5.417   4.224  16.640 -0.2800 -0.0460  0.2640
 9449TIP3    H149838   5.490   4.283  16.619 -1.0525  0.8962  0.1458
 9449TIP3    H249839   5.386   4.254  16.725  0.1749 -1.1758  0.8499
 9450TIP3   OH249840   2.523   0.187  14.489  0.9883 -0.0297 -0.3940
 9450TIP3    H149841   2.548   0.169  14.399 -0.9996  0.0002 -1.0026
 9450TIP3    H249842   2.568   0.120  14.541  0.2759 -1.5777 -1.6884
 9451TIP3   OH249843   6.036   1.593  15.725 -0.9198 -0.6801  0.0272
 9451TIP3    H149844   6.127   1.616  15.704 -0.8947 -0.3146  0.5299
 9451TIP3    H249845   6.028   1.609  15.819 -1.3920 -1.1031  0.0607
 9452TIP3   OH249846   6.620   0.460   4.382  0.3720  0.1231  0.0456
 9452TIP3    H149847   6.646   0.438   4.471  1.7664  1.1381 -0.0690
 9452TIP3    H249848   6.526   0.473   4.387  0.4802  0.5605  1.4799
 9453TIP3   OH249849   1.412   2.529  15.131 -0.4237 -0.0245 -0.2875
 9453TIP3    H149850   1.379   2.522  15.221  0.3900 -0.4832 -0.0152
 9453TIP3    H249851   1.500   2.565  15.140 -0.5053  0.3501 -0.9375
 9454TIP3   OH249852   4.619   1.595   2.750 -0.0787 -0.9283 -0.3475
 9454TIP3    H149853   4.629   1.636   2.836 -1.7680 -2.6167  0.7374
 9454TIP3    H249854   4.545   1.640   2.710  0.7546 -0.0927 -0.9752
 9455TIP3   OH249855   5.688   5.010   2.172  0.1798 -0.0945  0.4794
 9455TIP3    H149856   5.750   4.981   2.106 -1.5534  0.0809 -1.3000
 9455TIP3    H249857   5.714   5.100   2.192  0.7892 -0.1936  0.1545
 9456TIP3   OH249858   2.753   6.259   0.615 -0.2483  0.6159  0.3602
 9456TIP3    H149859   2.762   6.350   0.644 -0.0601  1.0808 -1.0546
 9456TIP3    H249860   2.830   6.244   0.560 -0.9629  0.0382 -0.5139
 9457TIP3   OH249861   5.447   5.913   0.104 -0.1501 -0.2711  0.6789
 9457TIP3    H149862   5.477   5.870   0.024 -1.1044  1.2507 -0.5524
 9457TIP3    H249863   5.499   5.993   0.109  0.3209 -0.6251  1.9478
 9458TIP3   OH249864   4.632   6.340  16.835  0.8007  0.9190 -0.1404
 9458TIP3    H149865   4.542   6.351  16.866  0.5275 -0.8335 -0.1971
 9458TIP3    H249866   4.643   6.409  16.769 -1.7441 -0.8813 -2.6947
 9459TIP3   OH249867   3.996   4.684   1.055  0.3098  0.1745 -0.0765
 9459TIP3    H149868   3.938   4.643   0.990  1.3482 -3.6645  1.1180
 9459TIP3    H249869   4.084   4.662   1.025  0.9954  1.8242  0.6033
 9460TIP3   OH249870   4.561   6.651  13.693  0.5424 -0.3824 -0.2096
 9460TIP3    H149871   4.650   6.628  13.720  0.4066 -0.6275  0.0344
 9460TIP3    H249872   4.518   6.679  13.773  1.0226  1.8467 -0.6561
 9461TIP3   OH249873   3.810   2.781  14.784 -0.3082 -0.0365  0.0424
 9461TIP3    H149874   3.794   2.858  14.729 -1.0008 -0.9624 -1.1044
 9461TIP3    H249875   3.761   2.799  14.865 -3.2890 -0.6451 -1.4899
 9462TIP3   OH249876   3.156   3.089  14.078  0.4023 -0.0118 -0.0477
 9462TIP3    H149877   3.072   3.046  14.095  1.0419 -1.2029  0.1666
 9462TIP3    H249878   3.169   3.080  13.984 -0.9786  2.6176 -0.6111
 9463TIP3   OH249879   0.546   3.618   5.426 -0.0734  0.6611 -0.0788
 9463TIP3    H149880   0.562   3.696   5.480 -2.3362  1.4075 -0.3594
 9463TIP3    H249881   0.488   3.564   5.479 -3.2471  1.9013 -1.9754
 9464TIP3   OH249882   1.138   5.025  12.478  0.1816  0.6383 -0.4127
 9464TIP3    H149883   1.191   5.066  12.547 -1.4654  1.7699  0.2420
 9464TIP3    H249884   1.079   5.094  12.449  0.2972 -0.0494 -2.4443
 9465TIP3   OH249885   0.494   1.019  14.886  0.2074 -0.1933 -0.2035
 9465TIP3    H149886   0.415   1.051  14.929  0.3605  1.3375 -1.0248
 9465TIP3    H249887   0.463   0.945  14.833 -0.4765 -0.2372  0.2345
 9466TIP3   OH249888   6.669   1.960   5.775  0.3842 -0.0696  0.3737
 9466TIP3    H149889   6.715   1.959   5.692  0.8558  0.1490  0.6262
 9466TIP3    H249890   6.603   1.891   5.768  0.4316 -0.0586 -0.1720
 9467TIP3   OH249891   4.772   6.694   1.628  0.3652  0.0659  0.0870
 9467TIP3    H149892   4.784   6.628   1.697 -0.6314 -0.2616 -0.0431
 9467TIP3    H249893   4.777   6.778   1.674  1.0864 -0.1008  0.3367
 9468TIP3   OH249894   3.722   2.592   1.156  0.3058 -0.0577  0.1636
 9468TIP3    H149895   3.745   2.529   1.225  0.4556 -1.4869 -1.1389
 9468TIP3    H249896   3.762   2.674   1.185 -0.6440 -0.2832  2.3584
 9469TIP3   OH249897   0.646   4.986   5.094 -0.0186 -0.1271 -0.3111
 9469TIP3    H149898   0.601   4.904   5.115  1.4684 -1.1627 -1.0091
 9469TIP3    H249899   0.710   4.963   5.027 -0.1669  1.8032 -1.2047
 9470TIP3   OH249900   0.616   5.107   5.410  0.1900 -0.3490 -0.3566
 9470TIP3    H149901   0.678   5.125   5.339  0.4152  0.4402  0.0194
 9470TIP3    H249902   0.533   5.144   5.379 -0.5952 -2.9743 -1.6237
 9471TIP3   OH249903   1.670   2.049  16.131  0.0519  0.3165  0.0690
 9471TIP3    H149904   1.751   2.094  16.155  1.1884 -1.7679  0.3855
 9471TIP3    H249905   1.664   2.061  16.036  1.0582  0.0156 -0.0476
 9472TIP3   OH249906   2.162   1.989  14.669  0.3811  0.3382  0.0970
 9472TIP3    H149907   2.202   1.970  14.584  2.3582  1.4031  0.7443
 9472TIP3    H249908   2.175   1.909  14.720 -3.3316 -1.4553 -1.3410
 9473TIP3   OH249909   3.467   4.926  16.563  0.1955  0.4007 -0.0447
 9473TIP3    H149910   3.383   4.919  16.517  0.5935  0.0962 -0.7340
 9473TIP3    H249911   3.470   5.016  16.594  0.0634  0.7091 -0.9005
 9474TIP3   OH249912   5.971   4.313  10.442 -0.4998 -0.2844 -0.0195
 9474TIP3    H149913   6.051   4.291  10.491 -0.6007  0.7643  0.6479
 9474TIP3    H249914   5.947   4.232  10.398  1.5294 -0.3764 -1.0977
 9475TIP3   OH249915   1.746   2.146  15.880 -0.3022 -0.2100 -0.5327
 9475TIP3    H149916   1.830   2.099  15.889  0.6261  1.5266  0.3455
 9475TIP3    H249917   1.768   2.237  15.898 -2.4993  0.2101  0.2527
 9476TIP3   OH249918   1.256   6.101   2.135  0.2031 -0.1737 -0.1517
 9476TIP3    H149919   1.309   6.023   2.152  2.1600  0.6983 -1.8820
 9476TIP3    H249920   1.270   6.121   2.043 -1.3498  1.4722 -0.0986
 9477TIP3   OH249921   5.406   6.500  11.740 -0.2526 -0.1161 -0.1632
 9477TIP3    H149922   5.419   6.405  11.743  2.1948  0.1221 -0.9023
 9477TIP3    H249923   5.318   6.513  11.775  0.4082 -2.4110  2.7805
 9478TIP3   OH249924   4.538   4.061   6.186  0.3951 -0.1193  0.0857
 9478TIP3    H149925   4.508   4.024   6.270  1.0575 -0.1213  0.3261
 9478TIP3    H249926   4.631   4.039   6.182  0.7016  1.1010  0.0159
 9479TIP3   OH249927   0.013   2.944  14.030 -0.1438 -0.3798 -0.1735
 9479TIP3    H149928  -0.058   2.879  14.039 -1.3014  0.8360 -0.1763
 9479TIP3    H249929   0.061   2.916  13.952 -0.8792 -1.0025 -0.4219
 9480TIP3   OH249930   0.210   2.496  15.969 -0.1281 -0.1598 -0.0925
 9480TIP3    H149931   0.253   2.439  15.905  0.4860  1.5812 -1.2979
 9480TIP3    H249932   0.124   2.514  15.933  0.8233  2.2007 -1.3896
 9481TIP3   OH249933   2.559   1.259   0.950 -0.1484 -0.4392 -0.4025
 9481TIP3    H149934   2.522   1.189   0.897  0.8056  1.0211 -3.1692
 9481TIP3    H249935   2.503   1.335   0.932  1.1772  0.5083 -0.6381
 9482TIP3   OH249936   2.039   4.502  12.355  0.0040 -0.2528  0.0499
 9482TIP3    H149937   2.008   4.416  12.328 -1.6029  0.7173 -1.4576
 9482TIP3    H249938   1.998   4.517  12.440 -0.7913 -0.4666 -0.2859
 9483TIP3   OH249939   5.862   4.465  16.521  0.5729  0.3265  0.6073
 9483TIP3    H149940   5.894   4.374  16.520  0.7982  0.3995 -0.1586
 9483TIP3    H249941   5.770   4.458  16.543  0.4976 -0.1321  0.1814
 9484TIP3   OH249942   1.406   6.281   4.977  0.1338  0.2556  0.8022
 9484TIP3    H149943   1.336   6.345   4.964  1.0065  2.2032  4.3820
 9484TIP3    H249944   1.362   6.205   5.015 -0.1870  1.2187  2.4274
 9485TIP3   OH249945   3.414   1.059   3.526  0.5168 -0.3382 -0.2269
 9485TIP3    H149946   3.376   1.112   3.596  1.3035  0.7354 -0.5814
 9485TIP3    H249947   3.373   1.093   3.446  2.3210  1.0340 -0.6479
 9486TIP3   OH249948   4.801   1.240  11.075  0.1420  0.4612 -0.5376
 9486TIP3    H149949   4.709   1.219  11.058 -0.0725 -0.3740  1.3878
 9486TIP3    H249950   4.847   1.210  10.997 -0.8524 -2.0845 -0.2381
 9487TIP3   OH249951   6.465   4.234   2.526 -0.0448 -0.0593 -0.3253
 9487TIP3    H149952   6.374   4.262   2.517 -0.5651 -1.6774 -0.4938
 9487TIP3    H249953   6.509   4.272   2.451 -1.0022 -0.7441 -1.2681
 9488TIP3   OH249954   3.984   6.590  14.705  0.7417  0.5167 -0.2001
 9488TIP3    H149955   4.071   6.591  14.745 -0.1266  2.1452  1.8622
 9488TIP3    H249956   3.950   6.678  14.720 -0.8943  0.2290 -1.8631
 9489TIP3   OH249957   0.734   6.782  14.428 -0.2563 -0.0076  0.1780
 9489TIP3    H149958   0.787   6.809  14.503  2.1548  0.7214 -1.6426
 9489TIP3    H249959   0.729   6.860  14.373  0.8647 -1.3264 -1.9108
 9490TIP3   OH249960   2.199   4.740   1.272 -0.5405 -0.2179  0.5028
 9490TIP3    H149961   2.130   4.716   1.211  0.1738 -0.8787 -0.0569
 9490TIP3    H249962   2.181   4.832   1.294  0.7123  0.9541 -2.8095
 9491TIP3   OH249963   4.388   3.156  15.049  0.0497  0.1635 -0.0631
 9491TIP3    H149964   4.322   3.095  15.084 -2.3463  1.4053 -2.1018
 9491TIP3    H249965   4.385   3.143  14.954 -1.5959  4.2367 -0.7757
 9492TIP3   OH249966   1.109   2.507  11.616  0.3060 -0.3970 -0.0240
 9492TIP3    H149967   1.013   2.503  11.612  0.2780  0.8284 -1.6459
 9492TIP3    H249968   1.128   2.600  11.625  1.3487 -0.7152  1.2640
 9493TIP3   OH249969   4.635   1.774   2.092 -0.6726 -0.0880  0.1376
 9493TIP3    H149970   4.570   1.832   2.133  0.3002 -0.1158  1.7990
 9493TIP3    H249971   4.713   1.828   2.082 -0.8066 -0.1557 -1.5297
 9494TIP3   OH249972   3.031   1.049   2.912  0.2083  0.1783  0.0341
 9494TIP3    H149973   2.945   1.044   2.869  0.6260 -0.4542 -0.7564
 9494TIP3    H249974   3.061   1.138   2.895 -0.3485  0.4474  0.4312
 9495TIP3   OH249975   4.399   2.593   0.359 -0.1164 -0.8645  0.4604
 9495TIP3    H149976   4.452   2.624   0.433  0.6172 -2.3383  0.5790
 9495TIP3    H249977   4.337   2.664   0.343 -0.0359 -0.3488  2.2347
 9496TIP3   OH249978   4.100   3.798  17.055  0.2475 -0.0804  0.8748
 9496TIP3    H149979   4.038   3.725  17.055 -0.6877  0.5078 -2.5134
 9496TIP3    H249980   4.065   3.860  17.120 -2.5563 -0.0035 -0.5343
 9497TIP3   OH249981   2.087   4.693   1.998  0.4218 -0.0324  0.1007
 9497TIP3    H149982   2.043   4.772   2.028  1.9040  0.6094  0.6399
 9497TIP3    H249983   2.112   4.647   2.078  1.2148 -0.1023 -0.1768
 9498TIP3   OH249984   3.340   0.732   0.219  0.3013 -0.8064  0.3048
 9498TIP3    H149985   3.408   0.699   0.161  0.2885 -1.4726  0.6583
 9498TIP3    H249986   3.288   0.655   0.241 -0.4522 -0.3439  0.1972
 9499TIP3   OH249987   0.230   2.841  12.581  0.3952 -0.3217 -0.0353
 9499TIP3    H149988   0.214   2.923  12.534  0.3595 -0.2652  0.0740
 9499TIP3    H249989   0.144   2.818  12.618  0.7093  0.3708  1.1846
 9500TIP3   OH249990   1.032   1.862   3.271 -0.3092 -0.1463  0.3782
 9500TIP3    H149991   1.108   1.920   3.280 -0.7197  0.3403  0.7651
 9500TIP3    H249992   1.025   1.818   3.356  1.2116 -2.3191 -0.5194
 9501TIP3   OH249993   4.482   1.892   5.862 -0.9094 -0.4658  0.1422
 9501TIP3    H149994   4.407   1.949   5.845  0.0060  0.4362 -1.0277
 9501TIP3    H249995   4.543   1.946   5.912  0.3029 -0.1036 -1.6436
 9502TIP3   OH249996   3.152   0.282   4.168 -0.1711 -0.3289  0.2702
 9502TIP3    H149997   3.128   0.301   4.259  0.1987 -1.2075  0.5688
 9502TIP3    H249998   3.071   0.296   4.119 -0.5983 -0.6199  0.8620
 9503TIP3   OH249999   2.146   5.991   2.205  0.5530  0.0111 -0.0760
 9503TIP3    H150000   2.235   6.026   2.205  0.6733 -0.2859  0.5525
 9503TIP3    H250001   2.090   6.066   2.228  0.6175  0.2351 -0.6302
 9504TIP3   OH250002   5.982   0.837   4.293  0.4073  0.2654  0.2821
 9504TIP3    H150003   5.923   0.807   4.362  1.0235 -0.4299  0.5244
 9504TIP3    H250004   6.070   0.829   4.331  1.1144 -3.3858 -1.5830
 9505TIP3   OH250005   0.722   2.425  14.522  0.0800 -0.4370 -0.3133
 9505TIP3    H150006   0.634   2.389  14.508  0.3305 -2.0062  1.7847
 9505TIP3    H250007   0.781   2.363  14.479  0.3556 -1.3059  1.2587
 9506TIP3   OH250008   1.287   5.440  11.661  0.3154  0.4733  0.2231
 9506TIP3    H150009   1.246   5.526  11.670 -1.8319 -0.5741  1.0600
 9506TIP3    H250010   1.276   5.418  11.568 -1.2627  0.1482  0.4540
 9507TIP3   OH250011   0.765   5.578  12.259  0.0204 -0.0090  0.1465
 9507TIP3    H150012   0.683   5.563  12.211  0.2188 -2.1688  0.4111
 9507TIP3    H250013   0.832   5.585  12.191 -0.1672  0.3502 -0.0073
 9508TIP3   OH250014   4.460   0.730   2.473 -0.0625  0.0252  0.2739
 9508TIP3    H150015   4.474   0.706   2.381 -2.1742  1.4379 -0.5073
 9508TIP3    H250016   4.372   0.698   2.492  0.2506 -0.0072  1.7434
 9509TIP3   OH250017   0.020   0.795  14.317  0.5715  0.1941  0.2936
 9509TIP3    H150018   0.015   0.890  14.302  2.6363  0.1579 -1.0521
 9509TIP3    H250019  -0.019   0.783  14.404 -0.1071  2.2157  0.3372
 9510TIP3   OH250020   1.980   6.609  17.097 -0.4010 -0.1422  0.4391
 9510TIP3    H150021   1.984   6.515  17.082 -0.2324  0.0039 -0.5404
 9510TIP3    H250022   2.049   6.626  17.161  1.9462 -0.2661 -1.8766
 9511TIP3   OH250023   2.976   2.656   5.276 -0.1673  0.8074  0.2739
 9511TIP3    H150024   2.938   2.579   5.319 -1.0523  1.1342  0.0977
 9511TIP3    H250025   2.944   2.651   5.186 -0.9278  1.8278  0.4726
 9512TIP3   OH250026   1.711   1.437  14.438 -0.1854 -0.0639 -0.5350
 9512TIP3    H150027   1.785   1.450  14.378  0.6393 -1.8347  0.0464
 9512TIP3    H250028   1.658   1.516  14.427  0.1870 -0.0970 -3.2213
 9513TIP3   OH250029   5.567   2.943  13.569  0.2744  0.9501  0.4887
 9513TIP3    H150030   5.623   2.867  13.578  0.8056  1.2722 -0.0158
 9513TIP3    H250031   5.589   2.980  13.483  0.9306  2.3808  1.2310
 9514TIP3   OH250032   0.817   1.608   5.080 -0.7287  0.3486  0.2337
 9514TIP3    H150033   0.724   1.586   5.090 -1.2409  1.4861 -1.5423
 9514TIP3    H250034   0.840   1.576   4.993  1.3544 -2.3605  1.6364
 9515TIP3   OH250035   4.324   2.287   1.816 -0.1756  0.1329 -0.2421
 9515TIP3    H150036   4.267   2.250   1.749 -0.8422 -0.4638  0.6230
 9515TIP3    H250037   4.265   2.330   1.877  0.4636  1.1422 -0.3196
 9516TIP3   OH250038   6.148   3.849  16.227 -0.5832 -0.3302  0.5384
 9516TIP3    H150039   6.234   3.888  16.212 -0.1617 -0.2853  2.8328
 9516TIP3    H250040   6.149   3.768  16.176 -0.3980  1.1327 -1.9544
 9517TIP3   OH250041   5.933   1.956   2.714  0.0846 -0.7276 -0.1806
 9517TIP3    H150042   5.886   1.892   2.662  0.3153 -0.8957 -0.1839
 9517TIP3    H250043   6.025   1.930   2.708  0.4867  0.8219 -1.9479
 9518TIP3   OH250044   3.994   6.698  12.297  0.4298 -0.1638  0.0686
 9518TIP3    H150045   3.971   6.688  12.205 -1.9007 -2.4441  0.7824
 9518TIP3    H250046   4.026   6.612  12.323 -0.9220 -0.1884  1.8349
 9519TIP3   OH250047   6.244   5.942  11.995  0.0261  0.0108 -0.1122
 9519TIP3    H150048   6.277   5.975  11.911  0.6129  1.6985  0.7229
 9519TIP3    H250049   6.159   5.983  12.005  0.0253 -0.0628  0.1881
 9520TIP3   OH250050   2.222   0.421   3.757  0.2975 -0.2601  0.9859
 9520TIP3    H150051   2.270   0.471   3.691 -0.1931 -0.9495  0.0945
 9520TIP3    H250052   2.286   0.360   3.792  0.6577  0.3561  1.4347
 9521TIP3   OH250053   4.222   6.545   0.551 -0.4324 -0.0280  0.3074
 9521TIP3    H150054   4.239   6.618   0.611 -1.1579 -0.2210  0.7622
 9521TIP3    H250055   4.167   6.485   0.601  0.7293 -1.2306  0.1615
 9522TIP3   OH250056   5.940   5.811   5.531 -0.2963 -0.8915  0.3723
 9522TIP3    H150057   5.906   5.785   5.446 -1.1521 -0.5256  0.5956
 9522TIP3    H250058   5.873   5.781   5.593  0.8374 -2.1821  1.0292
 9523TIP3   OH250059   6.138   3.093  13.183 -0.4227 -0.3896 -0.4825
 9523TIP3    H150060   6.072   3.145  13.138  0.2296 -0.3726 -1.4470
 9523TIP3    H250061   6.216   3.099  13.127  0.6829  0.3179  1.0737
 9524TIP3   OH250062   0.753   6.274  13.677 -0.1142 -0.5070 -0.1726
 9524TIP3    H150063   0.757   6.328  13.598  0.5574 -0.7757 -0.3288
 9524TIP3    H250064   0.748   6.337  13.749  3.3509 -0.0935 -0.1610
 9525TIP3   OH250065   3.339   4.553   0.204 -0.4978 -0.1771  0.0937
 9525TIP3    H150066   3.413   4.560   0.264 -0.3338  1.7497 -0.2829
 9525TIP3    H250067   3.262   4.556   0.260 -0.3255  0.5100  0.2975
 9526TIP3   OH250068   1.359   6.586  14.693 -0.3212 -0.6213  0.2239
 9526TIP3    H150069   1.404   6.607  14.611 -0.4644  2.1567  0.7378
 9526TIP3    H250070   1.395   6.501  14.720  0.4052 -1.1547 -2.2130
 9527TIP3   OH250071   1.439   4.777   1.334 -0.1020 -0.0819  0.0289
 9527TIP3    H150072   1.371   4.732   1.383  1.2487 -1.3449  0.8457
 9527TIP3    H250073   1.484   4.707   1.285  1.5723  0.4272  0.7498
 9528TIP3   OH250074   6.755   2.218  10.786  0.5956  0.5583 -0.1017
 9528TIP3    H150075   6.783   2.128  10.769  0.0828  0.2496  0.6355
 9528TIP3    H250076   6.834   2.262  10.816  0.5584 -0.0174  0.8956
 9529TIP3   OH250077   2.275   1.475  14.508 -0.4944  0.4020  0.0270
 9529TIP3    H150078   2.319   1.494  14.425  0.0685 -0.8052  0.0379
 9529TIP3    H250079   2.241   1.386  14.498 -2.2418  0.9907  0.3404
 9530TIP3   OH250080   0.052   4.496  13.427 -0.0693 -0.5521  0.6234
 9530TIP3    H150081   0.080   4.404  13.431  0.0138 -0.5672 -0.0705
 9530TIP3    H250082   0.106   4.534  13.357  0.2085  0.1373  1.2041
 9531TIP3   OH250083   5.744   2.635   7.124  0.4050 -0.1614 -0.3112
 9531TIP3    H150084   5.716   2.549   7.154 -0.7079  0.1798 -0.3182
 9531TIP3    H250085   5.801   2.617   7.050  2.4203 -0.9740  1.3571
 9532TIP3   OH250086   2.261   6.025   3.212  0.3025 -0.4099 -0.1594
 9532TIP3    H150087   2.252   5.930   3.207  0.3090 -0.4414  0.3186
 9532TIP3    H250088   2.321   6.048   3.141  0.0002 -0.7167 -0.5181
 9533TIP3   OH250089   0.177   3.057  12.179  0.1872 -0.4093  0.3479
 9533TIP3    H150090   0.108   2.996  12.154  1.4179 -2.3944  1.4286
 9533TIP3    H250091   0.221   3.079  12.097 -1.0200 -0.0150 -0.2046
 9534TIP3   OH250092   4.742   3.181  10.584  0.2764 -0.1113  0.0552
 9534TIP3    H150093   4.821   3.229  10.607  0.6330 -0.4164 -0.5406
 9534TIP3    H250094   4.722   3.208  10.495 -1.7860  1.9922  1.0365
 9535TIP3   OH250095   0.820   3.250  16.733 -0.2814 -0.0479  0.2646
 9535TIP3    H150096   0.804   3.201  16.814 -0.6329 -1.9092 -0.8737
 9535TIP3    H250097   0.742   3.305  16.724 -1.2989 -1.4412  0.1144
 9536TIP3   OH250098   2.136   2.807   4.339  0.3948  0.6334  0.4005
 9536TIP3    H150099   2.184   2.770   4.413  0.1109  1.1143  0.8366
 9536TIP3    H250100   2.080   2.875   4.378  0.1460  0.8076 -0.2377
 9537TIP3   OH250101   3.566   1.603  10.914 -0.1890 -0.6211 -0.5137
 9537TIP3    H150102   3.637   1.593  10.851  0.3476  0.5520 -0.1204
 9537TIP3    H250103   3.517   1.680  10.885  0.4259  0.3038  0.8139
 9538TIP3   OH250104   2.432   6.158  12.750 -0.3012 -0.1762  0.1499
 9538TIP3    H150105   2.414   6.111  12.669  0.9212  0.8089 -0.7215
 9538TIP3    H250106   2.360   6.220  12.759  0.0018  0.3082 -0.6604
 9539TIP3   OH250107   6.145   4.947  14.976 -0.0081  0.0094 -0.0345
 9539TIP3    H150108   6.109   4.946  15.064 -0.9779 -0.7218 -0.4082
 9539TIP3    H250109   6.173   4.857  14.961  0.1922  0.1380 -0.4520
 9540TIP3   OH250110   4.091   5.402  14.311 -0.5624  0.5940  0.2154
 9540TIP3    H150111   4.099   5.462  14.386  1.7991  0.9033 -0.2044
 9540TIP3    H250112   4.056   5.321  14.348  1.4354  0.4199  1.8748
 9541TIP3   OH250113   1.568   1.751   3.130  0.3878 -0.0985  0.0763
 9541TIP3    H150114   1.539   1.774   3.218  3.0184 -2.1789  1.6557
 9541TIP3    H250115   1.504   1.791   3.072 -3.0012 -0.8319  2.9963
 9542TIP3   OH250116   4.851   2.990  16.672  0.0411 -0.3077  0.0352
 9542TIP3    H150117   4.914   2.921  16.693  0.5291  0.9873  3.6345
 9542TIP3    H250118   4.765   2.949  16.682  0.3362 -0.6502  1.3877
 9543TIP3   OH250119   6.287   0.802  15.607 -0.2816  0.4315 -0.1595
 9543TIP3    H150120   6.323   0.792  15.519 -0.4907  1.7926 -0.4198
 9543TIP3    H250121   6.330   0.880  15.642  0.7937 -0.7962  1.4723
 9544TIP3   OH250122   0.455   2.877  15.774  0.1513 -0.2090 -0.0167
 9544TIP3    H150123   0.536   2.912  15.737  0.2440 -0.3488  0.0515
 9544TIP3    H250124   0.445   2.923  15.857 -1.0204  1.4497 -1.0113
 9545TIP3   OH250125   1.686   1.257   6.642  0.6286  0.1630 -0.4145
 9545TIP3    H150126   1.666   1.323   6.575  0.6407  1.1757  0.5520
 9545TIP3    H250127   1.682   1.173   6.595 -1.7730  0.6267 -1.1591
 9546TIP3   OH250128   5.189   1.006   3.557  0.2576  0.1134 -0.2895
 9546TIP3    H150129   5.250   0.991   3.630 -0.9205  2.6310  1.3282
 9546TIP3    H250130   5.131   0.930   3.558  0.7393 -0.2563  0.8852
 9547TIP3   OH250131   6.272   6.287  15.197 -0.0195 -0.3236 -0.5502
 9547TIP3    H150132   6.297   6.372  15.234 -2.8235  1.0988 -1.6223
 9547TIP3    H250133   6.311   6.287  15.110  1.5817 -1.0527  0.1220
 9548TIP3   OH250134   2.812   1.029   1.258 -0.1106  0.2910 -0.6321
 9548TIP3    H150135   2.862   1.070   1.329 -1.5933 -0.3827  0.8379
 9548TIP3    H250136   2.776   1.103   1.209 -1.1295  0.7841  0.8160
 9549TIP3   OH250137   6.277   6.742  14.705  0.0322 -0.3830  0.0632
 9549TIP3    H150138   6.368   6.721  14.724  0.4088 -1.7247 -2.6564
 9549TIP3    H250139   6.229   6.716  14.783  1.8092 -0.8551  1.0600
 9550TIP3   OH250140   3.128   0.285  11.853 -0.4567  0.0791  0.5389
 9550TIP3    H150141   3.156   0.206  11.806 -1.3850 -0.8368  1.4846
 9550TIP3    H250142   3.094   0.342  11.785 -0.0474 -0.4526 -0.1312
 9551TIP3   OH250143   2.906   1.405   2.449 -0.2257  0.7959  0.7807
 9551TIP3    H150144   2.814   1.410   2.476 -0.2911 -4.4088  2.7372
 9551TIP3    H250145   2.907   1.335   2.384  2.4730 -0.4428  2.0343
 9552TIP3   OH250146   3.007   4.926  12.848  1.0062 -0.1249  0.0253
 9552TIP3    H150147   3.068   4.869  12.802 -0.0400  0.5932 -2.4012
 9552TIP3    H250148   2.928   4.925  12.795 -0.0983  1.2193  1.5383
 9553TIP3   OH250149   6.005   6.251   2.015  0.2845  0.0370  0.2365
 9553TIP3    H150150   5.937   6.317   2.004 -1.2333 -1.6007 -0.6082
 9553TIP3    H250151   6.070   6.272   1.949 -0.1477  0.7298  0.0244
 9554TIP3   OH250152   3.969   4.054  16.204 -0.2685 -0.6902  0.2526
 9554TIP3    H150153   3.951   4.010  16.287 -3.7468  1.5493  0.9036
 9554TIP3    H250154   4.031   4.124  16.227  0.1987 -1.1939  0.5529
 9555TIP3   OH250155   6.337   5.991  11.693  0.0707  0.0336 -0.0646
 9555TIP3    H150156   6.345   6.081  11.726 -0.2324  0.0631 -0.0659
 9555TIP3    H250157   6.260   5.994  11.636  0.6468  0.0039 -0.8519
 9556TIP3   OH250158   6.265   5.379   2.642  0.6635  0.1840  0.1913
 9556TIP3    H150159   6.185   5.415   2.679  0.6835  0.7532 -0.2979
 9556TIP3    H250160   6.335   5.434   2.676  1.0894 -1.4793  2.1716
 9557TIP3   OH250161   5.008   1.085   3.801 -0.2852 -0.4904 -0.3534
 9557TIP3    H150162   4.917   1.086   3.770 -0.9407 -1.2156  1.3896
 9557TIP3    H250163   5.034   0.993   3.797  0.7186 -0.1835 -1.6619
 9558TIP3   OH250164   4.052   3.261   4.140 -0.6264  0.1967  0.1338
 9558TIP3    H150165   4.121   3.232   4.080 -1.1518 -1.1007  0.1117
 9558TIP3    H250166   4.053   3.195   4.209 -2.0109  0.0100 -0.0079
 9559TIP3   OH250167   5.438   2.213   0.592 -0.3157 -0.2144  0.1463
 9559TIP3    H150168   5.479   2.165   0.664 -2.1184 -0.5474  1.0177
 9559TIP3    H250169   5.483   2.182   0.513  1.1606 -0.4360  1.0296
 9560TIP3   OH250170   3.184   5.147  13.368 -0.4769  0.3703 -0.1451
 9560TIP3    H150171   3.105   5.124  13.319  0.2318 -0.6504 -0.8423
 9560TIP3    H250172   3.215   5.228  13.328 -0.5866  0.2024 -0.5736
 9561TIP3   OH250173   4.685   0.500  11.079 -0.1051  0.4651 -0.3095
 9561TIP3    H150174   4.617   0.451  11.125  1.3684 -0.4600  1.0037
 9561TIP3    H250175   4.707   0.572  11.138 -1.0832  1.7953 -1.4880
 9562TIP3   OH250176   2.582   0.501  16.483 -0.3084 -0.1788  0.0219
 9562TIP3    H150177   2.593   0.423  16.428 -0.6937 -1.1722  1.3119
 9562TIP3    H250178   2.489   0.502  16.506 -0.2982  0.6494  0.0650
 9563TIP3   OH250179   1.682   3.725  10.746 -0.5287  0.2613 -0.1919
 9563TIP3    H150180   1.719   3.724  10.658  2.7752  1.9243  0.9791
 9563TIP3    H250181   1.738   3.665  10.796 -0.8862  1.0306  1.2027
 9564TIP3   OH250182   3.291   2.398  13.173  0.1787 -0.0210 -0.0448
 9564TIP3    H150183   3.363   2.422  13.231 -0.3372  2.3036 -0.2841
 9564TIP3    H250184   3.230   2.349  13.229 -0.5068  2.5018  1.5685
 9565TIP3   OH250185   2.840   2.024   1.096 -0.1547  0.2599  0.0624
 9565TIP3    H150186   2.845   2.046   1.003  0.3336  1.8006  0.4338
 9565TIP3    H250187   2.899   1.948   1.105 -0.5612 -0.1966 -0.9506
 9566TIP3   OH250188   1.731   5.928  15.503  0.5069 -0.2416  0.2218
 9566TIP3    H150189   1.658   5.986  15.481  0.7845  0.1496  0.3090
 9566TIP3    H250190   1.690   5.846  15.530  0.1120 -0.1325 -0.0482
 9567TIP3   OH250191   4.459   1.142   3.729  0.2835 -0.4031 -0.4692
 9567TIP3    H150192   4.513   1.217   3.703  0.8357 -0.1001  1.3392
 9567TIP3    H250193   4.389   1.138   3.664  0.7440  1.1502 -1.1018
 9568TIP3   OH250194   0.025   3.103  16.317 -0.1981 -0.8054 -0.8992
 9568TIP3    H150195   0.097   3.164  16.301  0.7379 -2.0750 -1.6931
 9568TIP3    H250196   0.054   3.021  16.279 -1.4239 -1.7767  0.1661
 9569TIP3   OH250197   4.571   4.772  15.639  0.2299  0.2357  0.1158
 9569TIP3    H150198   4.656   4.732  15.657  0.2341 -0.5297 -1.4227
 9569TIP3    H250199   4.574   4.795  15.546 -0.4058  2.3613  0.5694
 9570TIP3   OH250200   4.413   5.907   1.765  0.4252 -0.4172 -0.1979
 9570TIP3    H150201   4.455   5.876   1.845  0.5728  2.8371  1.1503
 9570TIP3    H250202   4.486   5.937   1.710  0.1565  0.5764 -0.0262
 9571TIP3   OH250203   6.417   3.498   4.736  0.7529 -0.0237  0.0239
 9571TIP3    H150204   6.394   3.539   4.652 -0.7142 -0.6767  0.0872
 9571TIP3    H250205   6.369   3.548   4.801  1.5566  0.2128  0.4433
 9572TIP3   OH250206   5.766   0.406  12.247  0.2487  0.1861 -0.4486
 9572TIP3    H150207   5.806   0.450  12.322 -0.7928  1.6541 -0.7049
 9572TIP3    H250208   5.723   0.329  12.284  0.2204  0.5894  0.3736
 9573TIP3   OH250209   5.120   2.186  11.215 -0.0869 -0.2817 -0.5933
 9573TIP3    H150210   5.071   2.132  11.277  0.3760  1.5575  1.4899
 9573TIP3    H250211   5.056   2.250  11.183 -0.1782 -0.8619 -1.6220
 9574TIP3   OH250212   0.331   6.293   2.869  0.0003 -0.1691  0.3249
 9574TIP3    H150213   0.247   6.339   2.875 -0.5616 -1.0963 -0.2452
 9574TIP3    H250214   0.330   6.254   2.782  1.8548  1.3688 -0.4609
 9575TIP3   OH250215   1.782   0.021   4.494  0.0443  0.3848 -0.4896
 9575TIP3    H150216   1.863   0.067   4.472 -0.5023  1.4247 -0.3782
 9575TIP3    H250217   1.791   0.001   4.587 -0.9439  2.9477  0.2464
 9576TIP3   OH250218   3.218   2.589   3.119 -0.3955  0.2025  0.1409
 9576TIP3    H150219   3.166   2.670   3.117  1.0747  1.1556 -0.6484
 9576TIP3    H250220   3.264   2.588   3.035  0.3497 -0.9655  0.5463
 9577TIP3   OH250221   1.605   4.700  13.646  0.4546  0.6134  0.1187
 9577TIP3    H150222   1.518   4.723  13.681 -0.2765  0.2563 -1.3522
 9577TIP3    H250223   1.609   4.747  13.562  0.9375 -0.7760 -0.6594
 9578TIP3   OH250224   1.432   1.574  13.252  0.0849 -0.2217  0.0584
 9578TIP3    H150225   1.496   1.631  13.209 -0.9557  0.6975 -0.3167
 9578TIP3    H250226   1.383   1.632  13.310 -0.9524 -0.7427 -0.2715
 9579TIP3   OH250227   0.332   3.519   3.739  0.2755  0.2212  0.0622
 9579TIP3    H150228   0.319   3.594   3.797 -0.5854 -0.9955  1.5471
 9579TIP3    H250229   0.283   3.541   3.660 -1.3863  0.5923  1.1225
 9580TIP3   OH250230   2.481   0.153  14.185  0.0231 -0.1436  0.2399
 9580TIP3    H150231   2.451   0.129  14.097  2.6202 -1.4095 -0.3976
 9580TIP3    H250232   2.470   0.074  14.236  0.1052  0.0724  0.5938
 9581TIP3   OH250233   0.580   0.887   5.408 -0.4808  0.1765  0.1205
 9581TIP3    H150234   0.525   0.830   5.355 -1.1138 -2.9784  3.7115
 9581TIP3    H250235   0.660   0.837   5.423  0.2695  1.5642  0.9502
 9582TIP3   OH250236   3.362   5.647  12.019  0.8641  0.2493 -0.3329
 9582TIP3    H150237   3.416   5.718  12.054  2.0124  0.0661 -1.6868
 9582TIP3    H250238   3.304   5.690  11.956  0.0685  0.2913  0.4058
 9583TIP3   OH250239   0.836   3.444   0.210 -0.1820 -0.1010 -0.3876
 9583TIP3    H150240   0.785   3.436   0.291 -0.1399  2.2436 -0.0855
 9583TIP3    H250241   0.783   3.500   0.153  1.9007  2.3376 -0.1056
 9584TIP3   OH250242   5.003   0.334  15.840  0.3937 -0.0328  0.1610
 9584TIP3    H150243   5.068   0.386  15.886 -0.6072  1.1378  0.3104
 9584TIP3    H250244   4.959   0.284  15.908 -0.2417  0.7507  0.3417
 9585TIP3   OH250245   2.337   1.562  14.268 -0.1122  0.3007  0.3947
 9585TIP3    H150246   2.281   1.576  14.192 -0.2624 -1.3488  0.1774
 9585TIP3    H250247   2.393   1.640  14.270  0.2015  0.1915 -1.6598
 9586TIP3   OH250248   6.509   4.932  15.199  0.0178 -0.5476 -0.1277
 9586TIP3    H150249   6.426   4.964  15.234 -0.0077 -1.9096  1.2022
 9586TIP3    H250250   6.498   4.933  15.104 -0.1069  2.8346 -0.1965
 9587TIP3   OH250251   3.226   2.249   0.951  0.2591  0.1683  0.7773
 9587TIP3    H150252   3.164   2.180   0.927 -1.4549  1.5587  1.0176
 9587TIP3    H250253   3.252   2.227   1.040 -0.4051 -0.0948  0.9159
 9588TIP3   OH250254   5.091   1.010   5.494  0.2228 -0.1373 -0.1963
 9588TIP3    H150255   5.170   1.032   5.544 -0.0227  0.7785 -0.2115
 9588TIP3    H250256   5.044   1.092   5.484 -0.8941 -0.7302  0.0643
 9589TIP3   OH250257   1.186   6.553  12.741  0.1151 -0.6823 -0.2037
 9589TIP3    H150258   1.177   6.459  12.759  0.5157 -0.4085  1.6632
 9589TIP3    H250259   1.133   6.568  12.663 -0.9499 -2.2536  0.1696
 9590TIP3   OH250260   0.283   0.438  14.661  0.0833  0.9608  0.3985
 9590TIP3    H150261   0.194   0.406  14.648  0.4217  0.0204  0.3288
 9590TIP3    H250262   0.333   0.403  14.587  0.4608  1.6944  0.2926
 9591TIP3   OH250263   0.792   1.173   3.464  0.3557 -0.4435  0.2184
 9591TIP3    H150264   0.786   1.128   3.548 -0.7598 -0.4486  0.1444
 9591TIP3    H250265   0.882   1.206   3.461  0.1732  0.2793  1.7841
 9592TIP3   OH250266   1.374   6.785  15.271 -0.4054  0.7597  0.3255
 9592TIP3    H150267   1.285   6.816  15.285  0.2189  2.7871  0.2153
 9592TIP3    H250268   1.429   6.860  15.294  1.1036  0.8740 -3.0009
 9593TIP3   OH250269   1.392   3.786  13.000 -0.3089 -0.6721  0.0626
 9593TIP3    H150270   1.449   3.713  12.977 -1.1232 -1.6442  1.0125
 9593TIP3    H250271   1.328   3.791  12.929 -0.1945 -0.8310 -0.0504
 9594TIP3   OH250272   3.498   0.286   6.576  0.0664  0.2017 -0.7679
 9594TIP3    H150273   3.546   0.204   6.577  0.3140  0.3424  0.4159
 9594TIP3    H250274   3.412   0.265   6.613  0.2216  0.5171 -0.2153
 9595TIP3   OH250275   1.938   5.243  10.778 -0.2179 -0.2036 -0.4869
 9595TIP3    H150276   1.846   5.229  10.755  0.0906 -0.7372 -1.4618
 9595TIP3    H250277   1.976   5.284  10.701  0.2565  0.5201  0.1179
 9596TIP3   OH250278   3.131   1.939  13.210  0.7654 -0.3974 -0.0305
 9596TIP3    H150279   3.211   1.923  13.161  1.2114  1.0329  0.1830
 9596TIP3    H250280   3.064   1.886  13.166  1.6958 -1.1384 -0.5697
 9597TIP3   OH250281   5.926   1.109   1.714  0.5073 -0.1437 -0.3673
 9597TIP3    H150282   5.850   1.090   1.769 -0.8402  1.5878 -1.5080
 9597TIP3    H250283   5.949   1.024   1.675 -0.4045 -0.8329  0.5315
 9598TIP3   OH250284   4.524   3.064  11.315  0.2873  0.0307  0.1709
 9598TIP3    H150285   4.469   3.142  11.328  0.6001  0.2249  0.3445
 9598TIP3    H250286   4.503   3.035  11.226 -0.9812 -0.6051  0.6580
 9599TIP3   OH250287   4.409   4.223   1.934 -0.3302  0.0496  0.0421
 9599TIP3    H150288   4.456   4.169   1.871 -1.0113  0.9687 -1.3155
 9599TIP3    H250289   4.320   4.187   1.934 -0.2174 -0.2375  0.8429
 9600TIP3   OH250290   2.685   1.393  10.545 -0.1492 -0.3600 -0.1100
 9600TIP3    H150291   2.725   1.307  10.555 -1.4715 -0.8557  1.1813
 9600TIP3    H250292   2.750   1.454  10.578 -0.0520 -1.0632  1.0206
 9601TIP3   OH250293   0.704   3.143  11.315  0.0406  0.1719  0.3545
 9601TIP3    H150294   0.776   3.099  11.269 -1.6222 -3.0480  0.6310
 9601TIP3    H250295   0.655   3.187  11.245  0.1345 -0.8052 -0.3419
 9602TIP3   OH250296   0.472   1.825   4.405 -0.0358 -0.3112 -0.0395
 9602TIP3    H150297   0.469   1.744   4.457  1.3114  0.2024  0.8696
 9602TIP3    H250298   0.431   1.891   4.461  1.0017  0.1477  0.1862
 9603TIP3   OH250299   0.286   5.543   6.266 -0.1573 -0.2290 -0.0672
 9603TIP3    H150300   0.278   5.562   6.359 -2.0185  1.4927 -0.5016
 9603TIP3    H250301   0.196   5.525   6.238  0.4716 -1.5488 -1.4020
 9604TIP3   OH250302   0.597   0.576  12.235 -0.0620 -0.2275 -0.1242
 9604TIP3    H150303   0.597   0.632  12.313  0.6767 -0.3099 -0.0539
 9604TIP3    H250304   0.650   0.500  12.261 -0.8046 -0.8209 -0.3151
 9605TIP3   OH250305   2.370   5.845  12.211  0.2969 -0.3424  0.6398
 9605TIP3    H150306   2.445   5.797  12.247 -1.5263 -1.7127  2.9039
 9605TIP3    H250307   2.300   5.830  12.275 -2.3521 -0.3437 -2.0761
 9606TIP3   OH250308   3.345   3.873   3.129 -0.0634 -0.1283  0.1755
 9606TIP3    H150309   3.302   3.801   3.177  0.2685  0.2356  1.0465
 9606TIP3    H250310   3.315   3.952   3.174 -1.1803  0.3595 -1.3721
 9607TIP3   OH250311   2.810   5.374  12.252 -0.2714  0.7407  0.1831
 9607TIP3    H150312   2.882   5.398  12.194  2.0516 -1.5435  1.9215
 9607TIP3    H250313   2.835   5.410  12.337 -0.3326 -1.4131  1.1633
 9608TIP3   OH250314   3.625   0.439   5.283  0.6186  0.6112 -0.8407
 9608TIP3    H150315   3.569   0.453   5.359  0.9981  0.6192 -0.5564
 9608TIP3    H250316   3.592   0.359   5.243  1.1866 -0.0874  0.0481
 9609TIP3   OH250317   4.329   2.684   5.333 -0.1371  0.0512  0.9716
 9609TIP3    H150318   4.362   2.636   5.257 -0.6145  1.0410  0.1074
 9609TIP3    H250319   4.247   2.641   5.356  2.3811 -3.6442  4.3049
 9610TIP3   OH250320   3.653   0.522  11.194 -0.4704  0.8497 -0.7645
 9610TIP3    H150321   3.670   0.526  11.100  0.1352  1.2841 -0.6435
 9610TIP3    H250322   3.736   0.547  11.234 -0.9570  1.4858 -0.1253
 9611TIP3   OH250323   5.102   6.256  15.170 -0.5323 -0.2508 -0.0614
 9611TIP3    H150324   5.152   6.336  15.158  0.8760 -0.9418  0.9157
 9611TIP3    H250325   5.029   6.264  15.109  1.3837  0.2895 -2.4260
 9612TIP3   OH250326   1.990   3.542   3.309  0.0511 -0.2276  0.4887
 9612TIP3    H150327   1.986   3.452   3.277 -1.8399  0.4195 -1.2575
 9612TIP3    H250328   1.992   3.596   3.230 -0.2513  1.3117  1.4908
 9613TIP3   OH250329   4.468   0.266  14.818  0.2317 -0.3331  0.1083
 9613TIP3    H150330   4.512   0.182  14.824 -0.4433 -0.8375 -1.6214
 9613TIP3    H250331   4.390   0.256  14.873  0.6442 -0.5021  0.6670
 9614TIP3   OH250332   0.278   6.247  16.960  0.0517  0.0818  0.1195
 9614TIP3    H150333   0.332   6.202  16.895  3.6660 -0.1459  2.9845
 9614TIP3    H250334   0.213   6.182  16.986  0.6851 -0.9585 -0.8085
 9615TIP3   OH250335   1.363   5.708   3.969  0.0519  0.0429 -0.7882
 9615TIP3    H150336   1.396   5.632   4.018  1.2485  1.1064  0.1355
 9615TIP3    H250337   1.398   5.696   3.881 -0.8376 -1.1108 -1.0118
 9616TIP3   OH250338   1.889   6.637  13.844  0.2554 -0.5703  0.5118
 9616TIP3    H150339   1.842   6.555  13.827  0.4390 -0.4164 -0.7821
 9616TIP3    H250340   1.836   6.705  13.802  0.5754 -0.1329  0.8026
 9617TIP3   OH250341   2.660   1.020   3.635 -0.0707  0.6164 -0.3792
 9617TIP3    H150342   2.669   1.067   3.718  0.7867  0.2431 -0.2462
 9617TIP3    H250343   2.699   1.078   3.571 -2.6957  1.9037 -0.9398
 9618TIP3   OH250344   1.788   4.735   4.393  0.1739 -0.5319 -0.7396
 9618TIP3    H150345   1.784   4.830   4.394 -0.4934 -0.5464  0.7618
 9618TIP3    H250346   1.718   4.708   4.333  0.1969 -0.0852 -0.9707
 9619TIP3   OH250347   2.466   1.833  14.962 -0.2337  0.4420 -0.0666
 9619TIP3    H150348   2.508   1.912  14.926 -0.5811  2.2898  3.1592
 9619TIP3    H250349   2.507   1.821  15.048 -1.8799 -1.4932  0.5290
 9620TIP3   OH250350   3.802   3.961   0.780  0.2252 -0.2884  0.0210
 9620TIP3    H150351   3.875   3.986   0.837  0.4066 -1.2032  0.2015
 9620TIP3    H250352   3.841   3.905   0.713  0.1982  1.5564 -1.6322
 9621TIP3   OH250353   1.924   3.538  12.905 -0.5877 -0.4256 -0.3812
 9621TIP3    H150354   1.884   3.558  12.820 -2.0468  0.9892  0.5812
 9621TIP3    H250355   1.909   3.445  12.918 -1.6351 -0.3687 -1.0492
 9622TIP3   OH250356   5.094   3.538  16.945  0.8338  0.3398 -0.0081
 9622TIP3    H150357   5.027   3.494  16.893 -0.3179  2.1836 -0.1979
 9622TIP3    H250358   5.161   3.472  16.960 -1.4054 -1.8588  0.9520
 9623TIP3   OH250359   2.378   1.494  15.274 -0.0956  0.3127  0.0280
 9623TIP3    H150360   2.383   1.452  15.360  1.8617  1.0430  0.3263
 9623TIP3    H250361   2.369   1.422  15.212 -1.1100 -0.2493  0.7878
 9624TIP3   OH250362   1.104   0.139  15.585  0.4161  0.2738 -0.4100
 9624TIP3    H150363   1.166   0.071  15.613  0.4239  0.2269 -0.5427
 9624TIP3    H250364   1.089   0.121  15.493 -0.4195 -0.2058 -0.1933
 9625TIP3   OH250365   5.502   3.862   1.045 -0.1904  0.3003 -0.2565
 9625TIP3    H150366   5.490   3.767   1.040 -0.6327  0.3320  0.1285
 9625TIP3    H250367   5.556   3.875   1.123  2.7517  0.1351 -2.1316
 9626TIP3   OH250368   6.371   4.824   1.999 -0.6336  0.4355 -0.4699
 9626TIP3    H150369   6.286   4.838   1.956 -0.9156 -0.4856 -0.2462
 9626TIP3    H250370   6.349   4.775   2.078  0.1283  0.0322 -0.5030
 9627TIP3   OH250371   1.280   4.797  15.222  0.4336 -0.5196  0.2703
 9627TIP3    H150372   1.208   4.843  15.179  0.5362 -2.0569 -1.7001
 9627TIP3    H250373   1.359   4.840  15.190  0.4645 -0.5808  0.2641
 9628TIP3   OH250374   2.130   0.112  12.121  0.1207  0.5350 -0.1403
 9628TIP3    H150375   2.195   0.061  12.073  3.4140  1.6465  2.7430
 9628TIP3    H250376   2.160   0.203  12.112 -1.2546  1.1423  1.0294
 9629TIP3   OH250377   0.729   5.233   6.384  0.5678 -0.0706  0.2064
 9629TIP3    H150378   0.772   5.303   6.336 -1.0140  0.7302 -0.0873
 9629TIP3    H250379   0.649   5.272   6.418  0.2381 -1.4143  1.0681
 9630TIP3   OH250380   4.327   4.252   6.323 -0.0983  0.3813 -0.5547
 9630TIP3    H150381   4.242   4.213   6.303 -0.2739 -0.2789  1.2362
 9630TIP3    H250382   4.369   4.188   6.381  1.0428  1.3178 -0.3155
 9631TIP3   OH250383   4.047   2.036   4.836 -0.1952  0.1556  0.6506
 9631TIP3    H150384   3.992   1.960   4.820 -1.0540  1.1489 -1.5074
 9631TIP3    H250385   4.129   2.000   4.870 -0.7882 -1.6744  0.2309
 9632TIP3   OH250386   2.623   4.745  11.937  0.2069  0.5384 -0.2102
 9632TIP3    H150387   2.622   4.815  11.871  0.2968  1.5866  0.8737
 9632TIP3    H250388   2.531   4.718  11.944  0.2400  0.1699 -0.9963
 9633TIP3   OH250389   5.243   5.320  11.913  0.0908  0.3749  0.0906
 9633TIP3    H150390   5.268   5.364  11.832  1.6918 -1.0059 -0.2336
 9633TIP3    H250391   5.250   5.387  11.980  0.1134  1.1904 -0.7132
 9634TIP3   OH250392   1.887   3.015  12.532 -0.2391 -0.8506 -0.2997
 9634TIP3    H150393   1.856   2.930  12.501  1.2280 -1.3483 -0.4895
 9634TIP3    H250394   1.814   3.075  12.516 -2.0121 -2.3870  1.4780
 9635TIP3   OH250395   6.492   2.505  12.806 -0.5055 -0.4182  0.0102
 9635TIP3    H150396   6.471   2.509  12.899  0.6775  0.9358  0.2585
 9635TIP3    H250397   6.548   2.428  12.797  0.9957  0.5413  0.8036
 9636TIP3   OH250398   5.079   2.205   4.791 -0.4052  0.2817  0.1722
 9636TIP3    H150399   5.115   2.131   4.840 -0.3986 -0.9628 -1.6136
 9636TIP3    H250400   5.156   2.246   4.750 -0.7456 -1.9993 -3.1306
 9637TIP3   OH250401   1.251   2.113  16.392 -0.0733  0.3586 -0.3748
 9637TIP3    H150402   1.327   2.055  16.388  1.2312  2.0090 -0.7689
 9637TIP3    H250403   1.258   2.166  16.312 -2.9137 -0.9025 -1.5952
 9638TIP3   OH250404   4.854   3.326   3.854  0.5681 -0.0331 -0.4251
 9638TIP3    H150405   4.846   3.412   3.811 -0.4116  0.6906  1.1193
 9638TIP3    H250406   4.854   3.346   3.947  0.4420 -1.7153 -0.0415
 9639TIP3   OH250407   5.494   2.417  12.527  0.1413 -0.1982  0.1384
 9639TIP3    H150408   5.546   2.363  12.467  0.0245 -0.8217  0.5812
 9639TIP3    H250409   5.420   2.447  12.475  0.9558  0.7302 -0.5079
 9640TIP3   OH250410   6.675   2.711  14.030 -0.0974  0.4344  0.2506
 9640TIP3    H150411   6.591   2.671  14.006 -0.0988  0.5750  0.0144
 9640TIP3    H250412   6.732   2.694  13.955  0.2937 -0.2409  0.6840
 9641TIP3   OH250413   0.703   3.778  14.089  0.2021 -0.2951 -0.4156
 9641TIP3    H150414   0.712   3.837  14.015  1.1607 -3.1003 -2.7149
 9641TIP3    H250415   0.609   3.777  14.107  0.1190  1.4952 -0.6562
 9642TIP3   OH250416   0.527   5.819  10.953  0.3781 -0.1575 -0.1381
 9642TIP3    H150417   0.465   5.819  10.879  1.7077 -0.5576 -1.3039
 9642TIP3    H250418   0.596   5.879  10.926 -0.7313  2.3797  2.2976
 9643TIP3   OH250419   2.088   1.831   1.176 -0.0718 -0.2799 -0.1494
 9643TIP3    H150420   2.102   1.917   1.216 -1.8451 -0.4229  0.8526
 9643TIP3    H250421   2.032   1.849   1.100  0.0881 -0.4859 -0.3163
 9644TIP3   OH250422   5.071   5.441  10.644 -0.1785 -0.4789 -0.0780
 9644TIP3    H150423   5.055   5.346  10.643 -0.5489 -0.4244 -0.8931
 9644TIP3    H250424   5.113   5.458  10.728 -0.4317 -1.3155  0.2290
 9645TIP3   OH250425   4.372   0.033  16.914 -0.0559  0.1674  0.1366
 9645TIP3    H150426   4.399  -0.047  16.870 -1.4800 -0.7100  0.8117
 9645TIP3    H250427   4.432   0.040  16.989  0.0127 -0.3124  0.1294
 9646TIP3   OH250428   5.599   4.720  17.215 -0.1619 -0.3275 -0.1847
 9646TIP3    H150429   5.563   4.666  17.286 -0.0299 -0.9580 -0.5823
 9646TIP3    H250430   5.539   4.704  17.141 -0.5901  0.7188 -0.0728
 9647TIP3   OH250431   5.459   4.846  11.095  1.0093 -0.5874 -0.0254
 9647TIP3    H150432   5.504   4.918  11.140  3.2414 -1.1949 -1.1397
 9647TIP3    H250433   5.457   4.775  11.159  2.5916 -0.8661 -0.2231
 9648TIP3   OH250434   6.322   1.126  14.428  0.3765 -0.0958 -0.2424
 9648TIP3    H150435   6.247   1.092  14.477  1.4185 -1.8634  0.2343
 9648TIP3    H250436   6.364   1.189  14.487  0.4508 -0.6889  0.3533
 9649TIP3   OH250437   4.363   3.469  11.712 -0.3424 -0.1743  0.1124
 9649TIP3    H150438   4.355   3.443  11.620 -1.2776 -1.8607  0.6338
 9649TIP3    H250439   4.458   3.480  11.725 -0.1010 -1.1196 -0.7300
 9650TIP3   OH250440   2.312   5.471  13.376  0.0529  1.0915 -0.0189
 9650TIP3    H150441   2.330   5.454  13.469 -0.6105 -1.4960 -0.2799
 9650TIP3    H250442   2.216   5.466  13.369  0.1008  1.2376 -0.8571
 9651TIP3   OH250443   2.150   5.975   2.869  0.1664  0.2667  0.3515
 9651TIP3    H150444   2.229   5.945   2.916 -0.4627 -0.1771  1.1577
 9651TIP3    H250445   2.146   5.920   2.791  0.7368  0.3958  0.2252
 9652TIP3   OH250446   6.089   3.181  15.665  0.4566  0.1872  0.5269
 9652TIP3    H150447   6.094   3.138  15.580 -1.0271 -0.8382  0.9125
 9652TIP3    H250448   6.005   3.153  15.701  2.0636 -1.3582  3.3884
 9653TIP3   OH250449   4.139   0.168  14.797 -0.9137  0.1850 -0.4757
 9653TIP3    H150450   4.177   0.079  14.799  0.3211  0.6883 -0.6435
 9653TIP3    H250451   4.170   0.208  14.879  0.3376  1.1543 -1.3739
 9654TIP3   OH250452   4.505   2.579   4.089  0.2153 -0.8626 -0.0250
 9654TIP3    H150453   4.584   2.553   4.137  0.6272 -1.3749 -0.9353
 9654TIP3    H250454   4.538   2.617   4.007 -0.4595  0.2082  0.1909
 9655TIP3   OH250455   5.604   4.403   5.574 -0.3195 -0.1866  0.3172
 9655TIP3    H150456   5.551   4.449   5.509 -1.7214 -1.9471  0.1633
 9655TIP3    H250457   5.667   4.352   5.523 -0.3335 -0.2890  0.4024
 9656TIP3   OH250458   2.833   0.020   2.748 -0.1277  0.0076 -0.0270
 9656TIP3    H150459   2.911  -0.018   2.790 -0.6999 -0.6996  0.4184
 9656TIP3    H250460   2.804  -0.047   2.687 -1.9761 -0.9385  1.7763
 9657TIP3   OH250461   1.272   2.844   1.647  0.4253 -0.0872 -0.3524
 9657TIP3    H150462   1.257   2.849   1.552 -1.0874  1.4322 -0.0906
 9657TIP3    H250463   1.219   2.915   1.683 -0.6918 -1.8705  1.8209
 9658TIP3   OH250464   2.019   1.891   3.620  0.0656 -0.3021  0.1538
 9658TIP3    H150465   2.069   1.840   3.684  0.9057 -0.8539 -0.9219
 9658TIP3    H250466   1.990   1.968   3.669 -0.4996 -1.3660  1.5821
 9659TIP3   OH250467   1.673   3.427  16.460 -0.3556  0.6290 -0.2177
 9659TIP3    H150468   1.745   3.444  16.399  0.2175  0.2578  0.3440
 9659TIP3    H250469   1.697   3.345  16.503 -0.9849  0.6433  0.1678
 9660TIP3   OH250470   2.972   2.837   0.402 -0.4786  0.6036 -0.5324
 9660TIP3    H150471   2.965   2.875   0.315 -1.4870  0.6699 -0.4313
 9660TIP3    H250472   2.910   2.886   0.456  0.5252  0.9372  0.3694
 9661TIP3   OH250473   1.087   1.500  11.674 -0.2584  0.1789  0.3152
 9661TIP3    H150474   1.090   1.519  11.580  0.9148  1.2023  0.5321
 9661TIP3    H250475   1.157   1.436  11.687 -1.7175 -1.5237  0.2099
 9662TIP3   OH250476   0.370   3.530  16.225  0.2462  0.4453 -0.2417
 9662TIP3    H150477   0.307   3.602  16.225 -0.1832  0.0826  0.1351
 9662TIP3    H250478   0.435   3.554  16.291  0.9501  1.1861 -1.1812
 9663TIP3   OH250479   2.369   5.296   3.169  0.4164 -0.0279 -0.0198
 9663TIP3    H150480   2.282   5.285   3.208  1.1384 -0.2566  1.6149
 9663TIP3    H250481   2.379   5.219   3.112  0.3736 -1.1638  1.4547
 9664TIP3   OH250482   0.745   5.898   2.656  0.3361  0.0613  0.3546
 9664TIP3    H150483   0.673   5.948   2.693 -1.1970 -0.1704 -2.0653
 9664TIP3    H250484   0.815   5.962   2.643  0.2788  0.4704  1.8803
 9665TIP3   OH250485   2.667   0.560  16.781 -0.0436 -0.6003 -0.2336
 9665TIP3    H150486   2.702   0.507  16.852  0.6273 -0.1147 -0.1857
 9665TIP3    H250487   2.600   0.506  16.741 -1.1851 -0.4693  1.4255
 9666TIP3   OH250488   1.242   2.194  14.773  0.1964 -0.8583 -0.2916
 9666TIP3    H150489   1.203   2.122  14.821  0.1522 -0.6265  0.0224
 9666TIP3    H250490   1.317   2.222  14.826 -0.3764 -0.0238  0.1067
 9667TIP3   OH250491   0.883   3.084   0.788 -0.0679 -0.0506  0.1226
 9667TIP3    H150492   0.794   3.064   0.816  0.0814  0.6988  1.1931
 9667TIP3    H250493   0.902   3.169   0.828  0.5664  0.5510 -1.3799
 9668TIP3   OH250494   0.749   5.669  13.480  0.2302 -0.5092 -0.3894
 9668TIP3    H150495   0.681   5.638  13.421  0.4569 -0.9025 -0.4500
 9668TIP3    H250496   0.702   5.700  13.557 -0.0603 -0.1122 -0.7180
 9669TIP3   OH250497   6.038   4.513  16.991 -0.2988 -0.1927 -0.7319
 9669TIP3    H150498   6.113   4.563  17.024 -0.0446 -1.6730  1.1333
 9669TIP3    H250499   6.077   4.449  16.931 -0.4166  0.6938 -1.7769
 9670TIP3   OH250500   3.507   2.587  11.857 -0.0433 -0.0450  0.2447
 9670TIP3    H150501   3.597   2.584  11.888 -0.2986  0.3970  1.0485
 9670TIP3    H250502   3.458   2.535  11.919 -0.5433  0.7564  0.5429
 9671TIP3   OH250503   3.412   6.812  14.548 -0.3177 -0.1849  0.3788
 9671TIP3    H150504   3.337   6.807  14.489 -0.7467  2.1322  0.6101
 9671TIP3    H250505   3.414   6.904  14.575  1.6201 -0.5607  1.6848
 9672TIP3   OH250506   5.374   2.047   4.236  0.0696  0.2840 -0.2477
 9672TIP3    H150507   5.426   2.085   4.165  2.0734  1.4591  1.7167
 9672TIP3    H250508   5.439   2.016   4.300 -1.6334 -0.4548  1.2195
 9673TIP3   OH250509   0.161   2.299   3.415  0.4706 -0.2116  0.4686
 9673TIP3    H150510   0.181   2.286   3.508  0.7392 -0.0399  0.4334
 9673TIP3    H250511   0.233   2.351   3.382 -0.5329  1.3330  0.5868
 9674TIP3   OH250512   6.047   1.701  14.810 -0.4477  0.4236  0.2695
 9674TIP3    H150513   6.126   1.675  14.859 -0.7183 -1.5476 -0.2533
 9674TIP3    H250514   5.976   1.654  14.854 -0.9621  0.1489 -0.8402
 9675TIP3   OH250515   6.807   5.031  12.568  0.2695  0.4171  0.1719
 9675TIP3    H150516   6.837   4.984  12.490 -0.4205  1.7250 -0.9307
 9675TIP3    H250517   6.737   4.976  12.603 -0.3778  0.4834 -0.9582
 9676TIP3   OH250518   6.117   3.372   2.020  0.2066  0.1431  0.7326
 9676TIP3    H150519   6.173   3.345   1.948  0.7189  0.1674  1.1207
 9676TIP3    H250520   6.135   3.309   2.090  0.3676  0.6424  1.1492
 9677TIP3   OH250521   0.886   3.561  14.694 -0.3118  0.2752  0.1608
 9677TIP3    H150522   0.806   3.544  14.744 -0.3661  1.5963  0.5706
 9677TIP3    H250523   0.855   3.576  14.604 -0.3118 -1.1356 -0.0898
 9678TIP3   OH250524   2.513   5.616  12.395 -0.1680 -0.2217  0.2238
 9678TIP3    H150525   2.596   5.658  12.372 -0.7265  1.0224  0.4477
 9678TIP3    H250526   2.523   5.526  12.363  1.2536 -0.0908  0.2330
 9679TIP3   OH250527   3.176   5.729   3.241  0.3122  0.1915  0.2126
 9679TIP3    H150528   3.197   5.818   3.270  1.9549 -0.1631  0.1989
 9679TIP3    H250529   3.094   5.738   3.193  0.9174  1.8668 -0.5958
 9680TIP3   OH250530   5.800   2.970   0.394  0.0714 -0.1120 -0.3403
 9680TIP3    H150531   5.737   3.039   0.415  0.6068  0.0343  0.8828
 9680TIP3    H250532   5.847   3.002   0.317 -0.1604  0.5816 -0.1989
 9681TIP3   OH250533   0.632   0.091  13.279  0.2046 -0.6666 -0.4050
 9681TIP3    H150534   0.613   0.097  13.372  1.8396 -2.2020  0.0781
 9681TIP3    H250535   0.652   0.181  13.252 -3.0092  0.3119 -0.0017
 9682TIP3   OH250536   0.425   5.218   0.836 -0.7149  0.2827 -0.5181
 9682TIP3    H150537   0.380   5.301   0.851 -1.3184 -0.4416  2.2189
 9682TIP3    H250538   0.359   5.152   0.851  0.2117 -0.7476 -0.8462
 9683TIP3   OH250539   2.267   1.844  12.744  0.1079  0.5555 -0.3936
 9683TIP3    H150540   2.183   1.889  12.755 -0.5354 -0.3992 -1.1358
 9683TIP3    H250541   2.279   1.841  12.649  1.3322  1.2659 -0.2801
 9684TIP3   OH250542   1.551   6.536  16.341 -0.2568  0.6125  0.1110
 9684TIP3    H150543   1.547   6.596  16.267 -0.0452  1.0645  0.4525
 9684TIP3    H250544   1.473   6.557  16.393 -2.0828 -1.7825 -1.4957
 9685TIP3   OH250545   1.747   4.433  13.789  0.3460  0.0424  0.5300
 9685TIP3    H150546   1.725   4.491  13.862 -0.8998 -2.1484  2.0159
 9685TIP3    H250547   1.820   4.380  13.822 -0.1203 -0.8592  0.1361
 9686TIP3   OH250548   4.068   0.354   3.615  0.2164 -0.3244  0.3356
 9686TIP3    H150549   4.030   0.399   3.539  1.7231 -1.3573 -1.0998
 9686TIP3    H250550   4.005   0.285   3.636 -0.1946 -0.0484  0.0195
 9687TIP3   OH250551   0.116   2.946  11.499 -0.0713  0.4460  0.5925
 9687TIP3    H150552   0.202   2.941  11.540  1.4784 -0.5822 -2.4596
 9687TIP3    H250553   0.135   2.970  11.408 -2.9688 -0.3351 -0.3097
 9688TIP3   OH250554   0.592   5.286  13.496 -0.3832 -0.1744  0.2560
 9688TIP3    H150555   0.646   5.209  13.482 -2.0773 -1.1108 -1.6781
 9688TIP3    H250556   0.624   5.324  13.578  1.1500 -2.3403  0.7332
 9689TIP3   OH250557   3.020   5.449  15.849  0.6838 -0.4366  0.1848
 9689TIP3    H150558   2.928   5.432  15.872  0.7631 -1.2551 -0.0654
 9689TIP3    H250559   3.026   5.544  15.842 -0.1674 -0.3805  0.1187
 9690TIP3   OH250560   4.376   6.150  10.944  0.6069 -0.0431 -0.3604
 9690TIP3    H150561   4.407   6.062  10.926  0.7955 -0.3682  1.4235
 9690TIP3    H250562   4.447   6.191  10.993 -0.7128  0.0378  1.5600
 9691TIP3   OH250563   5.208   6.627   1.266 -0.5567 -0.0593 -0.2499
 9691TIP3    H150564   5.208   6.533   1.252 -1.8778 -0.1983  0.5027
 9691TIP3    H250565   5.136   6.642   1.328  3.0093  0.7278  4.2924
 9692TIP3   OH250566   3.936   3.794  12.257 -0.4525 -0.3654  0.2359
 9692TIP3    H150567   3.889   3.875  12.237  0.7178  0.3100  0.1402
 9692TIP3    H250568   3.868   3.726  12.255 -1.4750  0.6177  0.4430
 9693TIP3   OH250569   6.696   4.948  15.668 -0.3987  0.1702  0.0897
 9693TIP3    H150570   6.700   4.952  15.573 -2.5850  0.2585 -0.0526
 9693TIP3    H250571   6.614   4.901  15.687  0.3556 -0.5006  1.9223
 9694TIP3   OH250572   5.685   4.058  17.167 -0.2502 -0.4196 -0.2689
 9694TIP3    H150573   5.616   4.119  17.192 -0.0444 -0.5578  0.6859
 9694TIP3    H250574   5.659   4.026  17.080 -0.7223  0.4753 -0.4674
 9695TIP3   OH250575   5.674   0.614   5.869 -0.1907 -0.1134 -0.0523
 9695TIP3    H150576   5.715   0.671   5.934 -0.7098 -0.9415  1.0340
 9695TIP3    H250577   5.603   0.571   5.917  1.1127 -2.8105 -0.3887
 9696TIP3   OH250578   1.782   4.205  10.601 -0.2288  0.5879  0.0655
 9696TIP3    H150579   1.818   4.170  10.520 -0.0552  0.4828  0.1881
 9696TIP3    H250580   1.845   4.272  10.628  2.2163 -2.4196  2.5363
 9697TIP3   OH250581   4.119   4.469  11.071  0.2376  0.1217  0.2467
 9697TIP3    H150582   4.088   4.445  10.983 -0.0980 -1.5942  0.7879
 9697TIP3    H250583   4.081   4.555  11.087 -3.5707 -1.3957  0.4487
 9698TIP3   OH250584   1.995   1.060  16.039  0.3715  0.4831 -0.1422
 9698TIP3    H150585   2.084   1.027  16.054  0.8599  2.3195  1.4708
 9698TIP3    H250586   1.990   1.072  15.944  1.7080 -0.0238 -0.3010
 9699TIP3   OH250587   5.786   6.400  13.729  0.3740  0.1009  0.5714
 9699TIP3    H150588   5.840   6.477  13.745  1.9934 -0.8097 -0.2918
 9699TIP3    H250589   5.746   6.380  13.814 -1.2247  2.6689  0.5247
 9700TIP3   OH250590   4.804   3.366  12.043  0.1885  0.3719  0.3887
 9700TIP3    H150591   4.761   3.297  11.993 -0.5816 -0.1791  1.7582
 9700TIP3    H250592   4.890   3.376  12.002 -0.3842 -0.1077 -0.9621
 9701TIP3   OH250593   5.410   2.926  15.710 -0.2039 -0.6661 -0.3702
 9701TIP3    H150594   5.377   2.849  15.663 -0.6592 -0.5333 -0.2649
 9701TIP3    H250595   5.364   3.000  15.672 -1.4641 -0.6623  1.0662
 9702TIP3   OH250596   2.812   0.472   1.115 -0.0454  0.0750  0.0057
 9702TIP3    H150597   2.831   0.387   1.075  0.2523 -0.4814  1.2610
 9702TIP3    H250598   2.842   0.462   1.205 -1.7014  0.8921  0.6834
 9703TIP3   OH250599   6.029   4.480  11.637 -0.0677 -0.0296 -0.2496
 9703TIP3    H150600   6.045   4.561  11.590  1.7447 -0.5503 -0.6064
 9703TIP3    H250601   5.990   4.421  11.573 -0.4087  0.2193 -0.2710
 9704TIP3   OH250602   2.738   3.855   0.988  0.0005  0.5874  0.2487
 9704TIP3    H150603   2.716   3.921   0.921 -1.1179  0.5803  0.5867
 9704TIP3    H250604   2.762   3.906   1.065 -0.8230  0.6156  0.4970
 9705TIP3   OH250605   6.118   1.668  13.331  0.9045 -0.2767  0.1287
 9705TIP3    H150606   6.081   1.757  13.334 -1.8503 -1.2507 -1.1456
 9705TIP3    H250607   6.177   1.669  13.256 -0.5659  0.0689 -1.0868
 9706TIP3   OH250608   6.384   5.417  16.249 -0.0858  0.7023 -0.4702
 9706TIP3    H150609   6.334   5.466  16.183 -0.7125 -1.3638 -1.6146
 9706TIP3    H250610   6.473   5.416  16.216 -0.6594 -1.6452 -2.2440
 9707TIP3   OH250611   4.482   1.291  15.397  0.1111 -0.3004  0.4691
 9707TIP3    H150612   4.564   1.340  15.410  0.4403 -0.4023 -0.9959
 9707TIP3    H250613   4.417   1.339  15.449  1.3616 -1.0861  2.8973
 9708TIP3   OH250614   0.868   2.696  13.562 -0.2689 -0.1135 -0.6684
 9708TIP3    H150615   0.816   2.647  13.625 -0.4423  0.6329 -0.2162
 9708TIP3    H250616   0.805   2.749  13.513  0.0489  0.8784 -0.0435
 9709TIP3   OH250617   3.793   6.375   1.817  0.2749  0.3303  0.0341
 9709TIP3    H150618   3.730   6.356   1.748  0.5166  1.3471 -0.4810
 9709TIP3    H250619   3.877   6.345   1.781  0.2538 -0.0555  0.2974
 9710TIP3   OH250620   6.248   0.841  13.104 -0.2417 -0.4553 -0.1072
 9710TIP3    H150621   6.261   0.750  13.127  0.9140  0.3669  3.0179
 9710TIP3    H250622   6.332   0.869  13.067  0.3393 -0.0652  1.4284
 9711TIP3   OH250623   5.444   0.839   1.316 -0.0931  0.3756 -0.8280
 9711TIP3    H150624   5.521   0.885   1.352 -0.0870  0.4762 -0.9691
 9711TIP3    H250625   5.410   0.899   1.249 -0.7744  0.7016 -0.2065
 9712TIP3   OH250626   0.740   1.842  13.346  0.1719  0.6900  0.5262
 9712TIP3    H150627   0.695   1.926  13.342  1.6028  1.8849  4.8647
 9712TIP3    H250628   0.669   1.777  13.349 -0.9577  1.6949 -1.7095
 9713TIP3   OH250629   5.612   1.074  11.305  0.0827 -0.5376  0.1324
 9713TIP3    H150630   5.524   1.044  11.330 -0.4564  1.1832  0.4147
 9713TIP3    H250631   5.634   1.139  11.371  1.2621 -0.4025 -0.3830
 9714TIP3   OH250632   3.850   4.374  14.419 -0.5980  0.7296  0.3811
 9714TIP3    H150633   3.838   4.469  14.417  2.3066  1.2052 -1.3972
 9714TIP3    H250634   3.785   4.343  14.482 -1.1015  3.9548  1.6807
 9715TIP3   OH250635   4.471   0.254   5.936 -0.6064  0.3058 -0.2472
 9715TIP3    H150636   4.456   0.308   6.014 -1.7231  0.5936 -0.6525
 9715TIP3    H250637   4.385   0.219   5.914  0.0883 -1.6902  0.0122
 9716TIP3   OH250638   2.144   3.295   5.108 -0.0962 -0.0086 -0.0992
 9716TIP3    H150639   2.100   3.344   5.177  0.5374  0.3950  0.0304
 9716TIP3    H250640   2.199   3.232   5.155  1.5954  1.3493 -0.1533
 9717TIP3   OH250641   1.692   6.298   3.481  0.2789 -0.2030  0.0997
 9717TIP3    H150642   1.678   6.336   3.567  2.2852  0.0774  0.3645
 9717TIP3    H250643   1.747   6.362   3.435  2.8367 -2.1860  0.1807
 9718TIP3   OH250644   5.917   3.899   5.572  0.0189 -0.9301  0.3266
 9718TIP3    H150645   5.833   3.889   5.617 -0.0221  1.0345  0.7744
 9718TIP3    H250646   5.930   3.993   5.566  3.0756 -1.1227  1.9278
 9719TIP3   OH250647   3.824   6.635   2.461  0.5735 -0.5914  0.9218
 9719TIP3    H150648   3.755   6.572   2.481  0.6496 -0.4979  1.5201
 9719TIP3    H250649   3.827   6.692   2.539 -0.2750  0.8671 -0.0652
 9720TIP3   OH250650   6.123   4.226   1.746 -0.4445  0.1088  0.4962
 9720TIP3    H150651   6.075   4.308   1.737 -1.3726 -0.0557  3.2403
 9720TIP3    H250652   6.205   4.241   1.698 -0.2309  2.9329  1.5749
 9721TIP3   OH250653   0.123   2.029  11.695 -0.4001 -0.3112  0.3621
 9721TIP3    H150654   0.208   2.061  11.724  1.3196 -2.7568 -1.5544
 9721TIP3    H250655   0.127   1.934  11.708 -1.4838 -0.9069 -2.6934
 9722TIP3   OH250656   4.086   3.135   5.825  0.4986 -0.0104  0.5459
 9722TIP3    H150657   4.079   3.176   5.911 -0.3066 -2.6734  1.8810
 9722TIP3    H250658   4.008   3.080   5.819  1.1299 -0.7599 -1.4040
 9723TIP3   OH250659   5.879   6.773  12.110  0.0807 -0.1826  0.1746
 9723TIP3    H150660   5.795   6.752  12.070 -0.2454  1.5661 -0.1512
 9723TIP3    H250661   5.911   6.690  12.145 -1.6562 -0.9256  0.0793
 9724TIP3   OH250662   3.652   6.633  13.903 -0.2134 -0.7240  0.2311
 9724TIP3    H150663   3.638   6.666  13.992  1.9625 -1.0242  0.7301
 9724TIP3    H250664   3.722   6.569  13.912  1.4304  0.6363 -1.9555
 9725TIP3   OH250665   1.140   3.497  14.627  0.2154  0.2973  0.4948
 9725TIP3    H150666   1.179   3.538  14.704 -0.7120  0.9680  0.6324
 9725TIP3    H250667   1.046   3.507  14.640  0.0145 -0.7061 -0.1275
 9726TIP3   OH250668   5.980   6.264  15.041  0.4438 -0.5697  0.2338
 9726TIP3    H150669   6.014   6.276  14.952 -1.8349  0.7053 -0.5646
 9726TIP3    H250670   6.032   6.192  15.078  1.2445 -1.3480 -2.2249
 9727TIP3   OH250671   5.492   4.755  12.930  0.3583  0.2806  0.4170
 9727TIP3    H150672   5.575   4.790  12.960 -0.3388  0.8275  1.7680
 9727TIP3    H250673   5.462   4.698  13.001  0.0196 -0.6689 -0.4568
 9728TIP3   OH250674   5.261   4.351  16.877  0.7224  0.4091 -0.3987
 9728TIP3    H150675   5.245   4.258  16.895  0.5881  0.8721  2.2835
 9728TIP3    H250676   5.184   4.379  16.827  0.2933 -0.7287 -0.3982
 9729TIP3   OH250677   1.593   5.719  11.966  0.0437  0.1440 -0.1304
 9729TIP3    H150678   1.682   5.683  11.977 -0.4442 -1.3246 -0.6649
 9729TIP3    H250679   1.606   5.813  11.954  1.7509 -0.3247 -2.6600
 9730TIP3   OH250680   6.421   2.148   5.983 -0.2566 -0.3267  0.3524
 9730TIP3    H150681   6.331   2.138   6.014 -0.7791 -0.7120 -1.1893
 9730TIP3    H250682   6.463   2.064   6.002 -1.1131 -1.2500 -1.5689
 9731TIP3   OH250683   5.662   6.592   2.196 -0.2114  0.2306  0.0373
 9731TIP3    H150684   5.748   6.554   2.178 -0.4074 -0.4906  0.5800
 9731TIP3    H250685   5.678   6.653   2.269  0.1451  1.3860 -0.9827
 9732TIP3   OH250686   4.107   2.699   2.555  0.4188  0.0789  0.7124
 9732TIP3    H150687   4.055   2.749   2.618  1.1591  2.0890 -0.2020
 9732TIP3    H250688   4.126   2.616   2.600 -0.0691  0.9683  2.6557
 9733TIP3   OH250689   4.630   1.769   4.922 -0.0784  0.0099  0.2900
 9733TIP3    H150690   4.679   1.849   4.941 -0.7600  0.7762 -1.0112
 9733TIP3    H250691   4.588   1.746   5.005  0.4512  0.7657  0.7825
 9734TIP3   OH250692   2.725   2.757  15.991 -0.0974  0.6029  0.1847
 9734TIP3    H150693   2.684   2.678  15.954  0.2891 -0.5401  2.0849
 9734TIP3    H250694   2.816   2.732  16.005 -0.1274  1.1350  1.4436
 9735TIP3   OH250695   4.057   1.347  16.005 -0.3836 -0.1478  0.1667
 9735TIP3    H150696   4.138   1.334  15.956  0.7397 -1.0929  2.1235
 9735TIP3    H250697   4.084   1.340  16.097 -2.0448  3.1811  1.0652
 9736TIP3   OH250698   1.201   6.099   1.603 -0.3860  0.2093  0.9239
 9736TIP3    H150699   1.211   6.193   1.585  1.0299 -0.3985 -2.0960
 9736TIP3    H250700   1.272   6.078   1.662  1.1877  0.5654 -0.7592
 9737TIP3   OH250701   0.854   5.463   6.279  0.0112 -0.4965  0.1016
 9737TIP3    H150702   0.926   5.492   6.335  0.3736  1.0778 -1.0878
 9737TIP3    H250703   0.896   5.445   6.194 -1.0245  0.9244 -0.7589
 9738TIP3   OH250704   0.069   1.994  15.800  0.6503 -0.2440 -0.0861
 9738TIP3    H150705  -0.017   2.034  15.786 -0.2230 -1.9806  0.0569
 9738TIP3    H250706   0.050   1.902  15.821  2.3939 -0.0599  2.7202
 9739TIP3   OH250707   2.272   4.252  13.432  0.2358 -0.2357 -0.1767
 9739TIP3    H150708   2.179   4.239  13.416  0.1655  0.0050  0.0149
 9739TIP3    H250709   2.296   4.182  13.493  0.8171 -2.0018 -2.3140
 9740TIP3   OH250710   3.148   6.122  11.576  0.5759  0.4100 -0.3354
 9740TIP3    H150711   3.182   6.211  11.570 -0.7994  0.9010 -1.1868
 9740TIP3    H250712   3.197   6.083  11.648  2.2928  1.3523 -0.9454
 9741TIP3   OH250713   2.481   1.989   0.002 -0.1713  0.4260 -0.1342
 9741TIP3    H150714   2.477   1.988   0.098  2.4300  2.2821  0.1015
 9741TIP3    H250715   2.454   1.900  -0.023 -0.4717 -0.2710  2.3354
 9742TIP3   OH250716   0.896   0.584  12.674 -0.1067  0.1784 -0.7509
 9742TIP3    H150717   0.824   0.647  12.670 -0.4329 -0.0247  1.1172
 9742TIP3    H250718   0.947   0.610  12.751  3.1294  1.5998 -3.0743
 9743TIP3   OH250719   1.752   2.939   5.305  0.2688 -0.1574  0.8601
 9743TIP3    H150720   1.676   2.973   5.259  0.1323 -0.0014  1.1962
 9743TIP3    H250721   1.790   3.015   5.349  1.8675  0.1905 -1.0200
 9744TIP3   OH250722   0.568   4.307   1.011  0.2141 -0.4542  0.0770
 9744TIP3    H150723   0.658   4.337   0.995  0.3412  0.6888  2.4871
 9744TIP3    H250724   0.573   4.260   1.094 -0.9306 -3.1372 -1.2408
 9745TIP3   OH250725   2.868   0.318  12.009  0.5012  0.1496 -0.3239
 9745TIP3    H150726   2.815   0.252  12.054 -1.0800  1.1720 -0.5920
 9745TIP3    H250727   2.928   0.268  11.954  0.4656 -1.0701  0.7085
 9746TIP3   OH250728   6.236   3.714   6.056  0.6678 -0.5586 -0.2291
 9746TIP3    H150729   6.217   3.625   6.029  0.0496 -0.9787  1.4819
 9746TIP3    H250730   6.288   3.705   6.135  0.0784  0.5731  0.3220
 9747TIP3   OH250731   5.767   4.919  14.253  0.0537  0.0002  0.0685
 9747TIP3    H150732   5.748   4.954  14.166  0.2714 -0.5109 -0.1850
 9747TIP3    H250733   5.683   4.883  14.282 -1.0866  3.4050  1.6390
 9748TIP3   OH250734   2.705   5.117  12.532 -0.5635  0.0540 -0.1556
 9748TIP3    H150735   2.641   5.144  12.597  0.5086 -0.7203  1.2795
 9748TIP3    H250736   2.753   5.197  12.510 -0.0007  0.0932  1.1138
 9749TIP3   OH250737   2.020   1.741   0.207 -0.1679 -0.2882 -0.7279
 9749TIP3    H150738   1.958   1.684   0.251  0.1898 -0.4357 -0.4132
 9749TIP3    H250739   2.093   1.684   0.183  0.0485 -0.0262 -0.6957
 9750TIP3   OH250740   4.025   6.540  14.307 -0.2628 -0.2514 -0.0094
 9750TIP3    H150741   4.099   6.552  14.247  1.3882  0.6719  2.0734
 9750TIP3    H250742   3.974   6.620  14.300  0.0174 -0.0777 -0.0842
 9751TIP3   OH250743   0.910   3.959  14.876  0.5031  0.3629 -0.0030
 9751TIP3    H150744   0.883   3.974  14.967  1.8082  0.5719  0.3618
 9751TIP3    H250745   0.985   4.016  14.863 -0.9193  1.9030 -1.8936
 9752TIP3   OH250746   5.350   2.865   1.668 -0.6578  0.7175 -0.1351
 9752TIP3    H150747   5.416   2.916   1.715 -0.2455  0.4176 -0.3840
 9752TIP3    H250748   5.314   2.805   1.733  1.9592 -1.7745 -0.7724
 9753TIP3   OH250749   5.967   5.102  13.366  0.0443  0.9990  0.6624
 9753TIP3    H150750   5.996   5.192  13.384  0.7814  0.8127  0.4377
 9753TIP3    H250751   6.001   5.051  13.440  0.5596  0.7290  0.2491
 9754TIP3   OH250752   6.672   4.725  15.288  0.1397  0.0839 -0.0310
 9754TIP3    H150753   6.723   4.793  15.243 -1.2378 -0.0539 -1.9028
 9754TIP3    H250754   6.587   4.767  15.305 -1.0262 -1.3639 -1.9672
 9755TIP3   OH250755   6.156   0.058   4.746  0.4546  0.1045  0.0501
 9755TIP3    H150756   6.183  -0.028   4.714  1.3999  0.3789  0.0819
 9755TIP3    H250757   6.063   0.048   4.766  0.6985 -1.0931  0.6561
 9756TIP3   OH250758   6.641   6.250  16.800  0.0169 -0.4791 -0.2027
 9756TIP3    H150759   6.665   6.162  16.831 -0.0374 -0.5224 -0.2836
 9756TIP3    H250760   6.628   6.239  16.706 -2.3113 -0.8862  0.1264
 9757TIP3   OH250761   3.425   5.160  12.864  0.1220  0.2035 -0.1377
 9757TIP3    H150762   3.504   5.129  12.820 -0.1659 -0.5794 -0.1248
 9757TIP3    H250763   3.357   5.159  12.797 -0.2988 -0.9082  0.2764
 9758TIP3   OH250764   6.060   3.027   5.464  0.2970  0.4555 -0.0062
 9758TIP3    H150765   6.100   3.072   5.390 -0.3583  0.7857 -0.1722
 9758TIP3    H250766   5.982   2.986   5.426  0.0073  0.5547  0.4797
 9759TIP3   OH250767   6.653   4.865   5.075 -0.0594  0.4277 -0.1822
 9759TIP3    H150768   6.604   4.823   5.004 -0.6750 -0.9524  0.9940
 9759TIP3    H250769   6.698   4.792   5.119  1.5197  1.4305 -0.0403
 9760TIP3   OH250770   4.780   1.625   6.673 -0.2663  0.5980 -0.1904
 9760TIP3    H150771   4.693   1.645   6.707  0.1651  2.1396  0.0776
 9760TIP3    H250772   4.786   1.672   6.590  0.2087  0.2632 -0.3519
 9761TIP3   OH250773   0.381   4.491  16.755 -0.0570 -0.1536  0.1727
 9761TIP3    H150774   0.304   4.534  16.794  0.5566 -0.3943  1.7315
 9761TIP3    H250775   0.373   4.400  16.783 -1.4179 -1.2255 -3.2113
 9762TIP3   OH250776   1.367   0.361   4.672  0.3237  0.5041 -0.3183
 9762TIP3    H150777   1.421   0.399   4.741 -1.4592 -1.5171  2.4198
 9762TIP3    H250778   1.428   0.316   4.615  1.7227 -0.4844  1.8331
 9763TIP3   OH250779   2.812   4.338  11.743 -0.2569  0.5440 -0.4088
 9763TIP3    H150780   2.817   4.389  11.662  0.1850 -2.8894 -2.7446
 9763TIP3    H250781   2.730   4.289  11.736  0.3364 -0.6601  0.6431
 9764TIP3   OH250782   3.173   4.123   4.721 -0.2218 -0.5627 -0.3107
 9764TIP3    H150783   3.081   4.139   4.745 -1.1553 -1.9687 -2.6467
 9764TIP3    H250784   3.203   4.057   4.783 -1.6169 -1.9034 -0.9864
 9765TIP3   OH250785   5.142   6.569   0.695  0.1509 -0.5193  0.2337
 9765TIP3    H150786   5.191   6.488   0.711 -0.7193 -0.7979  1.7288
 9765TIP3    H250787   5.067   6.563   0.755 -1.3779  0.1667 -1.5277
 9766TIP3   OH250788   4.815   0.555  15.976  0.1327 -0.3905  0.5581
 9766TIP3    H150789   4.847   0.469  16.001 -2.1906 -1.3497  0.4813
 9766TIP3    H250790   4.735   0.537  15.926 -0.4494  1.8065  0.6049
 9767TIP3   OH250791   0.037   0.623   6.049  0.5040 -0.2232  0.5593
 9767TIP3    H150792   0.044   0.570   6.128  0.4088  0.5261  1.0798
 9767TIP3    H250793   0.077   0.707   6.072 -0.1857  0.2641  0.0485
 9768TIP3   OH250794   1.728   5.499  13.589 -0.0395  0.0652 -0.0121
 9768TIP3    H150795   1.741   5.578  13.537 -0.3677  0.4048  0.4095
 9768TIP3    H250796   1.765   5.429  13.537  1.3485  0.6693  0.1283
 9769TIP3   OH250797   4.046   6.754   4.446  0.5071  0.1299 -0.2627
 9769TIP3    H150798   4.024   6.814   4.375 -0.9812 -0.0137  0.0417
 9769TIP3    H250799   4.106   6.690   4.407  0.4979  0.6345 -1.1085
 9770TIP3   OH250800   4.699   1.565   3.935 -0.3805 -0.1950 -0.5097
 9770TIP3    H150801   4.667   1.483   3.974 -2.5765  0.2980 -1.1479
 9770TIP3    H250802   4.756   1.537   3.864 -0.5247 -1.1625 -0.2619
 9771TIP3   OH250803   5.728   2.615   4.973 -0.2890 -0.3732 -0.3863
 9771TIP3    H150804   5.690   2.599   5.059  0.2121 -0.6249 -0.2054
 9771TIP3    H250805   5.669   2.572   4.912 -0.0927 -1.0987 -0.0817
 9772TIP3   OH250806   0.693   3.626  13.308  0.1111 -0.9914 -0.5802
 9772TIP3    H150807   0.733   3.621  13.395  0.9747 -1.6049 -0.9893
 9772TIP3    H250808   0.683   3.719  13.291 -0.2707 -0.8750  0.2690
 9773TIP3   OH250809   0.532   4.616   5.827 -0.0283  0.3136 -0.6587
 9773TIP3    H150810   0.555   4.657   5.911  0.5099  1.3044 -1.2796
 9773TIP3    H250811   0.440   4.594   5.836  0.0459  0.3176  0.2309
 9774TIP3   OH250812   1.575   4.025  12.541  0.4244  0.6098 -0.1926
 9774TIP3    H150813   1.556   3.940  12.579  1.7351  0.5499  0.3889
 9774TIP3    H250814   1.524   4.028  12.460 -0.2762 -0.3775  0.2012
 9775TIP3   OH250815   0.572   3.923  10.336 -1.0984 -0.4210 -0.4670
 9775TIP3    H150816   0.535   4.006  10.365  0.3911  0.0816  0.0791
 9775TIP3    H250817   0.550   3.861  10.406  1.0461  0.4126  1.0458
 9776TIP3   OH250818   4.470   5.173  13.546  0.5626  0.1189 -0.3048
 9776TIP3    H150819   4.542   5.150  13.604 -1.4471 -1.6038  1.7188
 9776TIP3    H250820   4.473   5.107  13.477  0.1956 -0.7593  0.4978
 9777TIP3   OH250821   3.888   5.555   6.371  0.2427 -0.0426  0.0405
 9777TIP3    H150822   3.868   5.462   6.356 -1.1175  0.2963 -0.4331
 9777TIP3    H250823   3.921   5.586   6.287 -2.1292  0.5536 -0.7683
 9778TIP3   OH250824   4.083   3.079  16.164  0.1748 -0.4024  0.6055
 9778TIP3    H150825   4.027   3.109  16.092  0.2442  0.0924  0.7538
 9778TIP3    H250826   4.033   3.096  16.243 -0.2036 -1.6103  0.6517
 9779TIP3   OH250827   5.601   5.715   5.942  0.3007  0.8154  0.2334
 9779TIP3    H150828   5.505   5.716   5.944  0.2580 -0.3311 -0.3109
 9779TIP3    H250829   5.627   5.761   6.021 -0.7085  0.6734  0.6665
 9780TIP3   OH250830   5.230   1.830   5.792  0.1638 -0.3086 -0.5536
 9780TIP3    H150831   5.308   1.847   5.739  0.8739  0.7787  0.7678
 9780TIP3    H250832   5.262   1.783   5.868 -0.3442  0.6438  0.2832
 9781TIP3   OH250833   1.427   2.834   5.376 -0.0302 -0.7544 -0.5752
 9781TIP3    H150834   1.376   2.771   5.325  1.0412 -1.2574 -1.0598
 9781TIP3    H250835   1.478   2.780   5.437 -0.0742 -0.2684 -0.1025
 9782TIP3   OH250836   4.378   5.182   1.423  0.6931 -0.2762 -0.4186
 9782TIP3    H150837   4.469   5.204   1.405  0.2814  1.0659 -1.0291
 9782TIP3    H250838   4.346   5.256   1.475 -0.2310 -0.3873 -0.8053
 9783TIP3   OH250839   5.868   2.357  11.875 -0.2796  0.0591  0.0256
 9783TIP3    H150840   5.776   2.364  11.848  0.0229  0.3740 -0.9949
 9783TIP3    H250841   5.887   2.440  11.918 -0.2211  0.4053 -0.6398
 9784TIP3   OH250842   6.723   0.099  11.943  0.3829 -0.3142 -0.2264
 9784TIP3    H150843   6.741   0.005  11.942  0.5143 -0.3865  2.1130
 9784TIP3    H250844   6.636   0.106  11.984  1.3167  0.6331  1.7297
 9785TIP3   OH250845   4.564   0.092   0.699  0.6471 -0.5432  0.2572
 9785TIP3    H150846   4.638   0.047   0.740  0.5369 -0.8192  0.1503
 9785TIP3    H250847   4.526   0.027   0.640 -0.2232 -0.6875  0.9661
 9786TIP3   OH250848   6.448   4.640  15.120  0.3426 -0.3293  0.2240
 9786TIP3    H150849   6.364   4.662  15.081  1.0041  1.5504 -0.2590
 9786TIP3    H250850   6.510   4.699  15.078  1.5851 -0.3005  1.9789
 9787TIP3   OH250851   6.300   3.974  11.101  0.3841 -1.1139  0.3491
 9787TIP3    H150852   6.309   3.980  11.196 -4.0046  0.5616  0.8840
 9787TIP3    H250853   6.275   3.883  11.085  0.5283 -1.2468  0.8333
 9788TIP3   OH250854   3.577   3.784  12.924 -0.4176  0.7555  0.0135
 9788TIP3    H150855   3.546   3.797  12.834  0.1432 -0.8721 -0.4621
 9788TIP3    H250856   3.519   3.837  12.978 -1.2187  1.2044 -1.2518
 9789TIP3   OH250857   1.592   1.525  16.347 -0.1732  0.4812 -0.2079
 9789TIP3    H150858   1.546   1.560  16.424 -0.5539  0.1932 -0.3037
 9789TIP3    H250859   1.624   1.602  16.301 -1.1800  0.7204 -0.5243
 9790TIP3   OH250860   4.605   1.711   3.011  0.3908 -0.3255 -0.4114
 9790TIP3    H150861   4.585   1.799   3.042  0.2924 -0.1439 -0.9696
 9790TIP3    H250862   4.576   1.653   3.081 -0.2085  0.0427 -0.3528
 9791TIP3   OH250863   0.047   6.698   1.210 -0.3289 -0.2322  0.1781
 9791TIP3    H150864  -0.035   6.736   1.240 -1.6884 -2.0864 -0.9702
 9791TIP3    H250865   0.040   6.605   1.229  1.1399 -0.5786 -0.7457
 9792TIP3   OH250866   2.230   4.799  12.400  0.1830 -0.0969 -0.3992
 9792TIP3    H150867   2.225   4.717  12.350 -2.5904 -0.1106 -0.2577
 9792TIP3    H250868   2.272   4.861  12.340 -2.2955 -0.3302 -2.5400
 9793TIP3   OH250869   5.716   4.867  12.967  0.1566  0.5132  0.2818
 9793TIP3    H150870   5.789   4.861  12.905  0.3547 -0.6746  0.6004
 9793TIP3    H250871   5.755   4.845  13.052 -0.5775 -0.1748  0.4486
 9794TIP3   OH250872   4.593   4.716   0.075 -0.2295 -0.3677 -0.0190
 9794TIP3    H150873   4.663   4.661   0.111  1.3697  1.7605  0.3898
 9794TIP3    H250874   4.600   4.705  -0.020 -0.2400 -1.2025  0.0730
 9795TIP3   OH250875   0.961   5.799   5.147  0.7865  0.0067  0.3359
 9795TIP3    H150876   0.907   5.791   5.226  0.8561  1.1649  0.5226
 9795TIP3    H250877   1.041   5.752   5.168 -0.7181 -3.3027 -0.5726
 9796TIP3   OH250878   3.246   4.874  15.349 -0.1887  0.1841  0.3985
 9796TIP3    H150879   3.174   4.895  15.408  2.8230  1.8747  3.8519
 9796TIP3    H250880   3.281   4.791  15.381 -0.0672 -0.2362 -0.7498
 9797TIP3   OH250881   3.179   2.605   3.920  0.1910  0.3655 -0.1542
 9797TIP3    H150882   3.149   2.669   3.986  0.1531  1.3292 -1.0771
 9797TIP3    H250883   3.255   2.647   3.880  0.8063 -0.6402 -0.0757
 9798TIP3   OH250884   0.927   5.058   5.508  0.1162  0.4894  0.5289
 9798TIP3    H150885   0.854   5.060   5.570  0.4745 -1.3156  1.0635
 9798TIP3    H250886   0.976   4.979   5.531  0.4815 -0.0346 -1.8260
 9799TIP3   OH250887   1.049   0.442  16.836 -0.1325 -0.2511 -0.9557
 9799TIP3    H150888   0.986   0.473  16.772 -0.6037 -1.3366 -1.0503
 9799TIP3    H250889   1.025   0.350  16.851 -0.0005 -0.0482  0.7367
 9800TIP3   OH250890   5.775   1.376  10.800 -0.1282 -0.0906  0.2958
 9800TIP3    H150891   5.783   1.342  10.711 -1.7914  0.2520 -0.0247
 9800TIP3    H250892   5.821   1.312  10.854  0.7223 -0.4185 -0.7726
 9801TIP3   OH250893   5.984   6.488  15.353 -0.8391  0.2337  0.1945
 9801TIP3    H150894   5.893   6.511  15.372 -0.5305  1.0531  0.7604
 9801TIP3    H250895   5.989   6.488  15.257 -1.4619  0.0308  0.1519
 9802TIP3   OH250896   0.074   5.634  16.261 -0.2436  0.3512 -0.5800
 9802TIP3    H150897   0.095   5.545  16.232  2.3386  0.2381  1.3095
 9802TIP3    H250898   0.040   5.623  16.350 -0.3193  1.2238 -0.4871
 9803TIP3   OH250899   5.076   0.954  11.530 -0.8092 -0.1675 -0.0496
 9803TIP3    H150900   5.076   1.025  11.595 -0.4751  0.9592 -1.2321
 9803TIP3    H250901   4.989   0.915  11.538 -0.7353 -0.1400  1.1526
 9804TIP3   OH250902   3.802   6.361  11.980  0.5029 -0.2992  0.0978
 9804TIP3    H150903   3.809   6.409  12.063 -1.7073  0.0488  0.1497
 9804TIP3    H250904   3.892   6.347  11.953  1.2645  2.0211  1.1672
 9805TIP3   OH250905   2.103   1.839  13.124 -0.1468 -0.1387  0.1898
 9805TIP3    H150906   2.049   1.846  13.045 -0.5079 -1.0583  0.3494
 9805TIP3    H250907   2.040   1.830  13.195  0.1979 -1.1634  0.3859
 9806TIP3   OH250908   1.320   1.685   3.322  0.1331  0.6869  0.2293
 9806TIP3    H150909   1.288   1.722   3.405  0.8612 -0.3100  0.9827
 9806TIP3    H250910   1.242   1.649   3.280 -0.3853  1.9495  0.0598
 9807TIP3   OH250911   3.592   5.533  17.153  0.1975 -0.0998 -0.2500
 9807TIP3    H150912   3.610   5.603  17.089 -0.5132  1.6010  1.3108
 9807TIP3    H250913   3.679   5.498  17.175  0.5443  0.0775 -1.2656
 9808TIP3   OH250914   5.007   4.293   2.115 -0.3492  0.6051 -0.6265
 9808TIP3    H150915   4.935   4.264   2.058  0.3462 -2.7216  0.0147
 9808TIP3    H250916   5.070   4.221   2.113  0.0411  0.5818  3.7758
 9809TIP3   OH250917   3.876   2.258   4.411  0.1713 -0.1263  0.1503
 9809TIP3    H150918   3.923   2.290   4.334 -0.0566 -0.0374  0.0482
 9809TIP3    H250919   3.808   2.201   4.376  0.7287 -0.9282  0.3453
 9810TIP3   OH250920   3.073   6.179  12.179 -0.5007  0.2511 -0.1601
 9810TIP3    H150921   3.148   6.140  12.225  0.6836  1.7340 -0.7411
 9810TIP3    H250922   3.054   6.259  12.228 -2.3523 -0.5521  0.5261
 9811TIP3   OH250923   0.888   6.186  11.841 -0.0762  0.0952 -0.0019
 9811TIP3    H150924   0.908   6.227  11.926  2.3120 -0.8433 -0.0258
 9811TIP3    H250925   0.969   6.141  11.817 -0.4660  0.7873 -3.0672
 9812TIP3   OH250926   3.416   4.716   2.792  0.3213 -0.1839 -0.8219
 9812TIP3    H150927   3.427   4.630   2.752  0.3472 -0.2372 -0.7004
 9812TIP3    H250928   3.504   4.740   2.820  0.0717 -0.8188  0.5861
 9813TIP3   OH250929   1.381   1.192   2.798 -0.6970 -0.4439 -0.1570
 9813TIP3    H150930   1.442   1.181   2.871 -2.0951  0.4316  1.1871
 9813TIP3    H250931   1.321   1.118   2.805  0.1052 -1.2681 -1.4408
 9814TIP3   OH250932   3.981   4.024   2.938  0.1484  0.4666  0.9272
 9814TIP3    H150933   3.975   4.119   2.946 -1.9606  1.0293 -4.0150
 9814TIP3    H250934   4.046   4.010   2.868  1.5290 -1.9387  2.5297
 9815TIP3   OH250935   5.216   0.014  14.679  0.3496 -0.7219 -0.2247
 9815TIP3    H150936   5.121   0.022  14.688  0.0663 -2.7409 -0.9128
 9815TIP3    H250937   5.248   0.104  14.674 -1.6508 -0.0208 -1.2153
 9816TIP3   OH250938   5.081   3.676   1.366 -0.5073 -0.4422 -0.5823
 9816TIP3    H150939   5.071   3.598   1.312 -0.7664  0.3987 -1.8012
 9816TIP3    H250940   5.156   3.722   1.328 -0.3033 -0.1412  0.1711
 9817TIP3   OH250941   4.184   4.107  11.892  0.6854  0.0491  0.0656
 9817TIP3    H150942   4.108   4.074  11.939 -0.1625  1.4168 -0.2881
 9817TIP3    H250943   4.148   4.149  11.814  1.7516  1.0657  0.0900
 9818TIP3   OH250944   3.708   6.814  12.297  0.1360 -0.6674 -0.3448
 9818TIP3    H150945   3.797   6.793  12.322 -0.0429  0.5291  1.5359
 9818TIP3    H250946   3.669   6.851  12.377 -1.4435  0.6025 -1.6254
 9819TIP3   OH250947   2.107   5.550  11.095 -0.6049 -0.3326  0.3358
 9819TIP3    H150948   2.054   5.630  11.088 -1.0658 -0.6372  0.2993
 9819TIP3    H250949   2.127   5.526  11.005 -1.2459 -0.7665  0.3031
 9820TIP3   OH250950   0.857   2.478   1.016  0.0907 -0.2214 -0.4329
 9820TIP3    H150951   0.886   2.444   0.932  1.1819 -0.7181  0.1273
 9820TIP3    H250952   0.833   2.569   0.998 -0.5654 -0.5850 -1.4567
 9821TIP3   OH250953   3.380   2.854   5.767 -0.1027 -0.4338  0.0515
 9821TIP3    H150954   3.465   2.897   5.775  0.0467 -0.7270  0.0365
 9821TIP3    H250955   3.364   2.818   5.854 -0.1120 -0.5639 -0.0040
 9822TIP3   OH250956   0.307   6.231  11.669 -0.0611 -0.6901 -0.3872
 9822TIP3    H150957   0.361   6.237  11.591 -0.3563 -2.0018 -0.7271
 9822TIP3    H250958   0.257   6.150  11.657 -0.5155 -0.6282  0.9025
 9823TIP3   OH250959   1.970   1.973   1.408 -0.0376 -0.2895  0.4301
 9823TIP3    H150960   1.940   1.888   1.441  0.9244 -0.9695 -0.3767
 9823TIP3    H250961   1.920   1.986   1.327 -0.3146  0.0046  0.6460
 9824TIP3   OH250962   5.326   0.708   3.003  0.4729 -0.0483 -0.0271
 9824TIP3    H150963   5.389   0.690   2.933 -0.2778  1.6668 -1.2198
 9824TIP3    H250964   5.254   0.754   2.960 -0.1538  0.8260  1.8303
 9825TIP3   OH250965   5.250   0.817   3.318  0.6214 -0.0286 -0.7684
 9825TIP3    H150966   5.266   0.724   3.303 -1.0696 -0.7994  1.6447
 9825TIP3    H250967   5.287   0.834   3.404 -1.7484  0.7162  0.1808
 9826TIP3   OH250968   4.011   5.350   3.052 -0.1572 -0.3031 -0.3476
 9826TIP3    H150969   3.920   5.363   3.079  0.6535  0.6775  2.2063
 9826TIP3    H250970   4.044   5.282   3.111  1.1213  0.2884 -0.3527
 9827TIP3   OH250971   2.082   1.419   1.027  0.2576  0.8951 -0.5210
 9827TIP3    H150972   2.128   1.334   1.028  0.6529  1.0493 -2.5230
 9827TIP3    H250973   2.091   1.451   1.117 -2.1476 -2.3202  1.0910
 9828TIP3   OH250974   1.135   2.577  12.489  0.0875 -0.3938  0.3219
 9828TIP3    H150975   1.117   2.670  12.477 -0.4408 -0.3303  1.5104
 9828TIP3    H250976   1.066   2.532  12.441  1.4609 -0.2377 -1.9748
 9829TIP3   OH250977   1.763   6.675  15.899  0.1171 -0.1453  0.0771
 9829TIP3    H150978   1.799   6.763  15.898 -1.7236  0.6654  0.9182
 9829TIP3    H250979   1.771   6.645  15.808  2.1970  0.2370  0.1007
 9830TIP3   OH250980   5.293   2.705   6.059 -0.4225  0.0765  0.3278
 9830TIP3    H150981   5.327   2.624   6.096  1.0239  0.5382  0.0668
 9830TIP3    H250982   5.363   2.737   6.002 -1.7121  0.5351 -1.0600
 9831TIP3   OH250983   4.733   0.285   5.786 -0.2548  0.0143  0.2907
 9831TIP3    H150984   4.671   0.234   5.734 -1.3200 -0.3323  1.8601
 9831TIP3    H250985   4.682   0.360   5.817  0.9865  1.4805 -1.0335
 9832TIP3   OH250986   0.261   5.994  13.459 -0.4216 -0.0926  0.3579
 9832TIP3    H150987   0.240   5.944  13.538 -0.3190  1.6136  1.5278
 9832TIP3    H250988   0.274   6.084  13.491 -0.6849  0.7041 -1.6447
 9833TIP3   OH250989   2.052   3.881  14.069  0.7643 -0.0675  0.0219
 9833TIP3    H150990   2.039   3.796  14.113  0.6623 -0.7154 -1.2329
 9833TIP3    H250991   1.964   3.907  14.043  1.0674 -0.9285 -2.0223
 9834TIP3   OH250992   0.751   4.868  14.757 -0.0900  0.8018 -0.6502
 9834TIP3    H150993   0.796   4.867  14.673 -0.2047  3.2025 -0.8096
 9834TIP3    H250994   0.801   4.930  14.810 -0.9986  0.6056  0.4552
 9835TIP3   OH250995   4.626   1.004   2.687 -0.2136 -0.5072 -0.6227
 9835TIP3    H150996   4.530   1.003   2.691 -0.2001 -0.7758 -0.3159
 9835TIP3    H250997   4.647   0.966   2.602 -0.3334 -2.3201  0.1306
 9836TIP3   OH250998   0.469   5.178  12.582  0.2340 -0.3118  0.5495
 9836TIP3    H150999   0.409   5.185  12.656  0.7323 -1.1062  1.0430
 9836TIP3    H251000   0.427   5.115  12.523 -0.7156  1.1617 -0.4146
 9837TIP3   OH251001   3.464   4.042   2.913 -0.0438 -0.1888  0.0303
 9837TIP3    H151002   3.442   3.989   2.989 -0.5662  0.6720  0.5012
 9837TIP3    H251003   3.550   4.011   2.886  0.8920  0.5470  1.9769
 9838TIP3   OH251004   1.372   5.346  12.901 -0.4521 -0.1140 -0.5445
 9838TIP3    H151005   1.423   5.367  12.979 -0.6891 -0.7449 -0.2164
 9838TIP3    H251006   1.376   5.426  12.848  1.4594 -0.3602 -0.8517
 9839TIP3   OH251007   3.945   2.206   1.064 -0.1236  0.0048 -0.1480
 9839TIP3    H151008   3.936   2.301   1.070  0.4826  0.1321 -1.0679
 9839TIP3    H251009   3.906   2.182   0.980  0.0194 -0.5227 -0.0729
 9840TIP3   OH251010   1.780   0.830  15.173 -0.2209  0.0293 -0.3972
 9840TIP3    H151011   1.818   0.885  15.242 -0.0352 -1.3587  0.6611
 9840TIP3    H251012   1.688   0.821  15.198  0.3515 -2.4890  1.1393
 9841TIP3   OH251013   1.405   0.287  16.958  0.9513 -0.0357  0.1251
 9841TIP3    H151014   1.374   0.277  17.048  0.9761  0.6949  0.2176
 9841TIP3    H251015   1.367   0.212  16.912  0.5868 -0.1811  0.6464
 9842TIP3   OH251016   4.512   3.299   0.500  0.2149 -0.2839  0.7736
 9842TIP3    H151017   4.602   3.327   0.482  0.5805 -0.3910  2.2933
 9842TIP3    H251018   4.461   3.379   0.493  0.6245  0.0109  1.0887
 9843TIP3   OH251019   3.070   2.528   6.088 -0.0302 -0.3852  0.0253
 9843TIP3    H151020   2.981   2.520   6.121 -0.1819  3.3507  1.0107
 9843TIP3    H251021   3.117   2.577   6.155  2.3652 -0.8121 -1.1932
 9844TIP3   OH251022   1.254   5.958   3.897  0.1770  0.1240  0.5463
 9844TIP3    H151023   1.173   5.934   3.852  1.0496  0.1615 -1.0994
 9844TIP3    H251024   1.283   5.877   3.939  1.2794 -0.9621 -2.0875
 9845TIP3   OH251025   3.542   5.684  16.136  0.2221 -0.1213 -0.1777
 9845TIP3    H151026   3.572   5.763  16.091  1.3469 -0.9325 -0.8807
 9845TIP3    H251027   3.490   5.637  16.071 -0.2004 -0.1225  0.1514
 9846TIP3   OH251028   4.735   2.742  14.733 -0.3823  0.0771  0.1916
 9846TIP3    H151029   4.711   2.808  14.798  0.4843  0.4239  0.1697
 9846TIP3    H251030   4.653   2.718  14.692 -1.1926 -1.1445  2.3515
 9847TIP3   OH251031   0.030   2.084  16.074 -0.3075  0.4591 -0.6458
 9847TIP3    H151032   0.080   2.043  16.003 -0.4187 -0.6269 -0.1183
 9847TIP3    H251033  -0.061   2.077  16.047 -0.4328 -0.9122  0.0584
 9848TIP3   OH251034   1.253   4.815  16.175 -0.4256 -0.6948 -0.2109
 9848TIP3    H151035   1.198   4.892  16.188 -0.4370 -0.6289 -0.6096
 9848TIP3    H251036   1.293   4.798  16.260 -2.3659 -1.7620  0.5679
 9849TIP3   OH251037   0.535   0.693   6.025  0.1865 -0.4623 -0.0370
 9849TIP3    H151038   0.581   0.609   6.029  1.2059  0.0988  0.2123
 9849TIP3    H251039   0.501   0.706   6.114 -0.2680 -0.7709 -0.1640
 9850TIP3   OH251040   5.485   5.607   6.677 -0.2982 -0.1764  0.4845
 9850TIP3    H151041   5.515   5.625   6.588 -0.0802  0.0150  0.5965
 9850TIP3    H251042   5.465   5.693   6.714  0.3625 -0.1942  0.8857
 9851TIP3   OH251043   3.513   0.156   4.215  0.2346  0.5211  0.2739
 9851TIP3    H151044   3.486   0.226   4.275 -0.1546 -0.0729  0.8004
 9851TIP3    H251045   3.433   0.107   4.199  0.5095  0.1927 -0.0949
 9852TIP3   OH251046   1.569   3.605  13.989  0.3366 -0.5579 -0.4469
 9852TIP3    H151047   1.589   3.512  13.999  1.1062 -0.4751 -1.1525
 9852TIP3    H251048   1.637   3.639  13.931  0.5317  0.6268  0.4359
 9853TIP3   OH251049   4.850   2.450  14.189  0.6507 -0.0611  0.5478
 9853TIP3    H151050   4.942   2.453  14.163  0.4504  0.6092 -0.1108
 9853TIP3    H251051   4.808   2.397  14.121  0.3501  0.6136  0.2031
 9854TIP3   OH251052   5.462   5.062   3.644 -0.5406  0.2759 -0.4940
 9854TIP3    H151053   5.548   5.087   3.611  0.6583 -0.1345  2.0827
 9854TIP3    H251054   5.412   5.144   3.645  0.1166  0.6939 -1.1241
 9855TIP3   OH251055   0.981   3.217   4.802 -0.4244 -0.3983 -0.3221
 9855TIP3    H151056   1.028   3.255   4.729 -1.8999 -0.9924 -1.6343
 9855TIP3    H251057   1.032   3.241   4.879  0.3077  1.6032 -1.3794
 9856TIP3   OH251058   1.599   3.485   3.155 -0.1615 -0.2049  0.0439
 9856TIP3    H151059   1.681   3.527   3.183 -0.8604  1.3282 -0.1176
 9856TIP3    H251060   1.627   3.401   3.118  1.3523  0.3484 -0.1482
 9857TIP3   OH251061   2.477   2.456  16.679  0.1648  0.2149  0.5470
 9857TIP3    H151062   2.502   2.392  16.745 -0.7563 -0.3581  0.3623
 9857TIP3    H251063   2.499   2.540  16.718  2.1018 -0.2166  0.4788
 9858TIP3   OH251064   1.977   2.487   0.254  0.2603  0.1373 -0.2432
 9858TIP3    H151065   1.976   2.546   0.329 -1.5648  0.2052 -0.2887
 9858TIP3    H251066   2.033   2.414   0.283  1.8301  1.4119  0.1281
 9859TIP3   OH251067   5.281   5.516  12.943 -0.1401  0.3261 -0.1441
 9859TIP3    H151068   5.186   5.510  12.931 -0.1647  1.6899 -0.7985
 9859TIP3    H251069   5.294   5.602  12.983  0.8991  0.6112 -1.0666
 9860TIP3   OH251070   3.210   0.541  16.070 -0.1975 -0.4503 -0.2479
 9860TIP3    H151071   3.133   0.565  16.123  0.7089 -0.1993  0.9968
 9860TIP3    H251072   3.275   0.512  16.133  1.2029  0.5930 -1.1409
 9861TIP3   OH251073   2.769   2.671  13.922  0.0707  0.4389  0.2345
 9861TIP3    H151074   2.695   2.629  13.965 -0.4713  3.3585  2.4789
 9861TIP3    H251075   2.749   2.764  13.926  1.5795  1.1021 -3.6654
 9862TIP3   OH251076   3.875   3.016   2.901 -0.4561 -0.1541 -0.0323
 9862TIP3    H151077   3.822   3.094   2.918 -0.7512 -0.3927  0.1547
 9862TIP3    H251078   3.929   3.039   2.825 -0.9086  0.0477 -0.2938
 9863TIP3   OH251079   3.470   3.212  14.061 -0.4261 -0.1387 -0.9082
 9863TIP3    H151080   3.388   3.243  14.022 -1.5803 -2.0388 -0.1358
 9863TIP3    H251081   3.443   3.143  14.122  1.7659 -0.8764 -0.6800
 9864TIP3   OH251082   1.358   5.081   4.352 -0.1069 -0.2927 -0.5610
 9864TIP3    H151083   1.272   5.099   4.314 -0.3400 -0.0498  0.0745
 9864TIP3    H251084   1.411   5.050   4.278 -1.2117 -2.1027 -0.6463
 9865TIP3   OH251085   0.330   0.947  12.926 -0.5660 -0.2018  0.2445
 9865TIP3    H151086   0.273   0.985  12.992 -1.2209  0.6434 -0.7718
 9865TIP3    H251087   0.418   0.973  12.952 -0.8282  0.2438  0.6966
 9866TIP3   OH251088   4.964   3.434   4.404 -0.1088 -0.0847 -0.0432
 9866TIP3    H151089   4.875   3.448   4.437 -0.0647 -0.0052  0.0404
 9866TIP3    H251090   4.980   3.509   4.346 -0.2200 -0.2711 -0.3147
 9867TIP3   OH251091   2.574   6.631   2.202 -0.1294 -0.0111 -0.7770
 9867TIP3    H151092   2.480   6.620   2.189 -0.6667  0.6870  1.9552
 9867TIP3    H251093   2.607   6.659   2.117 -2.0264 -2.1203 -2.3369
 9868TIP3   OH251094   3.746   4.701   2.744  0.0906  0.0637 -0.4121
 9868TIP3    H151095   3.745   4.784   2.793  2.1672  1.1969 -2.1423
 9868TIP3    H251096   3.816   4.650   2.784  0.5314  0.2093 -0.9956
 9869TIP3   OH251097   5.943   4.101  14.284  0.2608  0.7409  0.4071
 9869TIP3    H151098   5.896   4.171  14.330 -1.5665 -0.0594 -0.1645
 9869TIP3    H251099   6.015   4.078  14.343 -0.2480  1.7877  1.4765
 9870TIP3   OH251100   3.285   1.231  13.313  0.1701 -0.7712 -0.1265
 9870TIP3    H151101   3.327   1.223  13.399 -0.8604 -2.6524  0.2606
 9870TIP3    H251102   3.200   1.271  13.333  1.3298  2.2437 -0.7972
 9871TIP3   OH251103   5.737   2.588  13.191 -0.5935  0.2379  0.1288
 9871TIP3    H151104   5.667   2.647  13.218 -0.9087  1.2349 -2.5967
 9871TIP3    H251105   5.813   2.616  13.242 -1.2625  1.5954  0.4194
 9872TIP3   OH251106   4.822   3.514  15.202 -0.4617  0.1216 -0.1939
 9872TIP3    H151107   4.899   3.553  15.161 -0.5568 -0.4875 -0.9606
 9872TIP3    H251108   4.748   3.540  15.147 -0.7286  0.1701  0.1784
 9873TIP3   OH251109   2.996   4.816  14.082 -0.6214  0.6121  0.4050
 9873TIP3    H151110   3.084   4.786  14.104 -0.9014 -0.7148 -0.1922
 9873TIP3    H251111   2.970   4.762  14.007 -2.5774 -0.2224  1.5857
 9874TIP3   OH251112   6.772   5.612  15.476 -0.2073 -0.2258 -0.4241
 9874TIP3    H151113   6.823   5.615  15.395  0.0010 -1.0340 -0.3317
 9874TIP3    H251114   6.810   5.540  15.525 -1.9157 -1.3646 -0.6708
 9875TIP3   OH251115   4.483   2.958   3.911  0.0724  0.1799  0.0539
 9875TIP3    H151116   4.530   2.890   3.862 -0.7886  0.0934 -0.6775
 9875TIP3    H251117   4.552   3.008   3.954  0.7377 -1.0665  0.5007
 9876TIP3   OH251118   2.077   3.072   2.732 -0.4171  0.2089 -0.2848
 9876TIP3    H151119   2.024   3.077   2.653  0.0434  2.0872 -0.5440
 9876TIP3    H251120   2.073   2.981   2.760 -3.6975  0.2444 -0.3193
 9877TIP3   OH251121   4.797   1.770  14.428  0.6407  0.1705  0.0227
 9877TIP3    H151122   4.860   1.810  14.368  1.0757 -0.5682 -0.0190
 9877TIP3    H251123   4.845   1.698  14.469 -0.0613 -0.1635  0.2733
 9878TIP3   OH251124   3.655   4.168  13.075  0.0083  0.0699 -0.4511
 9878TIP3    H151125   3.720   4.112  13.033 -0.5762 -0.0869 -1.1692
 9878TIP3    H251126   3.699   4.201  13.154  0.9562  0.0029 -0.9384
 9879TIP3   OH251127   6.666   1.130  11.926 -0.3248 -0.1302  0.1843
 9879TIP3    H151128   6.623   1.192  11.985  1.2104  2.3075 -1.1140
 9879TIP3    H251129   6.639   1.044  11.958 -2.7584  1.1768  1.9121
 9880TIP3   OH251130   4.834   4.698  15.732  0.6546 -0.3544 -0.5120
 9880TIP3    H151131   4.918   4.740  15.717  1.7198 -2.6381 -1.1904
 9880TIP3    H251132   4.836   4.672  15.824 -0.4729  1.8816  0.2484
 9881TIP3   OH251133   5.236   1.255   0.477  0.1455  0.3247 -0.3240
 9881TIP3    H151134   5.281   1.195   0.417 -0.1714 -1.4504  1.1183
 9881TIP3    H251135   5.300   1.322   0.497  0.1174  1.2396 -2.9431
 9882TIP3   OH251136   5.496   3.301  14.513  0.0464 -0.1842  0.1153
 9882TIP3    H151137   5.536   3.309  14.426  2.2366 -0.9642  0.9648
 9882TIP3    H251138   5.513   3.385  14.555  1.3898 -0.6951  0.6633
 9883TIP3   OH251139   5.697   1.984   6.493  0.3900  0.4346 -0.3846
 9883TIP3    H151140   5.735   2.032   6.566  1.0019  0.6074 -0.8056
 9883TIP3    H251141   5.735   1.896   6.500  0.2458  0.3753 -0.3430
 9884TIP3   OH251142   4.273   1.946  11.243 -0.2937 -0.1277  0.8938
 9884TIP3    H151143   4.328   2.014  11.282  0.5747 -0.2088 -0.1460
 9884TIP3    H251144   4.245   1.982  11.159 -0.9859 -0.5070  0.9506
 9885TIP3   OH251145   2.722   3.674   2.814 -0.1093  0.7780  0.4259
 9885TIP3    H151146   2.668   3.753   2.807  0.8254  1.2947 -1.8943
 9885TIP3    H251147   2.808   3.700   2.779  0.8358 -0.7519  1.4589
 9886TIP3   OH251148   4.665   6.149   1.645 -0.0653 -0.5440  0.2744
 9886TIP3    H151149   4.668   6.119   1.554  2.7566 -0.2015  0.1746
 9886TIP3    H251150   4.612   6.229   1.641  1.3467  0.3991 -1.4377
 9887TIP3   OH251151   5.697   1.952  17.071 -0.1823  0.0049 -0.3115
 9887TIP3    H151152   5.686   2.046  17.088 -1.9506 -0.3722  0.9792
 9887TIP3    H251153   5.717   1.915  17.157 -1.7363 -1.0394 -0.3569
 9888TIP3   OH251154   5.599   3.392  14.275 -0.0643 -0.6157 -0.4021
 9888TIP3    H151155   5.583   3.334  14.200 -1.8233 -0.3974 -0.2431
 9888TIP3    H251156   5.653   3.462  14.239 -0.1578 -0.9667 -1.2669
 9889TIP3   OH251157   3.941   5.553  17.217 -0.4466  0.0261 -0.5484
 9889TIP3    H151158   3.955   5.555  17.123 -0.3677  1.8967 -0.5400
 9889TIP3    H251159   3.895   5.635  17.236  0.0334 -0.0425  1.1092
 9890TIP3   OH251160   4.046   4.037  10.953 -0.0965 -0.1697 -0.1741
 9890TIP3    H151161   4.008   4.117  10.989  2.1783  0.0631  2.0462
 9890TIP3    H251162   4.003   3.966  11.000  0.4552 -0.0215  0.5822
 9891TIP3   OH251163   3.632   5.920   1.618 -0.1122  0.0619  0.2577
 9891TIP3    H151164   3.659   6.007   1.587 -0.6145  0.1129 -0.0528
 9891TIP3    H251165   3.681   5.859   1.563 -3.1625  0.0976 -2.8338
 9892TIP3   OH251166   4.483   6.566   3.310  0.2981  0.2657 -0.4112
 9892TIP3    H151167   4.493   6.591   3.402  1.9397 -0.0922 -0.4543
 9892TIP3    H251168   4.402   6.516   3.308  0.9733 -0.9880  1.1552
 9893TIP3   OH251169   4.496   0.669   0.050  0.2849  0.1218 -0.3631
 9893TIP3    H151170   4.479   0.761   0.031 -0.9790  0.9389  3.7065
 9893TIP3    H251171   4.546   0.670   0.131  2.4723 -2.8295 -1.5014
 9894TIP3   OH251172   3.825   4.037  12.833  0.1641  0.6807  0.0491
 9894TIP3    H151173   3.774   3.973  12.783  1.5339 -0.2652 -0.1947
 9894TIP3    H251174   3.901   3.987  12.865 -0.1884  1.4661  2.3256
 9895TIP3   OH251175   4.458   4.309   0.619  0.0692 -0.8973  0.4612
 9895TIP3    H151176   4.533   4.347   0.574  0.8010 -1.0820  1.4848
 9895TIP3    H251177   4.432   4.374   0.684 -0.7756 -0.7615 -0.0013
 9896TIP3   OH251178   4.872   2.053   2.365  0.3981  0.3758  0.5802
 9896TIP3    H151179   4.871   2.141   2.401 -0.1176  0.2723  0.8308
 9896TIP3    H251180   4.798   2.009   2.408  0.3529 -0.0286  0.0919
 9897TIP3   OH251181   1.728   5.671  12.388  0.4326  0.1980  0.3910
 9897TIP3    H151182   1.648   5.632  12.423 -0.8024  1.0708 -1.3173
 9897TIP3    H251183   1.787   5.597  12.375 -1.0447 -0.8339 -0.7432
 9898TIP3   OH251184   4.493   2.142   4.441 -0.1746 -0.1947  0.0769
 9898TIP3    H151185   4.442   2.176   4.367  1.6787  1.0858 -0.6888
 9898TIP3    H251186   4.512   2.051   4.416 -3.4578 -1.3592  1.2137
 9899TIP3   OH251187   2.283   4.746  10.620  0.0204  0.2252 -0.1145
 9899TIP3    H151188   2.341   4.821  10.613  0.0280  0.1829 -0.5164
 9899TIP3    H251189   2.266   4.720  10.530 -1.7666  1.1088 -0.0890
 9900TIP3   OH251190   0.579   0.390  15.481 -0.2684  0.2291 -0.6012
 9900TIP3    H151191   0.510   0.456  15.494  0.3395  0.6694  0.5479
 9900TIP3    H251192   0.570   0.331  15.556  2.1154  1.6997  0.9741
 9901TIP3   OH251193   1.838   4.616   5.280 -0.0076 -0.1568  0.2935
 9901TIP3    H151194   1.819   4.528   5.315 -0.2969  0.5208  1.9380
 9901TIP3    H251195   1.933   4.622   5.281  0.0830 -0.9622 -1.2078
 9902TIP3   OH251196   2.592   0.222   0.225  0.4497  0.3711 -0.8225
 9902TIP3    H151197   2.579   0.137   0.266 -0.4566  0.5320 -0.7445
 9902TIP3    H251198   2.553   0.213   0.138  1.1657  0.4369 -1.1593
 9903TIP3   OH251199   6.508   4.146  16.341  0.5422 -0.2003  0.9693
 9903TIP3    H151200   6.593   4.126  16.303  0.1186  0.1090 -0.1880
 9903TIP3    H251201   6.489   4.235  16.312 -0.3261 -0.3933  0.9096
 9904TIP3   OH251202   4.196   2.477   1.990 -0.5001  0.1311  0.1895
 9904TIP3    H151203   4.181   2.561   1.948 -0.1754  0.6471  1.0832
 9904TIP3    H251204   4.290   2.476   2.010 -0.6988  0.0322  1.1672
 9905TIP3   OH251205   1.194   6.368   1.583 -0.0756  0.4047 -0.7130
 9905TIP3    H151206   1.140   6.434   1.627  1.3010  1.2792 -0.2637
 9905TIP3    H251207   1.240   6.417   1.515  0.3870 -0.2558 -0.8809
 9906TIP3   OH251208   1.073   1.758   4.006  0.5847  0.5039 -0.1393
 9906TIP3    H151209   1.050   1.846   3.974  4.2459  2.1332  1.1617
 9906TIP3    H251210   1.104   1.772   4.095 -1.9628 -2.7567  1.4694
 9907TIP3   OH251211   0.931   5.619   3.827 -0.6274 -0.3185 -0.9980
 9907TIP3    H151212   0.933   5.656   3.914  0.0325  2.4815 -2.1114
 9907TIP3    H251213   0.994   5.547   3.830 -0.9194 -0.5464  0.8918
 9908TIP3   OH251214   5.361   2.053   3.156  0.0721 -0.6232 -0.7997
 9908TIP3    H151215   5.325   1.992   3.092  0.1834 -1.0251 -0.4802
 9908TIP3    H251216   5.381   1.999   3.232 -2.2897  0.2038  0.5024
 9909TIP3   OH251217   1.880   6.614  16.540 -0.1473  0.4851 -0.1969
 9909TIP3    H151218   1.961   6.635  16.586 -0.6394 -0.1146  0.9868
 9909TIP3    H251219   1.813   6.608  16.609 -1.8126  3.5415 -1.3294
 9910TIP3   OH251220   6.665   0.257   3.041 -0.1469  0.1261  0.9480
 9910TIP3    H151221   6.674   0.278   3.134  0.1267 -0.1569  0.9886
 9910TIP3    H251222   6.572   0.268   3.022 -0.0243  1.3219  0.9747
 9911TIP3   OH251223   4.464   4.634  12.589 -0.0824  0.1655 -0.2915
 9911TIP3    H151224   4.453   4.724  12.559 -1.0652 -0.1960 -1.0329
 9911TIP3    H251225   4.505   4.589  12.516 -3.4326 -0.9673 -1.6328
 9912TIP3   OH251226   6.760   1.307  15.274  0.4685 -0.1857 -0.1625
 9912TIP3    H151227   6.802   1.235  15.320 -0.8453 -0.4473  0.6664
 9912TIP3    H251228   6.758   1.279  15.182 -0.4801 -1.4641  0.2129
 9913TIP3   OH251229   2.928   0.957  14.465  0.1802 -0.1023 -0.4462
 9913TIP3    H151230   2.924   1.050  14.445 -2.4594  0.0932  0.6480
 9913TIP3    H251231   2.961   0.953  14.554  1.7683 -0.3695 -1.0034
 9914TIP3   OH251232   6.033   0.726   2.238  0.3164 -0.3638  0.6623
 9914TIP3    H151233   6.124   0.699   2.228 -0.1311 -2.1075  0.9659
 9914TIP3    H251234   5.986   0.679   2.169 -0.4059  0.2975  0.6878
 9915TIP3   OH251235   1.159   6.199   5.332 -0.4486 -0.0044 -0.0244
 9915TIP3    H151236   1.122   6.275   5.286 -1.5701 -0.8335 -0.5388
 9915TIP3    H251237   1.093   6.177   5.398  0.8100  0.7095  1.5281
 9916TIP3   OH251238   6.679   4.518   4.813  0.0482 -0.0981 -0.1883
 9916TIP3    H151239   6.744   4.494   4.880 -0.3706 -0.7769 -0.0094
 9916TIP3    H251240   6.595   4.518   4.860 -0.1174  0.4873 -0.4787
 9917TIP3   OH251241   1.382   2.407   1.333  0.1663  0.3878  0.0098
 9917TIP3    H151242   1.369   2.390   1.426  1.3281  0.1066  0.1343
 9917TIP3    H251243   1.413   2.498   1.330 -1.4623  0.9522 -0.2522
 9918TIP3   OH251244   0.144   4.124   5.397  0.5585 -0.3192  0.0800
 9918TIP3    H151245   0.087   4.155   5.326  0.0048  0.3240  0.7956
 9918TIP3    H251246   0.152   4.030   5.381 -1.8817 -0.7123  0.7373
 9919TIP3   OH251247   4.035   3.199   3.115 -0.5953  0.0806 -0.0773
 9919TIP3    H151248   4.073   3.266   3.172 -0.8600 -0.4068  0.6869
 9919TIP3    H251249   3.940   3.211   3.123 -0.6362 -0.1192 -0.2502
 9920TIP3   OH251250   2.892   0.486   3.985  0.3530  0.0181  0.1194
 9920TIP3    H151251   2.950   0.562   3.988  0.9973 -0.5023  1.3088
 9920TIP3    H251252   2.833   0.504   3.912  1.2177  1.1325 -0.3293
 9921TIP3   OH251253   4.945   5.842  16.375 -0.5695  0.3493 -0.2120
 9921TIP3    H151254   4.931   5.761  16.325  2.9930 -0.6402  0.1255
 9921TIP3    H251255   5.000   5.896  16.319  1.2475  0.3662  1.4750
 9922TIP3   OH251256   6.350   5.931  14.410 -0.6536  0.8397  0.5005
 9922TIP3    H151257   6.396   5.860  14.365  0.9186  0.9852  1.8079
 9922TIP3    H251258   6.369   6.009  14.358 -1.0717  0.5817 -0.0493
 9923TIP3   OH251259   5.918   1.173  16.718 -0.3027  0.4245 -0.1174
 9923TIP3    H151260   5.864   1.097  16.697  0.4001  0.3418 -1.8050
 9923TIP3    H251261   5.880   1.244  16.666 -1.6520  1.5822  2.2862
 9924TIP3   OH251262   6.297   1.881  15.443 -0.2399  0.6444 -0.1003
 9924TIP3    H151263   6.305   1.977  15.440  1.5381  0.5765  0.9393
 9924TIP3    H251264   6.348   1.851  15.368 -0.8817  0.5091 -0.4840
 9925TIP3   OH251265   4.865   5.365  16.996  0.1213  0.2576  0.1234
 9925TIP3    H151266   4.881   5.457  17.017 -1.0602  0.4739  0.1408
 9925TIP3    H251267   4.876   5.359  16.901  1.2337  0.1788  0.2428
 9926TIP3   OH251268   0.538   0.509  15.865 -0.0151 -0.1923  0.6449
 9926TIP3    H151269   0.459   0.560  15.884 -0.4683 -1.0556  1.1539
 9926TIP3    H251270   0.572   0.486  15.952 -0.0218 -1.0442  0.4309
 9927TIP3   OH251271   3.836   3.284  13.790 -0.2266  0.1285 -0.1663
 9927TIP3    H151272   3.794   3.369  13.776 -0.4933  0.0365  0.0630
 9927TIP3    H251273   3.922   3.292  13.748  0.4903  1.1334  1.4137
 9928TIP3   OH251274   2.011   5.078  11.038 -0.2867 -0.2745 -0.1253
 9928TIP3    H151275   2.042   5.156  11.084 -1.5244  0.8876 -1.1776
 9928TIP3    H251276   2.040   5.090  10.947 -1.4979 -0.4227 -0.5586
 9929TIP3   OH251277   0.167   3.051  11.212  0.2453 -0.8733 -0.4141
 9929TIP3    H151278   0.212   3.085  11.135  0.3620 -1.5372 -0.6505
 9929TIP3    H251279   0.160   3.125  11.272  2.4240 -0.9400 -0.0116
 9930TIP3   OH251280   0.718   2.214  14.852 -0.1256 -0.2797 -0.3501
 9930TIP3    H151281   0.654   2.183  14.788 -1.2726  2.7546 -0.8263
 9930TIP3    H251282   0.803   2.198  14.811 -0.6518 -1.9031 -0.8793
 9931TIP3   OH251283   4.758   0.580   1.111  0.2469 -0.4052  0.4606
 9931TIP3    H151284   4.824   0.603   1.045  2.0934 -1.8456  1.6822
 9931TIP3    H251285   4.677   0.568   1.062  1.5815 -1.5563 -1.6073
 9932TIP3   OH251286   4.329   2.756   5.609  0.3914 -0.2918  0.1920
 9932TIP3    H151287   4.392   2.809   5.560 -1.0483  0.7563 -0.6026
 9932TIP3    H251288   4.247   2.806   5.605 -0.5717 -1.7350  0.9457
 9933TIP3   OH251289   4.041   3.298   1.644  0.0162 -0.5311 -0.2028
 9933TIP3    H151290   4.130   3.262   1.654  1.5613  3.5002  4.0347
 9933TIP3    H251291   4.045   3.349   1.563  1.9047  0.1798  0.2857
 9934TIP3   OH251292   2.675   0.423   0.028 -0.1177 -0.0850 -0.2705
 9934TIP3    H151293   2.691   0.378   0.111  0.3530 -0.9449 -0.8091
 9934TIP3    H251294   2.606   0.371  -0.014 -0.9589  0.8337 -0.0595
 9935TIP3   OH251295   1.314   6.774  15.570 -0.1261 -0.3558  0.0069
 9935TIP3    H151296   1.362   6.720  15.507 -1.3936 -0.6168 -0.7559
 9935TIP3    H251297   1.283   6.713  15.637 -1.2647 -0.5468 -0.6737
 9936TIP3   OH251298   6.159   0.546  12.479  0.5718  0.4445  0.0167
 9936TIP3    H151299   6.253   0.545  12.497  0.7805 -0.7821 -1.0052
 9936TIP3    H251300   6.153   0.574  12.388  0.3293 -3.5960 -1.4288
 9937TIP3   OH251301   3.086   3.487  16.319  0.1850  0.6631  0.2541
 9937TIP3    H151302   3.010   3.496  16.261 -1.0967 -1.0689  1.5767
 9937TIP3    H251303   3.058   3.527  16.401  1.1273  0.9775  0.4306
 9938TIP3   OH251304   4.911   2.275   1.188 -0.5023 -0.5123 -0.4162
 9938TIP3    H151305   4.839   2.278   1.125  1.1499 -0.4065 -2.3987
 9938TIP3    H251306   4.962   2.199   1.162  0.4733 -0.2039  0.5271
 9939TIP3   OH251307   2.676   2.268  14.989 -0.7723  0.5446  0.6478
 9939TIP3    H151308   2.763   2.232  14.971 -0.7037  0.5065  1.0481
 9939TIP3    H251309   2.681   2.359  14.959 -1.1152  0.0984 -0.8811
 9940TIP3   OH251310   1.996   5.997  10.651 -0.0612 -0.1521  0.4152
 9940TIP3    H151311   1.922   6.057  10.647  0.3770  0.3522 -0.6633
 9940TIP3    H251312   2.029   5.994  10.561  1.7785  0.3393  1.0268
 9941TIP3   OH251313   6.446   6.645   4.153 -0.1538  0.3202 -0.2534
 9941TIP3    H151314   6.490   6.590   4.218  1.1599  0.8203 -0.7027
 9941TIP3    H251315   6.371   6.593   4.125  1.5645 -1.6964 -1.3731
 9942TIP3   OH251316   4.284   6.281  13.977 -0.8992 -1.0630  0.5417
 9942TIP3    H151317   4.226   6.309  13.907  3.4675 -2.0858 -4.0474
 9942TIP3    H251318   4.270   6.186  13.982 -0.3343 -1.1736  0.1014
 9943TIP3   OH251319   0.277   2.264  16.141  0.2801 -0.3488  0.8354
 9943TIP3    H151320   0.225   2.331  16.095  0.6866 -0.4595  0.1964
 9943TIP3    H251321   0.223   2.238  16.215  0.3368  1.0774  1.4162
 9944TIP3   OH251322   4.684   3.892   5.297 -0.5988 -0.1915 -0.8872
 9944TIP3    H151323   4.714   3.956   5.362 -2.0623  1.1007 -1.4309
 9944TIP3    H251324   4.701   3.934   5.213 -0.7744 -0.9087 -1.2854
 9945TIP3   OH251325   4.662   4.124  13.448  0.0338  0.3689  0.1962
 9945TIP3    H151326   4.668   4.188  13.518 -0.9742  0.5044  0.1665
 9945TIP3    H251327   4.661   4.176  13.368 -0.9988  0.3445  0.1809
 9946TIP3   OH251328   5.858   4.201   4.704  0.2647 -0.0176  0.7406
 9946TIP3    H151329   5.893   4.119   4.737  0.3494  0.1194  0.9932
 9946TIP3    H251330   5.776   4.213   4.751 -0.0979 -0.3102  0.1907
 9947TIP3   OH251331   1.878   2.332  12.048 -0.1157 -0.3361  0.2065
 9947TIP3    H151332   1.835   2.411  12.016 -0.1228 -1.0201 -1.6126
 9947TIP3    H251333   1.960   2.362  12.086 -1.1465  0.7500  1.7096
 9948TIP3   OH251334   5.914   0.314   6.192  0.3454 -1.0590  0.3233
 9948TIP3    H151335   5.956   0.237   6.231  1.5453 -0.1594  0.8331
 9948TIP3    H251336   5.867   0.355   6.264  0.1495 -1.0118  0.1705
 9949TIP3   OH251337   5.307   4.170   5.030  0.0043  0.5664 -0.0054
 9949TIP3    H151338   5.275   4.218   4.954  0.6826  0.7355 -0.1900
 9949TIP3    H251339   5.402   4.166   5.018 -0.1339 -2.6922 -1.1354
 9950TIP3   OH251340   5.253   3.101  12.709  0.2268  0.1099  0.2770
 9950TIP3    H151341   5.282   3.138  12.626  0.1451 -1.2304 -0.3718
 9950TIP3    H251342   5.295   3.156  12.776  2.2263 -0.2131 -0.6395
 9951TIP3   OH251343   1.163   3.911   0.812  0.0337  0.1196  0.1824
 9951TIP3    H151344   1.157   3.891   0.906 -0.5563 -0.2292  0.0769
 9951TIP3    H251345   1.088   3.967   0.795 -1.7433 -2.3566 -0.6987
 9952TIP3   OH251346   1.149   6.359   1.973 -0.3118 -0.0906 -0.2757
 9952TIP3    H151347   1.056   6.363   1.949 -0.5610  0.1615  0.6984
 9952TIP3    H251348   1.185   6.289   1.918 -1.3741 -1.1205  0.3039
 9953TIP3   OH251349   4.521   1.909  15.350 -0.1211  0.0553 -0.0704
 9953TIP3    H151350   4.601   1.940  15.392 -0.1645  2.2604 -1.4154
 9953TIP3    H251351   4.467   1.988  15.340 -2.0072 -1.1847 -0.1751
 9954TIP3   OH251352   5.773   6.584  15.578 -0.4783  0.0590 -0.2067
 9954TIP3    H151353   5.749   6.676  15.589 -2.3936 -0.2680 -1.2692
 9954TIP3    H251354   5.690   6.537  15.581  0.4217 -1.6070 -0.1606
 9955TIP3   OH251355   0.418   6.238   3.129  0.1696 -0.2728  0.0110
 9955TIP3    H151356   0.400   6.239   3.035  1.4508 -0.3027 -0.2616
 9955TIP3    H251357   0.511   6.216   3.135  0.3445  0.7062  1.2560
 9956TIP3   OH251358   5.364   4.536   6.787  0.1695  0.1622  0.0463
 9956TIP3    H151359   5.383   4.453   6.744  0.7574 -0.9664  2.3327
 9956TIP3    H251360   5.272   4.530   6.811  0.4734 -0.3101  1.1406
 9957TIP3   OH251361   4.905   1.932  15.625 -0.3140 -0.3110  0.1900
 9957TIP3    H151362   4.997   1.949  15.644 -0.4147  2.7158 -1.4268
 9957TIP3    H251363   4.907   1.866  15.555  0.6804  0.2497 -0.3357
 9958TIP3   OH251364   4.449   1.881  10.917  0.3244 -0.1935 -0.0727
 9958TIP3    H151365   4.449   1.972  10.947  2.3321  0.2394 -1.1892
 9958TIP3    H251366   4.375   1.875  10.857  0.1383  0.6776  0.0623
 9959TIP3   OH251367   5.047   2.212   3.413  0.1314  0.1460  0.1830
 9959TIP3    H151368   4.972   2.198   3.471  0.6288 -0.7549  0.6209
 9959TIP3    H251369   5.019   2.172   3.330  0.4808 -1.0969  0.6322
 9960TIP3   OH251370   3.981   1.131   4.532 -0.1815 -0.4788  0.3722
 9960TIP3    H151371   4.051   1.195   4.519 -0.9767  0.4745  0.6688
 9960TIP3    H251372   3.922   1.172   4.595 -1.8421 -0.5914 -1.0473
 9961TIP3   OH251373   3.664   1.906  11.955 -0.0229  0.7518 -0.8991
 9961TIP3    H151374   3.613   1.825  11.954  1.2930 -0.1230 -1.4613
 9961TIP3    H251375   3.624   1.961  11.887 -1.2592  0.8021 -0.1477
 9962TIP3   OH251376   6.333   4.974   3.069  0.7550 -0.5827 -0.4339
 9962TIP3    H151377   6.352   5.062   3.036 -0.9664  0.2071  0.5751
 9962TIP3    H251378   6.360   4.976   3.161  0.9296 -1.2151 -0.4623
 9963TIP3   OH251379   4.726   2.185  14.481  0.0214  0.3115  0.5726
 9963TIP3    H151380   4.697   2.276  14.482 -0.7517  0.1049 -0.7271
 9963TIP3    H251381   4.651   2.136  14.517 -1.3078 -0.2004 -2.5769
 9964TIP3   OH251382   6.473   4.462   0.736 -0.7978  0.0894 -1.0524
 9964TIP3    H151383   6.533   4.534   0.716 -2.2006  1.6773  0.2112
 9964TIP3    H251384   6.484   4.447   0.830 -1.6883 -0.2327 -0.9936
 9965TIP3   OH251385   3.197   5.663   0.429  0.1513 -0.2984 -0.2573
 9965TIP3    H151386   3.235   5.681   0.515  1.7511 -0.5215 -0.8890
 9965TIP3    H251387   3.146   5.583   0.442  2.3955 -1.7648 -0.0373
 9966TIP3   OH251388   1.372   0.139  14.733  0.0921  0.5595 -0.4105
 9966TIP3    H151389   1.406   0.091  14.658 -1.9410 -0.6203 -0.6795
 9966TIP3    H251390   1.393   0.084  14.808  1.4111  1.3377 -0.1942
 9967TIP3   OH251391   2.428   6.101  13.566  0.5326 -0.0904 -0.3954
 9967TIP3    H151392   2.334   6.091  13.576  0.6218  0.0536  0.7867
 9967TIP3    H251393   2.439   6.151  13.486 -0.5038  1.5609  0.4389
 9968TIP3   OH251394   1.096   3.063  13.369 -0.0607  0.4147  0.6518
 9968TIP3    H151395   1.010   3.042  13.406 -0.6413 -0.1293 -0.9232
 9968TIP3    H251396   1.092   3.157  13.348 -0.6652  0.1744 -0.3619
 9969TIP3   OH251397   6.143   3.968  14.842  0.8346  0.2049  0.4784
 9969TIP3    H151398   6.211   3.955  14.909  2.2422  0.3488 -0.8559
 9969TIP3    H251399   6.135   3.883  14.799  1.3415  0.5734 -0.3898
 9970TIP3   OH251400   0.442   1.049  16.010  0.7386  0.7417  0.5879
 9970TIP3    H151401   0.509   1.114  16.032  2.4153 -1.4430  2.4171
 9970TIP3    H251402   0.382   1.050  16.085  1.4243 -0.5654  1.1766
 9971TIP3   OH251403   3.490   1.154   2.119 -0.2493  0.2163  0.2737
 9971TIP3    H151404   3.511   1.209   2.195 -0.3515 -2.5890  2.5190
 9971TIP3    H251405   3.403   1.184   2.091 -0.1294  1.4479  1.1427
 9972TIP3   OH251406   0.834   1.523  12.446  0.1535 -0.3444 -0.2374
 9972TIP3    H151407   0.828   1.535  12.540  1.0636 -1.3324 -0.0349
 9972TIP3    H251408   0.744   1.503  12.418 -0.3668  1.2806  0.1942
 9973TIP3   OH251409   6.460   1.913   4.377  0.0344  0.6672  0.1866
 9973TIP3    H151410   6.544   1.870   4.392 -1.3322 -2.2535  0.0379
 9973TIP3    H251411   6.474   1.965   4.298  1.4566 -0.5120 -0.3799
 9974TIP3   OH251412   0.480   0.959   2.097  0.5234  0.2859 -0.2571
 9974TIP3    H151413   0.421   0.922   2.031 -0.0584  0.7149  0.0127
 9974TIP3    H251414   0.493   1.050   2.070  2.2551 -0.1802 -1.1277
 9975TIP3   OH251415   2.995   2.626  12.269  0.7253  0.4471  0.6638
 9975TIP3    H151416   2.955   2.544  12.242  0.0282  0.9253  0.2142
 9975TIP3    H251417   2.922   2.680  12.300  0.7736  1.8680 -1.5206
 9976TIP3   OH251418   0.852   2.964   4.398 -0.4598  0.4564  1.0286
 9976TIP3    H151419   0.873   3.014   4.477  0.3100  0.1468  1.0276
 9976TIP3    H251420   0.910   2.888   4.403  0.6386  1.1422 -0.5678
 9977TIP3   OH251421   2.326   3.003  14.698  0.2404 -0.3611 -0.9020
 9977TIP3    H151422   2.352   2.924  14.746 -1.8084  0.0747  1.0402
 9977TIP3    H251423   2.373   3.074  14.742 -3.6410  0.4328  2.6318
 9978TIP3   OH251424   3.181   6.190   3.798  0.0888  0.5575  0.0941
 9978TIP3    H151425   3.103   6.241   3.779 -0.5946  0.0486  1.3805
 9978TIP3    H251426   3.191   6.196   3.893 -0.6890 -2.5631  0.4865
 9979TIP3   OH251427   1.235   3.651  14.392  0.2807 -0.2508 -0.3238
 9979TIP3    H151428   1.232   3.597  14.471  1.8681  0.8803  0.5882
 9979TIP3    H251429   1.281   3.598  14.327  0.5424 -0.5290  0.0876
 9980TIP3   OH251430   1.414   3.901  14.109  0.1656 -0.2494  0.3789
 9980TIP3    H151431   1.360   3.828  14.079  0.0090  0.2503 -0.6219
 9980TIP3    H251432   1.361   3.946  14.174 -1.9058  1.8178 -2.4405
 9981TIP3   OH251433   1.615   4.239   4.330  0.0802 -0.5572  0.0868
 9981TIP3    H151434   1.694   4.289   4.348 -0.4684 -0.2781  1.9724
 9981TIP3    H251435   1.634   4.151   4.364  0.5076 -1.2502 -1.8617
 9982TIP3   OH251436   2.472   4.618  13.109 -0.4167 -0.6328 -0.7248
 9982TIP3    H151437   2.524   4.540  13.131  0.4338 -0.0300 -0.5573
 9982TIP3    H251438   2.392   4.583  13.069 -0.2595 -1.6048 -0.2059
 9983TIP3   OH251439   5.632   2.792  11.842  0.5447  0.0049 -0.4475
 9983TIP3    H151440   5.712   2.801  11.894  0.0754  2.8466 -0.0358
 9983TIP3    H251441   5.661   2.796  11.751  0.9200  1.1028 -0.2983
 9984TIP3   OH251442   3.894   2.232   6.122 -0.2993 -0.0911 -0.0434
 9984TIP3    H151443   3.849   2.312   6.150  0.1634  0.5811 -1.1802
 9984TIP3    H251444   3.834   2.191   6.060  0.7153  0.9815 -1.8261
 9985TIP3   OH251445   6.510   6.455  14.797 -0.4976 -0.3172 -0.0537
 9985TIP3    H151446   6.432   6.469  14.743 -0.2417  0.5762 -0.2155
 9985TIP3    H251447   6.506   6.525  14.862  0.0575 -0.3918  0.0616
 9986TIP3   OH251448   2.314   5.224  14.627  0.0540 -0.4387 -0.2747
 9986TIP3    H151449   2.401   5.193  14.654 -0.2392 -1.7502 -0.7607
 9986TIP3    H251450   2.329   5.268  14.544  0.1552 -1.4309 -0.8031
 9987TIP3   OH251451   3.166   4.999  15.133  0.2135  0.1779  0.0571
 9987TIP3    H151452   3.178   4.966  15.044  3.6675  1.0715  0.0405
 9987TIP3    H251453   3.214   4.936  15.188  0.8037  1.3119  0.8690
 9988TIP3   OH251454   1.880   4.581   3.562  0.0133 -0.0999 -0.4083
 9988TIP3    H151455   1.874   4.547   3.473 -1.3153 -0.4442 -0.2182
 9988TIP3    H251456   1.955   4.640   3.561  0.4754 -0.6752 -1.5506
 9989TIP3   OH251457   2.507   0.358  12.697  0.0618  0.0549  0.0246
 9989TIP3    H151458   2.519   0.452  12.712 -0.5997  0.3299 -1.0450
 9989TIP3    H251459   2.587   0.329  12.653 -0.6148  0.6156 -1.6670
 9990TIP3   OH251460   6.542   0.928  11.501 -0.1409  0.0159  0.1594
 9990TIP3    H151461   6.600   0.994  11.539 -2.1450  1.4849  0.8343
 9990TIP3    H251462   6.538   0.858  11.566  0.3645  0.1899  0.3823
 9991TIP3   OH251463   5.830   2.758  14.866  0.3773  0.1059  0.2324
 9991TIP3    H151464   5.818   2.754  14.960 -0.5748 -0.0884  0.1155
 9991TIP3    H251465   5.902   2.819  14.853  0.6673 -0.0489  1.0906
 9992TIP3   OH251466   1.178   1.838  12.159 -0.2332  0.2120  0.4008
 9992TIP3    H151467   1.169   1.821  12.253 -0.7377 -2.1610 -0.0250
 9992TIP3    H251468   1.088   1.838  12.126  0.0271 -2.5019 -0.5623
 9993TIP3   OH251469   4.427   6.607  11.578 -0.4983  0.1275 -0.2041
 9993TIP3    H151470   4.445   6.615  11.484  0.0791  1.6706  0.0109
 9993TIP3    H251471   4.370   6.530  11.585  0.5664 -0.8543 -1.6521
 9994TIP3   OH251472   1.132   3.210   5.964  0.2573 -0.4573 -0.6677
 9994TIP3    H151473   1.166   3.191   6.052 -1.2666 -0.0892  0.0426
 9994TIP3    H251474   1.194   3.168   5.904  0.4635 -2.1018  0.6276
 9995TIP3   OH251475   5.456   5.644  11.410 -0.3406 -0.2575  0.2071
 9995TIP3    H151476   5.394   5.710  11.379 -2.6065 -1.8539  1.1152
 9995TIP3    H251477   5.445   5.571  11.350  2.2957  0.1430 -0.9123
 9996TIP3   OH251478   5.891   0.718   4.056  0.0154  0.2923 -0.3339
 9996TIP3    H151479   5.942   0.646   4.093 -0.6309 -0.4370 -0.8291
 9996TIP3    H251480   5.909   0.793   4.113 -0.4542 -0.6366  1.0819
 9997TIP3   OH251481   3.759   0.834   0.975  0.0140  0.2677  0.0288
 9997TIP3    H151482   3.779   0.791   0.893  0.8032  1.7743 -0.6081
 9997TIP3    H251483   3.746   0.763   1.038  3.3042 -0.9144 -0.4546
 9998TIP3   OH251484   4.592   1.032   2.980 -0.4990 -0.1561  0.0481
 9998TIP3    H151485   4.575   1.075   2.896  1.2160 -0.4902 -0.4959
 9998TIP3    H251486   4.618   1.103   3.039 -1.4115  0.0363  0.2377
 9999TIP3   OH251487   1.187   6.237   3.898 -0.1749 -0.2242 -0.2949
 9999TIP3    H151488   1.178   6.147   3.928 -0.8615 -0.1050 -0.1310
 9999TIP3    H251489   1.242   6.230   3.819 -0.4844 -0.8204 -0.4656
10000TIP3   OH251490   4.246   6.454   1.387 -0.0593 -0.1621 -0.1280
10000TIP3    H151491   4.235   6.508   1.465 -1.0740 -0.2828 -0.1726
10000TIP3    H251492   4.185   6.381   1.399  1.0203 -1.1174 -0.2369
10001TIP3   OH251493   6.224   3.456  16.980 -0.4758  0.0313 -0.9888
10001TIP3    H151494   6.237   3.494  16.893 -0.2152  0.9788 -0.5551
10001TIP3    H251495   6.271   3.373  16.978  1.8899  1.3009 -0.9008
10002TIP3   OH251496   0.755   3.162  12.069  0.1786 -0.2405  0.1232
10002TIP3    H151497   0.731   3.225  12.001 -4.1228 -1.4646  0.2387
10002TIP3    H251498   0.742   3.209  12.151  1.1528 -0.0736  0.1980
10003TIP3   OH251499   4.127   3.102   1.370  0.1265  0.0763 -0.0231
10003TIP3    H151500   4.210   3.110   1.324 -0.1344 -0.6638 -0.6562
10003TIP3    H251501   4.089   3.190   1.368  2.0496  1.0967  2.6048
10004TIP3   OH251502   3.768   4.976  16.961  0.1796  0.5527  0.3056
10004TIP3    H151503   3.837   4.965  17.027  1.1915  3.1791 -0.1840
10004TIP3    H251504   3.693   4.929  16.997  0.6193  1.9903  3.4687
10005TIP3   OH251505   0.723   3.222   5.594  0.0430  0.3680  0.2564
10005TIP3    H151506   0.817   3.218   5.579  0.0740 -1.4877  0.6977
10005TIP3    H251507   0.709   3.168   5.672 -1.5447 -0.7281 -0.7362
10006TIP3   OH251508   6.149   0.030   0.579  0.3271 -0.7536 -0.5195
10006TIP3    H151509   6.205   0.069   0.647  0.9614  2.4112 -2.6067
10006TIP3    H251510   6.065   0.016   0.622  1.6843 -2.4751  1.8278
10007TIP3   OH251511   4.480   6.657  17.114  0.1303 -0.2852  0.2565
10007TIP3    H151512   4.412   6.601  17.076 -0.0984 -0.6438  1.1649
10007TIP3    H251513   4.432   6.725  17.161  0.2879  2.7757 -3.5096
10008TIP3   OH251514   0.664   0.466  16.623 -0.4781  0.1961 -0.0281
10008TIP3    H151515   0.665   0.537  16.687  1.2636  1.2674 -1.1697
10008TIP3    H251516   0.740   0.412  16.645 -0.1656  0.2839 -0.8623
10009TIP3   OH251517   2.149   3.863   5.978  0.1517 -0.2101  0.1883
10009TIP3    H151518   2.171   3.778   5.939 -0.3734 -1.2800  2.1009
10009TIP3    H251519   2.234   3.900   6.004  0.5316  0.6236 -2.0486
10010TIP3   OH251520   0.181   1.730  15.632 -0.2104  0.3673 -0.0841
10010TIP3    H151521   0.163   1.819  15.600 -1.2317 -0.0189 -0.6324
10010TIP3    H251522   0.187   1.677  15.552  0.4753 -0.0532  0.2361
10011TIP3   OH251523   0.286   0.699  10.816  0.0701 -0.1456  0.3199
10011TIP3    H151524   0.309   0.787  10.847  1.0730 -0.2544 -0.0834
10011TIP3    H251525   0.251   0.655  10.893 -1.5346  0.9530  0.2825
10012TIP3   OH251526   3.252   4.406   5.947 -0.3173  0.3290 -0.0374
10012TIP3    H151527   3.200   4.359   5.882  0.4502  1.0556 -1.2145
10012TIP3    H251528   3.240   4.356   6.028 -0.2396 -1.3704 -1.0301
10013TIP3   OH251529   3.061   5.046   1.573 -0.4794  0.0455 -0.4007
10013TIP3    H151530   2.976   5.089   1.577  0.1170  1.4984 -2.1279
10013TIP3    H251531   3.040   4.952   1.567 -1.8083  0.0125  2.6605
10014TIP3   OH251532   1.117   0.100   4.748 -0.0651 -0.3444  0.2670
10014TIP3    H151533   1.032   0.128   4.781  0.6048 -0.7461  2.5348
10014TIP3    H251534   1.097   0.031   4.685 -1.4425  0.5699 -0.3333
10015TIP3   OH251535   0.660   1.076   2.844  0.5885  0.1930 -0.5099
10015TIP3    H151536   0.582   1.027   2.870  0.6704  0.2182 -0.2104
10015TIP3    H251537   0.733   1.025   2.879  0.7811 -0.5458 -1.9358
10016TIP3   OH251538   5.385   1.301  11.335 -0.5484 -0.4182 -0.2992
10016TIP3    H151539   5.354   1.350  11.258 -0.6237 -0.6114 -0.3937
10016TIP3    H251540   5.323   1.228  11.342 -0.2827 -0.6434 -0.3125
10017TIP3   OH251541   6.695   0.711   1.933  0.2504 -0.4496 -0.3862
10017TIP3    H151542   6.706   0.616   1.944  1.5104 -0.2387  0.2955
10017TIP3    H251543   6.734   0.730   1.848  0.7251 -0.4325 -0.1683
10018TIP3   OH251544   3.406   4.911   1.808  0.2811  0.2341 -0.9248
10018TIP3    H151545   3.442   4.955   1.885 -0.4528 -3.3519  1.7565
10018TIP3    H251546   3.481   4.870   1.766  0.4519  0.6684 -1.0513
10019TIP3   OH251547   4.598   2.015   6.099 -0.0915  0.4214  0.1220
10019TIP3    H151548   4.545   1.961   6.158  1.3774 -0.1892  0.9387
10019TIP3    H251549   4.574   2.105   6.122 -2.3719  0.1903 -1.0731
10020TIP3   OH251550   1.188   2.802  11.261 -0.3163  0.4566 -0.0814
10020TIP3    H151551   1.179   2.862  11.187 -0.2603  0.9061  0.2768
10020TIP3    H251552   1.272   2.826  11.301 -0.3425  0.2103  0.1239
10021TIP3   OH251553   4.743   1.852   5.745 -0.0114  0.4689  0.2002
10021TIP3    H151554   4.651   1.841   5.722  0.2390  0.0340 -0.6316
10021TIP3    H251555   4.786   1.772   5.713  0.4333  0.0163  1.8397
10022TIP3   OH251556   5.654   4.105  14.542 -0.0007 -0.2511 -0.2703
10022TIP3    H151557   5.587   4.042  14.515 -0.2990  0.1717 -0.5318
10022TIP3    H251558   5.670   4.158  14.463  1.2362 -0.8643 -0.4530
10023TIP3   OH251559   6.467   2.028   3.805  0.0834  0.4125  0.2483
10023TIP3    H151560   6.377   2.026   3.771  0.5201 -0.0443 -0.9315
10023TIP3    H251561   6.464   1.971   3.882 -0.4251 -0.4380 -0.3722
10024TIP3   OH251562   1.931   1.354   3.946  0.7171  0.1056 -0.3892
10024TIP3    H151563   2.002   1.291   3.933 -0.7270 -1.4726 -1.1273
10024TIP3    H251564   1.868   1.308   4.001  0.4758  1.6605  0.6798
10025TIP3   OH251565   4.351   4.422  14.115 -0.0053 -0.0505 -0.3618
10025TIP3    H151566   4.349   4.327  14.102 -1.9913  0.0263 -0.9434
10025TIP3    H251567   4.261   4.451  14.097  0.2526  1.7928  0.9658
10026TIP3   OH251568   6.297   0.595   2.965  0.1723 -0.1231  0.4451
10026TIP3    H151569   6.316   0.637   2.881 -0.4262 -0.7923 -0.0381
10026TIP3    H251570   6.381   0.596   3.011  0.2486  1.2982  0.3306
10027TIP3   OH251571   5.930   0.735   5.276  0.5380 -0.1242 -0.8262
10027TIP3    H151572   5.873   0.661   5.254  1.2180 -0.6025 -0.9999
10027TIP3    H251573   5.907   0.758   5.366  1.2890 -1.4586 -0.2682
10028TIP3   OH251574   0.385   2.334  13.596 -0.1871  0.6545  0.1824
10028TIP3    H151575   0.346   2.387  13.665 -0.2305  0.2427  0.4777
10028TIP3    H251576   0.415   2.254  13.640  2.3542  1.5589  0.2677
10029TIP3   OH251577   2.129   0.042   5.612  0.3582  0.1612  0.5163
10029TIP3    H151578   2.073   0.043   5.689 -1.6713  0.8564 -0.8774
10029TIP3    H251579   2.124  -0.048   5.579 -0.1594  0.2663  0.2862
10030TIP3   OH251580   6.037   0.429   1.479 -0.1225  0.0245 -0.1329
10030TIP3    H151581   6.077   0.450   1.563 -1.2429 -0.6274  0.6048
10030TIP3    H251582   5.972   0.498   1.465 -0.5264 -0.3342 -0.0413
10031TIP3   OH251583   1.617   6.353   1.687  0.4578 -0.2170  0.2652
10031TIP3    H151584   1.551   6.420   1.706 -0.2952  0.1314 -2.9710
10031TIP3    H251585   1.687   6.370   1.750 -1.8009  0.3684  2.8348
10032TIP3   OH251586   1.827   6.105  15.006  0.4414 -0.7143  0.0123
10032TIP3    H151587   1.740   6.143  14.994  0.6574  0.2069  1.1234
10032TIP3    H251588   1.864   6.099  14.918 -0.5917 -0.7376 -0.4256
10033TIP3   OH251589   2.901   4.310   2.562 -0.7149  0.0438 -0.2322
10033TIP3    H151590   2.862   4.366   2.495  1.4087  0.2715 -1.3826
10033TIP3    H251591   2.916   4.368   2.636 -1.3718  0.2432 -0.2512
10034TIP3   OH251592   3.746   5.654  12.460  0.0796  0.3531  0.1819
10034TIP3    H151593   3.655   5.661  12.488 -0.9704 -1.6597 -2.3087
10034TIP3    H251594   3.750   5.707  12.380  1.6830  1.9844  1.2477
10035TIP3   OH251595   0.157   1.282   0.130  0.2737 -0.0312  0.3208
10035TIP3    H151596   0.128   1.306   0.218  0.3146 -0.8336  0.5608
10035TIP3    H251597   0.100   1.209   0.106  1.0585 -0.6020  0.1669
10036TIP3   OH251598   1.618   4.689   0.352  0.5656 -0.2667  0.0342
10036TIP3    H151599   1.701   4.725   0.383  0.0395  0.3835  0.7090
10036TIP3    H251600   1.633   4.672   0.259  1.4074 -0.0009  0.1159
10037TIP3   OH251601   3.651   1.737  11.689  0.3045  0.4898 -0.3623
10037TIP3    H151602   3.600   1.816  11.673 -0.0968  0.5423  1.0387
10037TIP3    H251603   3.739   1.759  11.656 -0.1483  0.9974 -1.2676
10038TIP3   OH251604   4.614   0.751  12.787 -0.4194  0.2403  0.2724
10038TIP3    H151605   4.634   0.796  12.869 -1.1985 -0.6044  0.9581
10038TIP3    H251606   4.608   0.658  12.812  1.2179 -0.2820 -1.0947
10039TIP3   OH251607   5.545   2.990   3.625 -0.0257 -0.0300  0.2840
10039TIP3    H151608   5.585   3.019   3.706  1.8656  0.2556 -0.6913
10039TIP3    H251609   5.599   2.916   3.596  0.0748  0.6075 -1.2839
10040TIP3   OH251610   6.438   0.545  12.480  0.1133  0.1650  0.2911
10040TIP3    H151611   6.500   0.480  12.512  3.1179  3.2876  1.3144
10040TIP3    H251612   6.451   0.545  12.385 -0.1034 -0.8420  0.2495
10041TIP3   OH251613   5.590   2.864  14.710  0.2217  0.9099  0.2553
10041TIP3    H151614   5.531   2.788  14.709  0.8394  0.4276 -1.4642
10041TIP3    H251615   5.667   2.833  14.757  1.2786 -0.2249 -2.0663
10042TIP3   OH251616   2.174   1.780  10.377  0.2461 -0.5316  0.2806
10042TIP3    H151617   2.223   1.825  10.447 -0.7700 -0.7421  1.1504
10042TIP3    H251618   2.238   1.722  10.336  0.6044 -1.2503  1.7901
10043TIP3   OH251619   6.337   4.090  13.293 -0.3552  0.2656  0.3278
10043TIP3    H151620   6.350   4.165  13.234  1.2895 -0.8661 -0.8476
10043TIP3    H251621   6.319   4.017  13.234 -0.1582 -0.6126  1.3339
10044TIP3   OH251622   4.974   5.623  17.036  0.5091 -0.4408 -0.0264
10044TIP3    H151623   5.054   5.668  17.064 -0.1083  0.2736  0.6529
10044TIP3    H251624   4.907   5.692  17.038 -0.1330 -1.0438 -0.5322
10045TIP3   OH251625   5.546   5.120  11.048 -0.4375  0.5220  0.5804
10045TIP3    H151626   5.480   5.128  10.980  0.0086  0.7584  0.1678
10045TIP3    H251627   5.621   5.169  11.015 -0.0657  0.2906  1.0565
10046TIP3   OH251628   0.275   6.444  12.425  0.2469 -0.2373 -1.0244
10046TIP3    H151629   0.289   6.526  12.474  3.2815 -0.6841 -0.9314
10046TIP3    H251630   0.313   6.461  12.339 -1.7912 -0.6625 -2.0803
10047TIP3   OH251631   1.893   0.079  16.182  0.2462 -0.4670 -0.3814
10047TIP3    H151632   1.850   0.165  16.188  1.8066  0.2243  2.4437
10047TIP3    H251633   1.822   0.019  16.159 -1.4201  1.1908  0.1758
10048TIP3   OH251634   0.523   4.755   5.041 -0.0423  0.9037  0.1209
10048TIP3    H151635   0.489   4.670   5.068 -1.0763  1.8198  1.8833
10048TIP3    H251636   0.575   4.737   4.963  1.2210 -1.5910  1.4474
10049TIP3   OH251637   4.009   5.751  14.786 -0.0526  0.1728 -0.9860
10049TIP3    H151638   4.091   5.794  14.761  0.2346  0.0992 -0.1994
10049TIP3    H251639   3.940   5.811  14.757  0.3585  1.6962  0.9679
10050TIP3   OH251640   1.297   5.061   3.725 -0.2464 -0.0461  0.2215
10050TIP3    H151641   1.391   5.044   3.732 -0.2846 -0.2613  0.2233
10050TIP3    H251642   1.291   5.149   3.688 -0.0440 -0.5805 -1.1438
10051TIP3   OH251643   1.339   5.077  12.262  0.8657 -0.4076  0.5309
10051TIP3    H151644   1.283   5.026  12.204  1.3516  0.3365 -0.6203
10051TIP3    H251645   1.297   5.163  12.267  1.3755 -0.1513  0.4616
10052TIP3   OH251646   0.934   1.238  12.069  0.4445 -0.2519 -0.8193
10052TIP3    H151647   0.972   1.301  12.130  1.2950 -0.6328 -0.9454
10052TIP3    H251648   0.982   1.157  12.086 -2.2702 -1.6174  1.1155
10053TIP3   OH251649   1.832   1.400  13.361  0.2077 -0.0029 -0.0330
10053TIP3    H151650   1.890   1.329  13.334 -0.4254 -0.6152  0.2100
10053TIP3    H251651   1.766   1.359  13.416 -0.5100  0.6778 -0.3666
10054TIP3   OH251652   5.071   6.025   0.403  0.1571  0.3413  0.5353
10054TIP3    H151653   5.003   6.042   0.338  1.8707  1.6973 -1.0337
10054TIP3    H251654   5.104   5.938   0.383 -0.4357  0.0837  0.6725
10055TIP3   OH251655   6.725   1.807  15.410  0.2715 -0.5157 -0.4147
10055TIP3    H151656   6.680   1.735  15.455 -0.3386 -0.4883 -0.9597
10055TIP3    H251657   6.699   1.885  15.457 -0.5548 -0.4607 -0.9288
10056TIP3   OH251658   5.896   6.581   2.435 -0.2993  0.0690 -1.1952
10056TIP3    H151659   5.951   6.529   2.376 -0.6851 -1.1701 -0.4973
10056TIP3    H251660   5.934   6.566   2.521  0.8278  2.5878 -1.1681
10057TIP3   OH251661   6.655   2.962  12.395 -0.3899 -0.1266  0.4793
10057TIP3    H151662   6.719   2.892  12.405 -0.6601 -1.0489 -2.9188
10057TIP3    H251663   6.589   2.944  12.462 -0.4234 -3.1758 -0.2032
10058TIP3   OH251664   1.319   4.102  12.653  0.1674  0.3759 -0.3460
10058TIP3    H151665   1.337   4.137  12.741  2.9302  1.0395 -1.0723
10058TIP3    H251666   1.353   4.168  12.594  0.5947 -1.1262 -1.8642
10059TIP3   OH251667   3.036   0.766  15.990 -0.0314  0.2919 -0.0403
10059TIP3    H151668   3.008   0.784  16.080 -0.5902 -0.4509 -0.0566
10059TIP3    H251669   3.117   0.717  15.998 -0.4970 -0.4714  0.0847
10060TIP3   OH251670   1.044   2.016  15.585  0.0934 -0.6493 -0.2861
10060TIP3    H151671   0.976   2.083  15.577 -0.1645 -0.8748  0.0035
10060TIP3    H251672   1.092   2.040  15.665  0.0151 -0.7921 -0.1944
10061TIP3   OH251673   1.501   5.427  11.037  0.3832 -0.3067  0.1347
10061TIP3    H151674   1.448   5.452  10.962  0.0673  0.0880  0.4888
10061TIP3    H251675   1.566   5.367  11.001 -1.0078 -1.7220 -0.0969
10062TIP3   OH251676   4.946   2.035   5.220 -0.5399  0.2509 -0.0448
10062TIP3    H151677   4.887   2.110   5.229  0.9818  1.3832  1.0651
10062TIP3    H251678   4.969   2.011   5.310  0.8878  0.0205 -0.4339
10063TIP3   OH251679   5.761   0.129   0.412  0.3253 -0.1948  0.1520
10063TIP3    H151680   5.683   0.074   0.424 -1.1910  1.8963  0.6750
10063TIP3    H251681   5.742   0.179   0.332  1.4069 -0.0651 -0.0279
10064TIP3   OH251682   4.022   1.893   5.094  0.2577  0.2464 -0.3294
10064TIP3    H151683   4.110   1.901   5.059 -0.2807 -0.0311 -1.8334
10064TIP3    H251684   3.980   1.977   5.074  0.1074  0.3029  0.1921
10065TIP3   OH251685   1.065   5.849  15.504 -0.0426  0.2025  0.2346
10065TIP3    H151686   1.089   5.867  15.595  0.7099 -0.1928  0.1233
10065TIP3    H251687   0.979   5.806  15.510 -0.9135  1.9138  0.6200
10066TIP3   OH251688   4.310   4.021   5.261 -0.0905  0.6692 -0.6082
10066TIP3    H151689   4.290   3.991   5.173  0.3746  1.2377 -0.9151
10066TIP3    H251690   4.266   4.105   5.268 -1.2769  0.0048  0.1988
10067TIP3   OH251691   3.429   1.466  11.365  0.2086  0.1370 -0.2671
10067TIP3    H151692   3.356   1.441  11.422 -0.8958  0.3847 -1.5136
10067TIP3    H251693   3.507   1.432  11.409 -0.7737 -1.2417  0.4851
10068TIP3   OH251694   3.575   4.601   1.270 -0.5049  0.6397  0.9664
10068TIP3    H151695   3.563   4.531   1.335  0.7422  0.2559  0.8144
10068TIP3    H251696   3.669   4.613   1.265 -0.3557 -0.7650 -2.2330
10069TIP3   OH251697   5.025   1.782  10.132 -0.5311 -0.0120  0.5268
10069TIP3    H151698   5.059   1.835  10.204  0.5094  0.7492 -0.4833
10069TIP3    H251699   5.092   1.715  10.118  0.4928  1.3178 -1.2898
10070TIP3   OH251700   0.213   1.401  15.839  0.2093  0.2778 -0.5913
10070TIP3    H151701   0.248   1.384  15.927  1.4832 -0.4126 -1.2103
10070TIP3    H251702   0.286   1.440  15.791 -0.6746  1.2736 -1.1741
10071TIP3   OH251703   0.510   5.157   4.773  0.3830 -0.0935 -0.5152
10071TIP3    H151704   0.533   5.067   4.750  1.5844 -0.4276  1.7075
10071TIP3    H251705   0.588   5.191   4.817 -0.0392  2.0651 -1.3157
10072TIP3   OH251706   5.642   1.049   1.770  0.0377 -0.0839 -0.4205
10072TIP3    H151707   5.549   1.036   1.755  0.1583 -0.3425 -0.9560
10072TIP3    H251708   5.664   0.987   1.840  0.4174 -2.2032 -2.3316
10073TIP3   OH251709   6.301   5.022   5.474  0.0945 -0.8610 -0.2641
10073TIP3    H151710   6.239   5.025   5.402  0.5407 -1.1026 -0.6702
10073TIP3    H251711   6.278   5.096   5.530 -1.0242 -1.3963 -0.0096
10074TIP3   OH251712   1.920   0.448   0.299  0.0234 -0.4133 -0.6320
10074TIP3    H151713   1.947   0.443   0.391 -0.5059 -0.0496 -0.4524
10074TIP3    H251714   1.941   0.538   0.273  0.5664 -0.6387 -0.9997
10075TIP3   OH251715   1.021   6.130   3.468 -0.4102 -0.0101  0.4360
10075TIP3    H151716   0.931   6.160   3.454 -0.6361 -1.6994 -2.5174
10075TIP3    H251717   1.012   6.046   3.512 -0.3072 -0.2652 -0.0224
10076TIP3   OH251718   2.015   6.566   4.978 -0.3620 -0.0814  0.8723
10076TIP3    H151719   2.076   6.532   4.913 -0.8214  1.2417 -0.3074
10076TIP3    H251720   1.930   6.533   4.951 -0.4646 -0.0721  1.1840
10077TIP3   OH251721   2.520   2.269   5.523  0.3530 -0.3222 -0.1855
10077TIP3    H151722   2.568   2.342   5.563 -0.5093 -0.6935  1.6557
10077TIP3    H251723   2.441   2.261   5.576 -0.9543 -0.7967 -2.1001
10078TIP3   OH251724   4.532   3.709   6.135  0.2843  0.2447  0.1584
10078TIP3    H151725   4.560   3.794   6.101 -0.2672  0.5485  0.4548
10078TIP3    H251726   4.452   3.689   6.087  1.6650 -1.2473 -1.6519
10079TIP3   OH251727   5.891   1.248  13.071 -0.2656  0.2101 -0.1004
10079TIP3    H151728   5.833   1.306  13.119  1.5954  0.5457  1.9015
10079TIP3    H251729   5.893   1.168  13.123  1.7335  0.5530  0.4417
10080TIP3   OH251730   6.330   6.545  10.854 -0.3605 -0.1200 -0.5371
10080TIP3    H151731   6.250   6.558  10.904 -1.7656  0.0261 -2.6751
10080TIP3    H251732   6.389   6.614  10.884 -1.0959 -0.1138  0.9515
10081TIP3   OH251733   3.372   5.025  13.749 -0.6515 -0.5662  0.3554
10081TIP3    H151734   3.443   5.015  13.686  0.4878 -0.4391  1.5758
10081TIP3    H251735   3.329   5.107  13.723  2.5630  1.9759  2.2304
10082TIP3   OH251736   5.370   5.186   1.609 -0.2919  0.4417 -0.3292
10082TIP3    H151737   5.455   5.151   1.582 -0.3564 -0.9615  1.1353
10082TIP3    H251738   5.365   5.272   1.567  1.1308 -0.1153 -1.7517
10083TIP3   OH251739   1.827   1.062  16.257 -0.2814  0.2113 -0.1401
10083TIP3    H151740   1.816   1.153  16.228 -0.4889  0.0600 -0.5394
10083TIP3    H251741   1.879   1.022  16.188 -0.8133 -0.1659 -0.3259
10084TIP3   OH251742   3.444   0.376  11.342 -0.1910 -0.0181 -0.3047
10084TIP3    H151743   3.415   0.355  11.253  0.0127 -0.6402 -0.2353
10084TIP3    H251744   3.533   0.409  11.331  0.7005 -2.1656 -0.1860
10085TIP3   OH251745   3.462   4.398   5.260 -0.2698 -0.1307  0.3703
10085TIP3    H151746   3.548   4.382   5.298 -0.6107 -1.2800  0.6777
10085TIP3    H251747   3.439   4.487   5.289 -0.4088 -0.8599  2.6324
10086TIP3   OH251748   2.104   0.908   0.745 -0.0332 -0.1578  0.3958
10086TIP3    H151749   2.113   1.002   0.727 -2.9721  0.8390  3.2275
10086TIP3    H251750   2.185   0.884   0.790  1.1383  0.7384 -1.1449
10087TIP3   OH251751   6.407   0.034  13.841  0.6043  0.2523 -0.2113
10087TIP3    H151752   6.460  -0.026  13.788 -1.2256 -2.4393  0.7943
10087TIP3    H251753   6.322   0.035  13.798  0.3169  1.4003  0.3625
10088TIP3   OH251754   2.071   1.046  15.757  0.1760 -0.1587  0.0900
10088TIP3    H151755   2.110   1.035  15.670 -1.9903 -1.0535 -0.8466
10088TIP3    H251756   1.977   1.035  15.742 -0.5937  2.6753  2.0531
10089TIP3   OH251757   2.870   6.285  11.900  0.4845 -0.5011  0.4778
10089TIP3    H151758   2.838   6.363  11.946  1.4573  0.6366 -0.7212
10089TIP3    H251759   2.790   6.238  11.875 -0.1387  0.3717  0.7762
10090TIP3   OH251760   4.094   1.687   5.285 -0.3505  0.3883 -0.4198
10090TIP3    H151761   4.064   1.742   5.213 -1.4430  0.0730 -0.2223
10090TIP3    H251762   4.015   1.666   5.334 -0.4381 -3.2518 -1.7569
10091TIP3   OH251763   2.871   5.310   2.334  0.0692  0.0225  0.0096
10091TIP3    H151764   2.948   5.367   2.335 -0.4460  0.7664 -0.8435
10091TIP3    H251765   2.900   5.229   2.376  1.3933  0.2099 -0.4913
10092TIP3   OH251766   1.245   5.206  14.101 -0.6506  0.4944  0.0814
10092TIP3    H151767   1.206   5.290  14.126  0.0424  0.7028  0.4815
10092TIP3    H251768   1.190   5.140  14.144 -1.1194  0.7433 -0.1316
10093TIP3   OH251769   4.027   3.387   0.931  0.2210 -0.8417 -0.0701
10093TIP3    H151770   4.024   3.325   1.005 -0.3517 -1.4956 -0.6229
10093TIP3    H251771   3.950   3.442   0.944  0.3469 -0.6937  0.0451
10094TIP3   OH251772   3.162   2.210  17.210  0.3610 -0.6096 -0.7886
10094TIP3    H151773   3.136   2.228  17.301  1.7298 -1.4346 -0.2081
10094TIP3    H251774   3.083   2.229  17.159 -0.7805 -1.1487  0.6852
10095TIP3   OH251775   3.280   2.235  14.375  0.1041  0.3888  0.2717
10095TIP3    H151776   3.186   2.225  14.388 -0.0512  0.9236 -0.3708
10095TIP3    H251777   3.311   2.146  14.357 -0.4251  0.3232 -0.3800
10096TIP3   OH251778   1.641   0.362   0.337 -0.0364 -0.4938 -0.0106
10096TIP3    H151779   1.590   0.436   0.369  0.9354  0.0192  0.3887
10096TIP3    H251780   1.728   0.397   0.321  0.1550 -1.3150 -0.8495
10097TIP3   OH251781   4.641   0.086   5.291  0.0847  0.1002 -0.2638
10097TIP3    H151782   4.678   0.158   5.240 -0.2207  0.5132  0.0803
10097TIP3    H251783   4.701   0.013   5.277  1.6418  1.0389  1.1304
10098TIP3   OH251784   5.477   4.861   0.332  0.3962  0.2036 -0.3671
10098TIP3    H151785   5.449   4.803   0.262 -0.6508 -1.3200  1.2266
10098TIP3    H251786   5.482   4.805   0.410  0.1491  2.0761  1.0798
10099TIP3   OH251787   6.756   5.987   6.051  0.0204  0.3298 -0.4910
10099TIP3    H151788   6.809   5.969   6.128  1.2220 -1.6259 -1.6974
10099TIP3    H251789   6.808   5.956   5.977 -1.9263  0.2409 -1.9267
10100TIP3   OH251790   2.514   6.325  17.062 -0.4763 -0.4854  0.4256
10100TIP3    H151791   2.536   6.355  17.150  0.8886  0.5169 -0.2194
10100TIP3    H251792   2.462   6.396  17.024 -0.1996 -0.4685  0.0709
10101TIP3   OH251793   1.632   4.926   0.615  0.1219  0.2704 -0.2462
10101TIP3    H151794   1.552   4.962   0.578 -0.0119 -0.2828 -0.5125
10101TIP3    H251795   1.702   4.983   0.582  0.0030 -0.1949 -1.3423
10102TIP3   OH251796   0.992   0.456  15.178  0.4437  0.5214 -0.1800
10102TIP3    H151797   1.084   0.477  15.197  0.7916 -0.9753 -0.0295
10102TIP3    H251798   0.945   0.539  15.188  1.9781  1.6298 -1.5983
10103TIP3   OH251799   6.415   5.089   1.213  0.0352  0.5777  0.1904
10103TIP3    H151800   6.465   5.088   1.295 -1.9076 -0.3005  1.4303
10103TIP3    H251801   6.404   4.997   1.190 -2.1722  0.6474  0.7459
10104TIP3   OH251802   1.783   0.971  15.786 -0.0492  0.4444  0.0540
10104TIP3    H151803   1.772   0.958  15.692 -1.2523  2.6207 -0.1780
10104TIP3    H251804   1.695   0.966  15.822  0.2742  0.6967  0.9169
10105TIP3   OH251805   0.193   3.094   0.924 -0.0826 -0.2731  0.0388
10105TIP3    H151806   0.254   3.166   0.937 -0.4687  0.1718 -0.6040
10105TIP3    H251807   0.235   3.019   0.967  1.3801 -0.2160 -1.2052
10106TIP3   OH251808   6.385   5.439   0.093 -0.0970  0.2369  0.0134
10106TIP3    H151809   6.399   5.476   0.005 -0.9484 -1.1098 -0.7265
10106TIP3    H251810   6.389   5.515   0.151  3.7669  0.8077 -0.7279
10107TIP3   OH251811   0.627   3.812   5.594  0.0587  0.0125 -0.5277
10107TIP3    H151812   0.660   3.729   5.629  0.5758  1.1494  1.9249
10107TIP3    H251813   0.667   3.879   5.649 -2.5087  1.7421 -0.5570
10108TIP3   OH251814   2.270   2.954   3.262  0.2231 -0.3774  0.1466
10108TIP3    H151815   2.244   3.045   3.276 -0.0836 -0.6167  1.1785
10108TIP3    H251816   2.224   2.927   3.182 -1.1184 -0.1770  0.8288
10109TIP3   OH251817   3.822   4.118  12.525  0.3405 -0.3126 -0.3446
10109TIP3    H151818   3.907   4.074  12.518  0.0833 -1.1456  1.2826
10109TIP3    H251819   3.769   4.059  12.578 -0.9604  0.6451 -0.5291
10110TIP3   OH251820   2.802   1.943   0.665  0.7377 -0.2775 -0.1202
10110TIP3    H151821   2.819   1.850   0.649  0.5835 -0.4025  0.4085
10110TIP3    H251822   2.725   1.962   0.611  0.8937 -0.4026 -0.3908
10111TIP3   OH251823   3.043   5.052  10.363  0.7600  0.2493  0.6479
10111TIP3    H151824   3.104   5.123  10.380  0.4449  1.1032 -1.4327
10111TIP3    H251825   3.096   4.985  10.319  0.5142  0.3613  0.1756
10112TIP3   OH251826   2.995   3.301   5.035  1.0778 -0.1796 -0.2603
10112TIP3    H151827   3.048   3.279   4.958  0.1433  1.2643 -1.3778
10112TIP3    H251828   2.923   3.237   5.032  0.6481  0.3155 -1.0496
10113TIP3   OH251829   5.290   5.173  11.374 -0.2147 -0.0842  0.1731
10113TIP3    H151830   5.316   5.117  11.301  0.9858  1.6686 -0.8280
10113TIP3    H251831   5.202   5.202  11.351 -0.5293 -0.9104  0.3079
10114TIP3   OH251832   2.163   5.708   5.072  0.3750  0.1771 -1.0258
10114TIP3    H151833   2.096   5.769   5.103  0.3318  0.9455 -2.5633
10114TIP3    H251834   2.232   5.763   5.037  1.0803 -0.6485 -0.9781
10115TIP3   OH251835   3.630   3.721   5.656 -0.3078  0.2230  0.4001
10115TIP3    H151836   3.707   3.745   5.605  0.4662 -0.3214  1.2617
10115TIP3    H251837   3.571   3.680   5.593 -0.1106  1.0908 -0.3670
10116TIP3   OH251838   3.749   3.341   0.458  0.2908  0.2762  0.3111
10116TIP3    H151839   3.670   3.356   0.405  0.0977 -0.4216  0.4039
10116TIP3    H251840   3.754   3.419   0.514 -0.1383  0.4875  0.0674
10117TIP3   OH251841   2.832   1.630   6.597 -0.0094 -0.1118  0.1527
10117TIP3    H151842   2.805   1.573   6.524 -0.7896 -0.1431  0.4612
10117TIP3    H251843   2.767   1.700   6.599  0.4999  0.3670  0.2797
10118TIP3   OH251844   5.723   6.213  16.751  0.2358  0.4431  0.0764
10118TIP3    H151845   5.679   6.135  16.716  1.3489  0.2116 -0.8435
10118TIP3    H251846   5.766   6.183  16.830 -1.8277  0.8424  1.4368
10119TIP3   OH251847   2.201   5.201   2.892 -0.1848  0.4199 -0.0670
10119TIP3    H151848   2.185   5.173   2.982 -1.1402  0.6550 -0.1438
10119TIP3    H251849   2.114   5.227   2.860  0.2474  0.9340 -0.8491
10120TIP3   OH251850   5.499   5.083   4.603 -0.9297  0.2583  0.0051
10120TIP3    H151851   5.564   5.013   4.593  0.1036  1.3448 -1.2057
10120TIP3    H251852   5.539   5.145   4.664 -1.2535  0.4568  0.0194
10121TIP3   OH251853   1.986   2.064   6.216  0.1107 -0.3442  0.5811
10121TIP3    H151854   1.930   2.142   6.214 -0.5559 -0.8271  0.0746
10121TIP3    H251855   2.074   2.098   6.198  0.1153  0.5179  2.0535
10122TIP3   OH251856   3.388   6.483  16.719 -0.6205 -0.1186 -0.3274
10122TIP3    H151857   3.315   6.471  16.779 -0.2549 -0.5999  0.0331
10122TIP3    H251858   3.465   6.456  16.770 -0.2906 -0.4149 -0.9756
10123TIP3   OH251859   3.751   4.343  15.626  0.2452  0.0852  0.4285
10123TIP3    H151860   3.791   4.315  15.544  3.6246  1.1937  1.4990
10123TIP3    H251861   3.725   4.434  15.610  0.2278  0.0649  0.3408
10124TIP3   OH251862   1.384   1.003  16.909 -0.1451 -0.0682  0.0148
10124TIP3    H151863   1.381   0.926  16.851  1.3365 -0.1749  0.0410
10124TIP3    H251864   1.448   0.979  16.976 -1.0773  0.4681  1.1221
10125TIP3   OH251865   1.334   3.360  15.704 -0.1155 -0.0406 -0.0557
10125TIP3    H151866   1.267   3.376  15.769  2.1271  0.9817  2.1767
10125TIP3    H251867   1.411   3.333  15.754  1.3558 -0.5167 -2.4010
10126TIP3   OH251868   4.473   3.541   5.326 -0.1107  0.7017 -0.1466
10126TIP3    H151869   4.561   3.522   5.360 -0.4271  0.4311  0.5478
10126TIP3    H251870   4.452   3.628   5.361 -0.9912 -0.1452  1.5672
10127TIP3   OH251871   6.392   2.006  12.816  0.2201 -0.1269  0.5930
10127TIP3    H151872   6.307   1.999  12.773  0.1870 -1.5031  0.8365
10127TIP3    H251873   6.378   2.065  12.889 -0.1457  0.8588 -0.2542
10128TIP3   OH251874   1.441   5.937  14.314 -0.2968 -0.2779  0.6106
10128TIP3    H151875   1.416   6.004  14.250  1.0194  0.3960  0.7645
10128TIP3    H251876   1.524   5.903  14.282  0.4120  0.1034  1.9664
10129TIP3   OH251877   1.872   2.809   5.819  0.1294 -0.0358  0.5937
10129TIP3    H151878   1.921   2.823   5.738  0.1619 -0.6302  0.5041
10129TIP3    H251879   1.899   2.880   5.877  0.0068  0.4711  0.0384
10130TIP3   OH251880   6.303   0.856  13.428  0.4590  0.1858  0.0805
10130TIP3    H151881   6.230   0.855  13.366 -1.2124 -1.8123  1.9276
10130TIP3    H251882   6.319   0.764  13.448  0.7922  0.7222  2.6902
10131TIP3   OH251883   5.236   3.965  12.552 -0.9573  0.2279 -0.0135
10131TIP3    H151884   5.237   4.050  12.508  0.7977  0.1945 -0.0997
10131TIP3    H251885   5.158   3.921  12.517 -0.8076  1.0369 -1.4382
10132TIP3   OH251886   3.131   6.484  14.205 -0.1335 -0.1913 -0.2524
10132TIP3    H151887   3.176   6.532  14.135 -2.8669  0.5869 -1.6176
10132TIP3    H251888   3.166   6.396  14.200  0.4930  0.1132 -1.9467
10133TIP3   OH251889   0.753   2.226   2.582  0.5081 -0.4108  0.1717
10133TIP3    H151890   0.660   2.207   2.586  0.7963 -1.7747  1.6100
10133TIP3    H251891   0.795   2.144   2.610  2.0496  0.7983  1.6339
10134TIP3   OH251892   0.991   2.137   5.406 -0.2706  0.6206  0.8578
10134TIP3    H151893   1.027   2.176   5.485 -1.3284  0.8033  1.2592
10134TIP3    H251894   0.904   2.106   5.431 -0.3143 -0.0301 -0.0302
10135TIP3   OH251895   1.638   5.904  15.150  0.4940  0.1577 -0.0424
10135TIP3    H151896   1.733   5.909  15.145  0.5553 -1.6776 -2.2992
10135TIP3    H251897   1.609   5.895  15.060 -1.9746  1.9072  0.4687
10136TIP3   OH251898   5.570   4.416  16.172  0.3780 -1.1235 -0.3424
10136TIP3    H151899   5.557   4.486  16.235  0.6673 -0.7659 -0.6737
10136TIP3    H251900   5.628   4.354  16.217  0.7492 -0.7708 -0.3247
10137TIP3   OH251901   3.808   4.101  12.230 -0.2517 -0.0212  0.5741
10137TIP3    H151902   3.754   4.131  12.303 -0.6270 -0.9488  0.6908
10137TIP3    H251903   3.755   4.120  12.152 -0.1462  0.3367  0.5878
10138TIP3   OH251904   2.484   2.368   1.060 -0.1420  0.6809 -0.4399
10138TIP3    H151905   2.448   2.319   1.134  1.5509  0.1435  0.0672
10138TIP3    H251906   2.551   2.424   1.099  0.7152  0.4490 -1.5467
10139TIP3   OH251907   3.989   1.938  16.840  0.2500  0.5291  0.0422
10139TIP3    H151908   3.944   2.010  16.884  1.9549  0.7505  1.5229
10139TIP3    H251909   4.061   1.915  16.899  0.2899 -1.7996 -0.8236
10140TIP3   OH251910   3.936   3.333  14.120 -0.0195 -0.0960  0.3470
10140TIP3    H151911   3.884   3.264  14.080 -0.3080  1.6748 -2.6042
10140TIP3    H251912   3.904   3.414  14.079  0.9853  1.7247  2.8988
10141TIP3   OH251913   6.558   5.000   3.596  0.8755 -0.1862  0.5312
10141TIP3    H151914   6.526   4.910   3.599  0.8708 -0.1641  2.6068
10141TIP3    H251915   6.652   4.992   3.582  0.8667 -0.5159  0.6622
10142TIP3   OH251916   0.826   1.923  14.087 -0.4267  0.4726  0.0751
10142TIP3    H151917   0.889   1.957  14.150  1.4100  2.2253 -2.4974
10142TIP3    H251918   0.858   1.836  14.065  0.9873  1.2277 -0.9760
10143TIP3   OH251919   0.184   0.609  12.833 -1.4224  0.4895 -0.0355
10143TIP3    H151920   0.177   0.600  12.928 -1.3810 -1.0740 -0.1578
10143TIP3    H251921   0.228   0.694  12.820  0.5537 -0.2366  1.4206
10144TIP3   OH251922   2.933   3.714  16.081 -0.5925 -0.4634  0.1253
10144TIP3    H151923   2.922   3.775  16.007 -0.8355 -1.4565 -0.6776
10144TIP3    H251924   2.982   3.641  16.044  0.5637 -0.3314  1.3217
10145TIP3   OH251925   6.665   5.113   4.940  0.3356 -0.3859  0.1437
10145TIP3    H151926   6.696   5.175   5.006 -2.4598  0.9337  0.3610
10145TIP3    H251927   6.664   5.029   4.985 -0.6918  0.3480  1.5770
10146TIP3   OH251928   5.343   5.560   6.270 -0.2220  0.3914 -0.2223
10146TIP3    H151929   5.415   5.603   6.317  1.6660 -2.3099 -0.3954
10146TIP3    H251930   5.323   5.620   6.197  1.0933  1.7403  0.4636
10147TIP3   OH251931   0.232   1.082   6.772 -0.3706 -0.2671  0.0195
10147TIP3    H151932   0.317   1.094   6.730 -0.1555 -0.5643  0.3668
10147TIP3    H251933   0.235   0.993   6.808 -0.7094 -0.1646  0.3068
10148TIP3   OH251934   6.567   5.964   0.115 -0.2345 -0.1905  0.3171
10148TIP3    H151935   6.621   5.913   0.055 -0.9139 -0.5521  0.0033
10148TIP3    H251936   6.478   5.949   0.085 -0.4897  0.6555  0.6309
10149TIP3   OH251937   2.007   2.031  11.441  0.4888 -0.2859  0.3328
10149TIP3    H151938   2.087   1.980  11.431  0.1211 -1.3148  2.1760
10149TIP3    H251939   1.957   1.985  11.508 -0.7382  1.4525  0.6949
10150TIP3   OH251940   5.747   5.797  15.272  0.3489 -0.2514  0.2672
10150TIP3    H151941   5.841   5.785  15.259  0.3659 -0.3232  0.4562
10150TIP3    H251942   5.726   5.877  15.225  0.4107 -0.5116 -0.2204
10151TIP3   OH251943   4.316   1.686  16.979  0.6884 -0.3222 -0.2853
10151TIP3    H151944   4.378   1.696  17.051  0.2040 -1.2105  0.2698
10151TIP3    H251945   4.311   1.591  16.965 -1.4024 -0.3710  0.4782
10152TIP3   OH251946   2.746   6.150   5.683  0.7033 -0.8061 -0.5909
10152TIP3    H151947   2.767   6.117   5.595  0.3420 -0.8466 -0.6675
10152TIP3    H251948   2.719   6.072   5.731  2.0466 -0.9716 -0.0790
10153TIP3   OH251949   3.291   0.368  13.410 -0.6739 -0.3481  0.4773
10153TIP3    H151950   3.206   0.326  13.418 -1.5933  1.2825 -0.2268
10153TIP3    H251951   3.295   0.430  13.483  0.3029 -1.0325  1.0236
10154TIP3   OH251952   4.585   4.005   3.994 -0.0335  0.8949  0.2187
10154TIP3    H151953   4.560   4.097   3.997 -0.0558  0.8799  0.5094
10154TIP3    H251954   4.583   3.982   3.901 -0.1690  1.1487  0.1601
10155TIP3   OH251955   1.880   4.569   1.872  0.5444 -0.3775 -0.2017
10155TIP3    H151956   1.834   4.615   1.802 -0.7983  0.8915  1.4355
10155TIP3    H251957   1.937   4.636   1.911  2.4429 -1.4589 -0.9993
10156TIP3   OH251958   4.804   6.681   2.141 -0.2002  0.6725 -0.5618
10156TIP3    H151959   4.737   6.745   2.166 -1.9919 -0.6825 -1.7057
10156TIP3    H251960   4.824   6.634   2.222 -1.9135 -0.0279 -0.5119
10157TIP3   OH251961   1.561   4.672  17.035 -0.2446 -0.1475  0.1743
10157TIP3    H151962   1.589   4.597  16.983  0.8733 -1.8746  3.0238
10157TIP3    H251963   1.498   4.636  17.097  0.5994  1.1723  1.8695
10158TIP3   OH251964   3.637   6.423  14.670  0.4716 -0.2055 -0.2134
10158TIP3    H151965   3.674   6.354  14.725 -2.8896 -0.3779  2.1749
10158TIP3    H251966   3.572   6.379  14.616  0.0098  0.7407 -0.4525
10159TIP3   OH251967   5.191   4.428  13.407 -0.2782 -0.0342  0.4695
10159TIP3    H151968   5.100   4.441  13.378 -0.2598  0.1077  0.4777
10159TIP3    H251969   5.220   4.514  13.435 -0.1051 -0.0598  0.3706
10160TIP3   OH251970   2.330   2.949  12.589  0.0351  0.7784  0.0938
10160TIP3    H151971   2.277   3.024  12.614  1.3985  1.6113  0.5461
10160TIP3    H251972   2.360   2.911  12.672 -0.4613 -0.1533 -0.1313
10161TIP3   OH251973   2.619   0.848  12.395  0.2076  0.0636 -0.2935
10161TIP3    H151974   2.673   0.835  12.473  0.8740 -0.4926 -0.8341
10161TIP3    H251975   2.676   0.897  12.335  0.2972 -0.9724 -1.0642
10162TIP3   OH251976   5.198   4.941  14.336  0.4911 -0.2971  0.0928
10162TIP3    H151977   5.209   4.900  14.422  1.4716 -0.1050  0.0656
10162TIP3    H251978   5.113   4.909  14.305  0.2097 -0.5062  1.0544
10163TIP3   OH251979   2.147   1.337   0.076 -0.2030 -0.7014 -0.4500
10163TIP3    H151980   2.201   1.386   0.013 -0.1706 -1.9582 -1.4593
10163TIP3    H251981   2.071   1.308   0.024 -1.0152 -0.3751  0.5291
10164TIP3   OH251982   4.228   0.218  12.121  0.6807 -0.1025  0.0072
10164TIP3    H151983   4.169   0.292  12.134 -0.3388 -0.5708 -1.6377
10164TIP3    H251984   4.267   0.232  12.034 -1.9222 -2.9451 -1.8261
10165TIP3   OH251985   2.332   6.452   1.886 -0.0773  0.1564  0.2606
10165TIP3    H151986   2.287   6.389   1.943 -0.6442  0.0128 -0.3363
10165TIP3    H251987   2.281   6.532   1.894 -0.7726 -0.1603 -0.8322
10166TIP3   OH251988   3.886   6.602  10.642 -0.2349  0.2901  0.3233
10166TIP3    H151989   3.892   6.650  10.559  0.6223  0.4563  0.4733
10166TIP3    H251990   3.945   6.649  10.701  0.2881 -0.6973  0.5995
10167TIP3   OH251991   5.195   0.549   2.374 -0.5109 -0.9442 -0.0556
10167TIP3    H151992   5.279   0.565   2.332 -1.1293 -1.2638 -1.5017
10167TIP3    H251993   5.207   0.468   2.423  0.7759  0.4260  2.0394
10168TIP3   OH251994   1.636   4.090  11.737 -0.5010  0.8740 -0.1562
10168TIP3    H151995   1.569   4.050  11.681 -0.3459  0.8802 -0.3474
10168TIP3    H251996   1.718   4.077  11.689 -0.3593  0.8362  0.0935
10169TIP3   OH251997   3.564   1.959   4.894 -0.0134  0.0407  0.5683
10169TIP3    H151998   3.588   2.051   4.902 -0.9280  0.6059 -1.9649
10169TIP3    H251999   3.474   1.954   4.926  0.4404 -0.2675  1.8567
10170TIP3   OH252000   5.850   5.922   0.800 -0.2056  0.3018  0.2189
10170TIP3    H152001   5.846   6.004   0.850 -0.9365  0.6220 -0.3536
10170TIP3    H252002   5.904   5.864   0.854 -1.5534  0.4009  1.7283
10171TIP3   OH252003   3.395   3.079  11.663  0.1155  0.0288  0.1342
10171TIP3    H152004   3.452   3.009  11.697  0.4085  0.8339  1.3611
10171TIP3    H252005   3.455   3.138  11.617  0.5061  1.4111  2.2805
10172TIP3   OH252006   2.950   3.357   3.655 -0.2608 -0.2728 -0.3357
10172TIP3    H152007   3.014   3.425   3.674 -0.1384 -0.8768  1.6768
10172TIP3    H252008   2.910   3.337   3.740  0.2831 -3.2799 -0.6634
10173TIP3   OH252009   2.511   2.135   2.399 -0.4391  0.5782 -0.0773
10173TIP3    H152010   2.507   2.220   2.443  1.3787 -0.1356  1.6075
10173TIP3    H252011   2.455   2.078   2.451 -0.4090  0.3699 -0.2704
10174TIP3   OH252012   4.860   5.784   2.873  0.1208 -0.0959 -0.0585
10174TIP3    H152013   4.912   5.703   2.866 -0.9367 -0.6533 -2.1766
10174TIP3    H252014   4.914   5.850   2.829  0.0189 -0.1458 -0.2564
10175TIP3   OH252015   4.005   0.106  13.047 -0.1772 -0.0926  0.6474
10175TIP3    H152016   4.081   0.100  13.105  1.1735 -1.2965 -1.1174
10175TIP3    H252017   3.946   0.037  13.078  0.5148 -0.7041  0.6395
10176TIP3   OH252018   5.236   0.203  14.944 -0.3347 -0.1093 -0.1725
10176TIP3    H152019   5.313   0.167  14.988  0.4485  1.0092 -0.6126
10176TIP3    H252020   5.171   0.213  15.015  0.1427 -0.4299  0.3175
10177TIP3   OH252021   5.920   0.209  12.894 -0.5303 -0.9301  0.3004
10177TIP3    H152022   5.897   0.300  12.876 -0.3964 -1.0048 -0.2526
10177TIP3    H252023   6.013   0.212  12.918 -0.6591 -0.8562  0.8004
10178TIP3   OH252024   2.032   4.983  16.232 -0.4723  0.1598  0.3094
10178TIP3    H152025   2.011   5.003  16.141 -0.4948 -0.2877  0.2160
10178TIP3    H252026   2.127   4.992  16.238 -0.6093  1.5819  0.5870
10179TIP3   OH252027   1.567   3.929  15.510  0.0488  0.1160 -0.8722
10179TIP3    H152028   1.635   3.861  15.514  0.3111  0.4020 -0.2971
10179TIP3    H252029   1.561   3.962  15.600 -0.6170  0.3287 -0.9891
10180TIP3   OH252030   0.527   6.047  15.855 -0.9311  0.7057 -0.0196
10180TIP3    H152031   0.510   6.131  15.898 -0.4230  1.6021 -1.4866
10180TIP3    H252032   0.466   6.044  15.782 -0.0797  0.4058 -0.7476
10181TIP3   OH252033   2.190   5.071  14.395 -0.4194 -0.2617 -0.3660
10181TIP3    H152034   2.104   5.032  14.379 -0.2181 -0.4878 -0.9204
10181TIP3    H252035   2.237   5.005  14.447 -0.6825 -0.0073  0.2037
10182TIP3   OH252036   4.588   3.464  16.731 -0.9935 -0.6174  0.1294
10182TIP3    H152037   4.574   3.384  16.680 -2.0341 -0.0978 -0.4461
10182TIP3    H252038   4.504   3.510  16.727 -0.7923 -0.0847  1.5059
10183TIP3   OH252039   1.417   4.165   5.760  0.8096 -0.2310 -0.5648
10183TIP3    H152040   1.431   4.206   5.845  1.7605 -1.2284 -0.2143
10183TIP3    H252041   1.420   4.071   5.778 -2.8776 -0.5909 -1.0775
10184TIP3   OH252042   2.170   5.503   1.896  0.0080 -0.2530  0.0215
10184TIP3    H152043   2.141   5.555   1.821 -1.1261  0.7091  1.0785
10184TIP3    H252044   2.264   5.521   1.903  0.2993 -0.9716 -1.6065
10185TIP3   OH252045   2.901   0.966   2.618  0.1931 -0.0799 -0.1156
10185TIP3    H152046   2.862   1.034   2.674 -0.1834 -0.2088 -0.2195
10185TIP3    H252047   2.987   1.001   2.596 -0.2775  0.7129 -0.7815
10186TIP3   OH252048   0.254   2.689   3.682  0.2268  0.3638 -0.4287
10186TIP3    H152049   0.324   2.668   3.745  1.0264  0.8624 -1.1275
10186TIP3    H252050   0.277   2.638   3.604 -0.6869 -0.1458 -0.3825
10187TIP3   OH252051   1.695   1.710   1.042  0.5172 -0.8064  0.1156
10187TIP3    H152052   1.719   1.653   1.115 -0.2923 -2.3186 -0.7545
10187TIP3    H252053   1.773   1.713   0.987  0.1949 -2.1219 -0.4575
10188TIP3   OH252054   2.253   6.266  12.276 -0.5043  0.0222  0.3041
10188TIP3    H152055   2.162   6.279  12.303 -1.2781 -0.6850 -1.7721
10188TIP3    H252056   2.293   6.219  12.348 -1.1971  2.1059  2.1690
10189TIP3   OH252057   1.519   3.191   3.471  0.4473  0.3674  0.8504
10189TIP3    H152058   1.489   3.216   3.559  0.7583  0.9603  0.7931
10189TIP3    H252059   1.439   3.167   3.425  0.1822  0.8644  1.0408
10190TIP3   OH252060   6.620   4.141  12.879  0.1800  0.1942 -0.8117
10190TIP3    H152061   6.658   4.058  12.908 -0.9736 -0.3633 -0.8142
10190TIP3    H252062   6.680   4.174  12.813 -0.0513 -1.3661 -1.8610
10191TIP3   OH252063   0.536   3.566  11.529  0.5985 -0.0554 -0.3073
10191TIP3    H152064   0.571   3.559  11.440  1.9402  1.0242  0.1149
10191TIP3    H252065   0.526   3.475  11.557 -0.4184 -0.4359 -1.7497
10192TIP3   OH252066   6.305   4.139   6.602  1.1503  0.0077 -0.0085
10192TIP3    H152067   6.251   4.210   6.637  1.3599  0.2158 -0.1012
10192TIP3    H252068   6.268   4.122   6.515 -0.0152 -1.2029  0.6830
10193TIP3   OH252069   2.219   4.864  11.917 -0.3969  0.4024 -0.1426
10193TIP3    H152070   2.127   4.879  11.939  0.0655  2.5473  0.4963
10193TIP3    H252071   2.268   4.905  11.988  1.0780  0.3064 -1.0629
10194TIP3   OH252072   4.528   6.789  16.553 -0.4557 -0.0941 -0.0240
10194TIP3    H152073   4.560   6.879  16.558 -0.3196 -0.0860 -0.8825
10194TIP3    H252074   4.479   6.786  16.471 -1.6959 -0.4192  0.7011
10195TIP3   OH252075   1.435   2.969  17.199  0.6393 -0.2924 -0.1113
10195TIP3    H152076   1.487   2.894  17.170  0.9818 -0.0079 -0.2444
10195TIP3    H252077   1.367   2.931  17.254 -1.0073 -1.0596 -2.4965
10196TIP3   OH252078   2.536   3.962  14.080 -0.2030  0.2094 -0.1317
10196TIP3    H152079   2.448   3.948  14.043 -1.0152  0.0417  1.7499
10196TIP3    H252080   2.560   4.050  14.050  0.0015 -0.5744 -2.5216
10197TIP3   OH252081   1.135   0.057  15.310  0.5579 -0.2031 -0.4037
10197TIP3    H152082   1.055   0.033  15.264  0.1882  0.6582 -0.2324
10197TIP3    H252083   1.177   0.122  15.254  1.2631 -0.8067 -0.5991
10198TIP3   OH252084   4.840   2.918   1.148 -0.1524  0.1328  0.5389
10198TIP3    H152085   4.821   2.828   1.120 -0.9912  0.7775 -1.1294
10198TIP3    H252086   4.935   2.919   1.164 -0.1312 -1.0301  0.5357
10199TIP3   OH252087   3.412   2.269  15.303 -0.3064 -0.1926  0.0176
10199TIP3    H152088   3.389   2.188  15.258  1.1299  0.0273 -1.1871
10199TIP3    H252089   3.423   2.333  15.233 -1.8694  1.1964  0.9858
10200TIP3   OH252090   1.847   2.568  15.537  0.4319  0.2824 -0.4456
10200TIP3    H152091   1.915   2.603  15.594  0.8933 -1.9136  0.4386
10200TIP3    H252092   1.895   2.530  15.463  0.5834 -3.4681  1.3195
10201TIP3   OH252093   0.383   4.507  14.932 -0.4882 -0.8533 -0.1159
10201TIP3    H152094   0.358   4.506  15.024  0.6146  1.5754  0.2906
10201TIP3    H252095   0.333   4.580  14.895  3.0608  1.9014 -0.0448
10202TIP3   OH252096   0.466   3.388   2.738  0.2343  0.0630 -0.4529
10202TIP3    H152097   0.486   3.296   2.751  2.1501  0.2971 -1.3223
10202TIP3    H252098   0.507   3.433   2.811 -4.0235  0.0587  2.2833
10203TIP3   OH252099   4.374   3.708  15.648 -0.2910  0.1143 -0.5200
10203TIP3    H152100   4.425   3.788  15.640  0.4210 -0.2036  0.5670
10203TIP3    H252101   4.343   3.690  15.559  1.2268  0.5010 -1.1568
10204TIP3   OH252102   3.141   4.426  16.822  0.0067  0.0594  0.6792
10204TIP3    H152103   3.064   4.393  16.869 -1.2159  1.0486 -0.5317
10204TIP3    H252104   3.149   4.517  16.849 -0.1870  0.3928 -0.3389
10205TIP3   OH252105   2.363   2.052   5.944 -0.0554  0.0337 -0.4328
10205TIP3    H152106   2.447   2.021   5.978  0.8756  1.5894 -1.2156
10205TIP3    H252107   2.366   2.030   5.851  0.8262  2.6968 -1.1186
10206TIP3   OH252108   5.812   3.345  14.481  0.1977  0.3293  0.0879
10206TIP3    H152109   5.895   3.384  14.453  0.4321  0.3052  0.7439
10206TIP3    H252110   5.748   3.416  14.474  0.0943  0.1331 -1.2152
10207TIP3   OH252111   3.445   2.954  14.210 -0.3615 -0.5753 -0.1735
10207TIP3    H152112   3.510   2.925  14.145 -0.5388  1.2844 -1.2579
10207TIP3    H252113   3.373   2.891  14.201 -0.3610 -0.4086 -1.7900
10208TIP3   OH252114   5.186   3.864   1.579 -0.2588  0.0656  0.4322
10208TIP3    H152115   5.257   3.915   1.540  1.9325 -2.6906  0.5532
10208TIP3    H252116   5.118   3.862   1.512  0.0282  2.1603  0.0117
10209TIP3   OH252117   0.710   5.587  11.531  0.1176  0.3557  0.0621
10209TIP3    H152118   0.783   5.647  11.545  1.3798 -1.3798  1.3685
10209TIP3    H252119   0.751   5.500  11.527 -1.8677 -0.6672  0.7322
10210TIP3   OH252120   3.044   0.781   0.441 -0.0133  0.0674  0.2856
10210TIP3    H152121   2.953   0.756   0.459  0.0257  1.5593  3.0595
10210TIP3    H252122   3.096   0.727   0.500  0.8157  0.0356 -0.4625
10211TIP3   OH252123   0.440   3.948  14.409 -0.1448  0.3680 -0.1716
10211TIP3    H152124   0.365   4.008  14.409 -0.1029  0.4779  1.5708
10211TIP3    H252125   0.496   3.980  14.339 -0.2020  2.3090  0.5865
10212TIP3   OH252126   4.652   3.473   6.217  0.2777  0.5759 -0.2871
10212TIP3    H152127   4.598   3.552   6.210 -0.9881 -0.2819 -0.4206
10212TIP3    H252128   4.593   3.405   6.247  1.1177 -0.5652 -1.1033
10213TIP3   OH252129   1.813   2.442  13.725 -0.4166  0.3382  0.2574
10213TIP3    H152130   1.817   2.432  13.630  1.5809  1.0224  0.2139
10213TIP3    H252131   1.795   2.354  13.759  2.1855 -0.6248 -0.6434
10214TIP3   OH252132   1.234   0.813  12.051 -0.2924  0.1687  0.7390
10214TIP3    H152133   1.322   0.851  12.057 -0.3511  0.4060  0.1158
10214TIP3    H252134   1.231   0.750  12.123  0.7906 -0.6362  0.1104
10215TIP3   OH252135   1.465   4.753  12.416 -0.1654 -0.0770  0.2516
10215TIP3    H152136   1.534   4.696  12.450  1.2689  1.0193 -0.7041
10215TIP3    H252137   1.431   4.708  12.339  0.1597 -0.1894  0.1730
10216TIP3   OH252138   4.673   4.004  11.623 -0.0698 -0.5624  0.5622
10216TIP3    H152139   4.718   3.944  11.682  0.1958 -0.8575  0.0588
10216TIP3    H252140   4.738   4.072  11.603  0.1618 -0.9849 -0.1577
10217TIP3   OH252141   0.978   5.803  12.620  0.2166  0.1177  0.1716
10217TIP3    H152142   0.918   5.732  12.599 -0.2200  0.8561 -1.1653
10217TIP3    H252143   0.928   5.860  12.679 -0.0856  0.2800 -0.2431
10218TIP3   OH252144   4.348   2.665  11.740 -0.0667 -0.0777 -0.4331
10218TIP3    H152145   4.291   2.689  11.666  0.0880  0.7368 -0.2987
10218TIP3    H252146   4.426   2.629  11.700 -0.3704 -0.5217 -0.6389
10219TIP3   OH252147   3.012   6.734  15.873 -0.1655 -0.0890  0.3058
10219TIP3    H152148   3.067   6.761  15.799  0.8289  0.9947  1.3901
10219TIP3    H252149   3.074   6.695  15.935 -0.6123  1.0392  1.5030
10220TIP3   OH252150   5.039   4.467  11.726 -0.2479  0.5950  0.1288
10220TIP3    H152151   4.990   4.401  11.775 -0.1409 -0.3549 -0.9920
10220TIP3    H252152   5.122   4.475  11.774 -0.4721  0.3102  0.5786
10221TIP3   OH252153   3.547   1.119  15.006 -0.4917 -0.5220 -0.5808
10221TIP3    H152154   3.476   1.085  15.059  0.5535 -0.0520  1.1960
10221TIP3    H252155   3.517   1.205  14.977  0.6156  1.3645  3.2248
10222TIP3   OH252156   5.739   1.925  13.045 -0.0821  0.1877  0.4070
10222TIP3    H152157   5.743   1.951  13.137  0.4745  2.2103 -0.1358
10222TIP3    H252158   5.825   1.886  13.028 -0.5736 -1.2248  0.9814
10223TIP3   OH252159   0.847   4.383   4.660  0.2767 -0.0450  0.9882
10223TIP3    H152160   0.887   4.411   4.578 -2.5348  3.1388  0.4798
10223TIP3    H252161   0.800   4.302   4.637  0.3981  0.2242 -0.2705
10224TIP3   OH252162   1.549   0.492  13.808 -0.2777  0.0925  0.0512
10224TIP3    H152163   1.461   0.454  13.804 -0.1461 -0.2064 -0.0459
10224TIP3    H252164   1.581   0.487  13.718  0.0200 -0.2370  0.1746
10225TIP3   OH252165   6.217   5.447  16.758 -0.5288  0.6008  0.4750
10225TIP3    H152166   6.124   5.444  16.735 -0.7019  1.3882  1.0246
10225TIP3    H252167   6.262   5.439  16.674 -1.1386  2.2923 -0.0657
10226TIP3   OH252168   2.150   1.499  12.913  0.3886  0.3700  0.2524
10226TIP3    H152169   2.209   1.431  12.945  0.9513  0.0992 -1.2722
10226TIP3    H252170   2.181   1.518  12.824 -0.7470  1.4832  0.0613
10227TIP3   OH252171   0.668   6.360   2.755  0.6676  0.1435 -0.4348
10227TIP3    H152172   0.634   6.282   2.798  0.2142  2.3947  3.9033
10227TIP3    H252173   0.590   6.405   2.721  0.4908  0.3222  0.1893
10228TIP3   OH252174   2.402   5.517  15.243  0.3787 -0.3729 -0.4710
10228TIP3    H152175   2.356   5.550  15.165 -0.3624  0.1233  0.1627
10228TIP3    H252176   2.354   5.554  15.317  0.5335 -1.5570  0.2527
10229TIP3   OH252177   4.554   4.876  13.548  0.2921 -0.6166  0.1289
10229TIP3    H152178   4.535   4.828  13.468 -1.0360 -1.4703  0.9162
10229TIP3    H252179   4.471   4.879  13.595  0.3676  2.2933  0.2406
10230TIP3   OH252180   1.391   2.208   5.774  0.5003 -0.2067 -0.6362
10230TIP3    H152181   1.485   2.190   5.772  0.3084 -1.2771 -2.8130
10230TIP3    H252182   1.373   2.229   5.865  2.6947 -0.8008  0.0030
10231TIP3   OH252183   0.267   2.343   0.011 -0.1657  0.1397  0.0009
10231TIP3    H152184   0.299   2.264   0.056  0.4416 -0.8311 -1.9880
10231TIP3    H252185   0.172   2.336   0.017 -0.1080 -0.1240  0.8406
10232TIP3   OH252186   1.715   3.100   1.399  0.2249  0.1892 -0.2308
10232TIP3    H152187   1.686   3.177   1.448  0.1906  1.3805 -1.9988
10232TIP3    H252188   1.810   3.096   1.414  0.0435 -0.2153  0.8894
10233TIP3   OH252189   0.091   0.243   5.590 -0.3872  0.1071 -0.2012
10233TIP3    H152190   0.144   0.163   5.599  1.9580  1.7694  2.9423
10233TIP3    H252191   0.124   0.284   5.510 -0.8053 -1.4360 -1.2172
10234TIP3   OH252192   4.661   6.112  14.857 -0.8537 -0.3514 -0.2110
10234TIP3    H152193   4.641   6.021  14.880 -2.7956 -0.0280 -0.4236
10234TIP3    H252194   4.604   6.164  14.914 -2.3143  0.5985 -2.4108
10235TIP3   OH252195   4.532   3.243   6.253 -0.1701  0.5299  0.4603
10235TIP3    H152196   4.572   3.180   6.314 -0.3559 -0.0780 -0.0415
10235TIP3    H252197   4.442   3.251   6.283 -0.3145  0.0814  0.1495
10236TIP3   OH252198   5.900   3.179  16.346  0.3717 -0.2898  0.0260
10236TIP3    H152199   5.857   3.146  16.267 -0.2078 -1.1566  0.6774
10236TIP3    H252200   5.993   3.163  16.331  0.4259  0.9404 -1.1011
10237TIP3   OH252201   1.092   2.812   6.431  0.0959  0.0718 -0.4412
10237TIP3    H152202   1.142   2.800   6.511 -1.7716 -0.6864  0.6738
10237TIP3    H252203   1.098   2.728   6.386  0.8915  0.4020 -0.9770
10238TIP3   OH252204   5.720   3.062   2.785 -0.5482  0.1112 -1.0426
10238TIP3    H152205   5.752   2.989   2.838 -0.5779 -0.4569 -1.7865
10238TIP3    H252206   5.639   3.089   2.829  1.0898  1.8735  1.1302
10239TIP3   OH252207   0.863   5.659  12.021 -0.4754 -0.1822 -0.5069
10239TIP3    H152208   0.790   5.720  12.028 -0.7044 -0.4170 -0.7775
10239TIP3    H252209   0.900   5.676  11.935 -0.4139 -0.2856 -0.5012
10240TIP3   OH252210   1.641   5.406  12.232  0.3899  0.1296 -0.1162
10240TIP3    H152211   1.589   5.486  12.240 -1.0012 -0.8827  1.9431
10240TIP3    H252212   1.729   5.431  12.260  0.3903  1.2831 -1.0991
10241TIP3   OH252213   5.247   2.475  13.078 -0.4375 -0.2653  0.3821
10241TIP3    H152214   5.157   2.505  13.076 -0.4100 -0.0037  1.8879
10241TIP3    H252215   5.241   2.381  13.095 -0.4328 -0.5500 -1.0182
10242TIP3   OH252216   0.256   4.080  13.895 -0.3984 -0.0943  0.0289
10242TIP3    H152217   0.251   4.139  13.970 -0.3202  0.6419 -0.5309
10242TIP3    H252218   0.168   4.079  13.858 -0.4567 -0.5181  0.1744
10243TIP3   OH252219   0.082   1.204   4.471 -0.5616 -0.0185  0.3513
10243TIP3    H152220   0.014   1.145   4.501 -0.9562  0.2899  0.0740
10243TIP3    H252221   0.124   1.157   4.399 -1.5748  0.4616 -0.5793
10244TIP3   OH252222   2.013   5.827  11.468  0.1770 -0.1123  0.0837
10244TIP3    H152223   2.073   5.753  11.454  1.7124  0.9884  0.5406
10244TIP3    H252224   2.064   5.903  11.441 -0.8746  0.9085  0.9268
10245TIP3   OH252225   2.855   0.271   4.173 -0.3354 -0.0342  0.2320
10245TIP3    H152226   2.813   0.278   4.259 -1.6279 -0.6831 -0.3246
10245TIP3    H252227   2.839   0.356   4.132 -2.9299 -0.9002 -0.7406
10246TIP3   OH252228   2.413   2.395  14.875  0.5317  0.1600  0.1184
10246TIP3    H152229   2.411   2.351  14.960 -0.0685  1.7794  0.9860
10246TIP3    H252230   2.485   2.457  14.881 -0.4874  1.4078  0.0703
10247TIP3   OH252231   1.385   2.014   3.764  0.1550 -0.4493  0.1434
10247TIP3    H152232   1.461   1.959   3.784 -0.8285 -1.9511 -0.0099
10247TIP3    H252233   1.406   2.100   3.800  1.4944 -1.1038  0.9864
10248TIP3   OH252234   0.355   2.421  12.470  0.0143 -0.2128  0.2152
10248TIP3    H152235   0.374   2.378  12.387  0.0025 -0.2482  0.2309
10248TIP3    H252236   0.388   2.511  12.458 -1.0964  0.1524 -0.2766
10249TIP3   OH252237   4.349   4.492   2.410 -0.0305 -0.0510 -0.0045
10249TIP3    H152238   4.297   4.416   2.388 -1.5134  0.7055  0.7561
10249TIP3    H252239   4.332   4.554   2.339 -1.5708  0.8387  1.0871
10250TIP3   OH252240   6.644   3.645  14.525  0.3607  0.5931  0.3188
10250TIP3    H152241   6.616   3.693  14.602  0.6495 -0.7293  1.2920
10250TIP3    H252242   6.737   3.625  14.542 -0.2647 -2.1305  1.0063
10251TIP3   OH252243   1.200   0.869   3.095  0.6951  0.1167 -0.0037
10251TIP3    H152244   1.162   0.906   3.174 -1.2994 -0.8610 -0.4367
10251TIP3    H252245   1.181   0.934   3.027 -1.3902 -0.8919 -0.4540
10252TIP3   OH252246   2.984   2.917  11.353  0.1569  0.3764  0.4887
10252TIP3    H152247   2.977   2.824  11.335  1.2688  0.5877 -1.2276
10252TIP3    H252248   2.984   2.959  11.267  0.7730  1.8850  1.1799
10253TIP3   OH252249   2.512   0.059   2.377  0.0295  0.4316 -0.2819
10253TIP3    H152250   2.565   0.111   2.437  0.1601 -0.3975  0.3450
10253TIP3    H252251   2.552  -0.028   2.378 -1.0400 -0.0833 -0.1718
10254TIP3   OH252252   2.921   0.843  14.184 -0.0011 -0.2144  0.1822
10254TIP3    H152253   2.844   0.899  14.174  1.0614  1.3884  0.4345
10254TIP3    H252254   2.949   0.858  14.274  0.7635 -0.5427  0.0028
10255TIP3   OH252255   1.736   2.899  11.795  0.5419  0.0111 -0.7218
10255TIP3    H152256   1.811   2.872  11.848  0.9612 -1.8491 -2.1372
10255TIP3    H252257   1.773   2.958  11.729  0.6777 -0.4154 -1.0356
10256TIP3   OH252258   5.654   2.376   7.073  0.3650  0.3558 -0.0587
10256TIP3    H152259   5.692   2.328   6.999  0.1580 -0.8213  0.5728
10256TIP3    H252260   5.561   2.358   7.068  0.3989 -0.1134  0.7360
10257TIP3   OH252261   3.095   3.587   4.156  0.0050 -0.3385 -0.2282
10257TIP3    H152262   3.131   3.546   4.235  2.5138  1.6894 -0.1876
10257TIP3    H252263   3.151   3.554   4.085 -0.0754  0.4524 -0.6666
10258TIP3   OH252264   1.878   6.680   3.921 -0.1334 -0.0483 -0.1022
10258TIP3    H152265   1.927   6.639   3.993 -1.2934  0.1320  0.8162
10258TIP3    H252266   1.794   6.634   3.920 -0.7238  1.0175 -0.3164
10259TIP3   OH252267   6.416   2.312  13.342  0.7554 -0.2666 -0.1206
10259TIP3    H152268   6.364   2.233  13.350  0.4032  0.1134  1.9735
10259TIP3    H252269   6.497   2.292  13.390  1.5674 -0.0648 -1.3767
10260TIP3   OH252270   0.727   2.689  10.866 -0.0066  0.0305 -0.1818
10260TIP3    H152271   0.724   2.597  10.837 -0.9905 -0.1287  0.3692
10260TIP3    H252272   0.693   2.739  10.792  1.2965  0.0607 -0.7982
10261TIP3   OH252273   5.257   5.091   0.542 -0.1773  0.2261 -0.0566
10261TIP3    H152274   5.349   5.079   0.520 -0.1024  1.1777 -0.2943
10261TIP3    H252275   5.211   5.027   0.487  0.3183 -0.0814 -0.1176
10262TIP3   OH252276   2.450   4.610  11.237  0.1242 -0.2695  0.2492
10262TIP3    H152277   2.491   4.563  11.164  0.9989 -0.6786  0.9821
10262TIP3    H252278   2.473   4.702  11.223  0.7585 -0.4150  0.2930
10263TIP3   OH252279   5.632   0.002   3.971 -0.6386 -0.3042 -0.3967
10263TIP3    H152280   5.557  -0.059   3.968 -0.8533 -0.1952  1.4851
10263TIP3    H252281   5.708  -0.054   3.958 -0.9988 -0.4694 -1.9888
10264TIP3   OH252282   1.846   6.668   0.609 -0.6671  0.0832  0.1390
10264TIP3    H152283   1.766   6.657   0.558  0.0516  1.1277 -1.2753
10264TIP3    H252284   1.840   6.756   0.645  0.5316  0.8054 -1.3163
10265TIP3   OH252285   0.330   3.798  16.860 -0.1681  0.4029  0.3534
10265TIP3    H152286   0.320   3.703  16.867 -1.2296  0.1130 -3.0982
10265TIP3    H252287   0.400   3.819  16.922  0.3558 -2.6537  0.9986
10266TIP3   OH252288   4.523   4.673   4.220  0.0929  0.2740  0.2752
10266TIP3    H152289   4.460   4.605   4.245  0.4473 -0.3141 -0.3891
10266TIP3    H252290   4.521   4.673   4.124  0.1331  1.1809  0.2630
10267TIP3   OH252291   0.851   3.090  12.470 -0.2368 -0.1696  0.1540
10267TIP3    H152292   0.852   3.002  12.432 -1.7588 -0.4545  0.7245
10267TIP3    H252293   0.761   3.120  12.460 -0.5015  0.0946  2.6671
10268TIP3   OH252294   5.735   2.490  12.211  0.7930  0.2269  0.2851
10268TIP3    H152295   5.695   2.419  12.260  1.0000 -0.8851 -1.0960
10268TIP3    H252296   5.676   2.503  12.136  2.4234 -0.7640 -1.2410
10269TIP3   OH252297   2.556   3.583  16.681 -0.1980 -0.3265  0.3719
10269TIP3    H152298   2.502   3.661  16.671  2.8079  1.7364 -1.9453
10269TIP3    H252299   2.593   3.591  16.768 -0.5329  0.4404  0.4582
10270TIP3   OH252300   4.754   6.641   4.433  0.2953  0.4192 -0.0110
10270TIP3    H152301   4.687   6.592   4.480 -0.7303  1.2108 -0.5771
10270TIP3    H252302   4.780   6.583   4.361  2.3115 -1.0416  1.7863
10271TIP3   OH252303   3.583   6.489   2.491 -0.0689  0.3672 -0.2495
10271TIP3    H152304   3.613   6.412   2.539  0.1149  0.8722  0.4590
10271TIP3    H252305   3.489   6.493   2.509  0.4449  2.3634  2.8141
10272TIP3   OH252306   4.423   3.080  16.760  0.4860  0.6322 -0.1080
10272TIP3    H152307   4.393   2.999  16.800 -0.4025  0.7292 -0.5560
10272TIP3    H252308   4.353   3.105  16.700  0.4736  2.0509  0.4579
10273TIP3   OH252309   0.689   6.211  14.119 -0.2588  0.1640  0.6560
10273TIP3    H152310   0.730   6.237  14.202 -0.6998 -0.4178  1.0626
10273TIP3    H252311   0.597   6.196  14.142 -0.1952 -0.8951  0.2571
10274TIP3   OH252312   4.441   2.749   4.720  0.3445 -0.1288  0.5055
10274TIP3    H152313   4.481   2.753   4.807  0.7588 -0.1101  0.3161
10274TIP3    H252314   4.511   2.774   4.660  0.1709 -0.5237  0.1328
10275TIP3   OH252315   0.632   3.299  12.287 -0.1251 -0.3658 -0.4694
10275TIP3    H152316   0.606   3.308  12.379  1.9685  2.1506  0.0144
10275TIP3    H252317   0.568   3.351  12.239 -0.4779 -0.6202 -0.2824
10276TIP3   OH252318   5.278   2.660   4.877 -0.5804 -0.5312  0.0407
10276TIP3    H152319   5.298   2.619   4.793 -1.2874  0.3044 -0.5561
10276TIP3    H252320   5.222   2.598   4.922  0.1508 -1.1729  0.0859
10277TIP3   OH252321   4.654   2.692  12.978 -0.0163  0.5662  0.2302
10277TIP3    H152322   4.715   2.738  13.035  2.0014 -1.6485  0.0204
10277TIP3    H252323   4.677   2.599  12.988 -2.2853 -0.2405 -1.1344
10278TIP3   OH252324   1.351   4.348  15.823  0.0339 -0.3635  0.2829
10278TIP3    H152325   1.260   4.374  15.810  0.1831 -0.7503 -1.9802
10278TIP3    H252326   1.368   4.283  15.754  1.4981 -1.7201  1.8175
10279TIP3   OH252327   4.899   0.311   3.137  0.0515  0.0490 -0.3248
10279TIP3    H152328   4.810   0.325   3.106 -0.2617  0.5046  0.7564
10279TIP3    H252329   4.952   0.374   3.087 -0.2036 -0.3114 -1.0582
10280TIP3   OH252330   6.014   1.146  12.571  0.0947  0.0606 -0.0153
10280TIP3    H152331   6.034   1.187  12.487  0.6306  1.1926  0.6246
10280TIP3    H252332   5.944   1.085  12.552  1.6343 -1.3129 -1.6798
10281TIP3   OH252333   5.922   0.575   2.028 -0.5392 -0.5986  0.5828
10281TIP3    H152334   5.875   0.498   1.996 -1.8178 -0.6209  2.4105
10281TIP3    H252335   5.922   0.635   1.954 -2.4652 -1.0578  0.1611
10282TIP3   OH252336   0.886   4.252  12.147  0.0524 -0.3386  0.4419
10282TIP3    H152337   0.943   4.204  12.087 -1.0185 -1.4777  0.2964
10282TIP3    H252338   0.843   4.184  12.198 -1.6720  0.4385  0.0891
10283TIP3   OH252339   6.665   4.611   5.764 -0.2237 -0.1412 -0.2968
10283TIP3    H152340   6.592   4.669   5.743 -0.1479  0.1203  0.1381
10283TIP3    H252341   6.647   4.531   5.715 -0.5860  0.0731 -0.5199
10284TIP3   OH252342   0.653   2.669   0.012 -0.6045 -0.2786 -0.0724
10284TIP3    H152343   0.603   2.697  -0.065 -0.3432  1.4872  0.3545
10284TIP3    H252344   0.590   2.675   0.084 -0.5883 -1.0093  0.0086
10285TIP3   OH252345   5.148   6.176   4.792 -0.2565  0.0073  0.5601
10285TIP3    H152346   5.160   6.261   4.835 -0.0474 -0.1756  0.8708
10285TIP3    H252347   5.122   6.117   4.863 -0.5287 -0.1608  0.3239
10286TIP3   OH252348   1.568   0.585  15.725 -0.1308 -0.0639  0.0482
10286TIP3    H152349   1.514   0.631  15.661 -1.3504 -2.1646 -0.4879
10286TIP3    H252350   1.657   0.589  15.689 -0.9835 -2.4358 -2.6000
10287TIP3   OH252351   4.528   4.839   3.060 -0.1932  0.1050  0.4601
10287TIP3    H152352   4.613   4.862   3.023 -0.4047  1.3742  0.7022
10287TIP3    H252353   4.538   4.854   3.154 -1.1091  1.7906  0.3281
10288TIP3   OH252354   0.737   4.336  16.997 -0.4677  0.1038  0.0990
10288TIP3    H152355   0.735   4.312  16.905  2.1753  1.0895 -0.3006
10288TIP3    H252356   0.783   4.420  16.999 -0.3191  0.0257  2.3216
10289TIP3   OH252357   4.741   3.181  11.740 -0.0847 -0.7411 -0.0011
10289TIP3    H152358   4.786   3.100  11.762 -0.3713 -1.0992 -0.7302
10289TIP3    H252359   4.731   3.179  11.645  1.3522  0.9078 -0.2524
10290TIP3   OH252360   6.603   0.295  13.542  0.0567  0.1665  0.5491
10290TIP3    H152361   6.524   0.332  13.581 -0.3136 -1.1437  1.1108
10290TIP3    H252362   6.647   0.250  13.615  0.5789 -0.3320 -0.0548
10291TIP3   OH252363   5.543   1.452   3.074 -0.1051 -0.0225 -0.0776
10291TIP3    H152364   5.629   1.413   3.092 -0.2644 -0.2467  0.2096
10291TIP3    H252365   5.514   1.411   2.993 -0.0677 -0.1619 -0.0208
10292TIP3   OH252366   4.167   1.028  10.400  0.3325  0.1166  0.5145
10292TIP3    H152367   4.201   1.103  10.448  0.8782  0.5965 -0.5865
10292TIP3    H252368   4.191   0.953  10.454  3.2369  0.4173 -0.1819
10293TIP3   OH252369   4.763   3.319  10.903 -0.1377  0.5648  0.0122
10293TIP3    H152370   4.838   3.379  10.901  0.0261  0.4251  1.3900
10293TIP3    H252371   4.730   3.320  10.813  1.6196  0.4883 -0.6798
10294TIP3   OH252372   3.822   1.617  10.770  0.4929  0.5122 -0.7646
10294TIP3    H152373   3.796   1.696  10.722 -0.2594  1.8427  1.6350
10294TIP3    H252374   3.918   1.620  10.770  0.5010  2.3294  0.5299
10295TIP3   OH252375   4.650   2.695  15.549  0.3725 -0.4281 -0.4921
10295TIP3    H152376   4.630   2.648  15.468  0.3940 -0.8575 -0.2508
10295TIP3    H252377   4.576   2.675  15.607  1.2657 -1.6780  0.2585
10296TIP3   OH252378   0.850   5.084  14.852  0.2932 -0.2426  0.0098
10296TIP3    H152379   0.777   5.118  14.799  0.0094 -1.7284 -0.6148
10296TIP3    H252380   0.881   5.160  14.902 -3.3627 -0.0496  2.3450
10297TIP3   OH252381   2.747   5.947  15.750 -0.2412  0.5110  0.1051
10297TIP3    H152382   2.758   5.852  15.749 -1.8989  0.2786 -0.4565
10297TIP3    H252383   2.678   5.963  15.684  1.1543  2.2707 -1.0090
10298TIP3   OH252384   2.235   5.536  12.533 -0.2555  0.3163  0.0591
10298TIP3    H152385   2.293   5.460  12.536  2.5098  2.2862  0.9589
10298TIP3    H252386   2.257   5.579  12.450  0.0354  1.3730  0.6618
10299TIP3   OH252387   3.024   5.801  14.369 -0.4172  0.1579 -0.0798
10299TIP3    H152388   2.960   5.836  14.431 -0.9059  1.6046 -1.3216
10299TIP3    H252389   2.972   5.770  14.296  0.2017 -0.6384 -0.1974
10300TIP3   OH252390   5.295   1.260   3.109 -0.3155  0.4640 -0.1807
10300TIP3    H152391   5.314   1.320   3.181 -1.5484 -0.3390  0.8462
10300TIP3    H252392   5.316   1.173   3.143  1.3319  0.2341 -1.6124
10301TIP3   OH252393   5.829   0.438  16.856  0.3037 -0.1547 -0.0575
10301TIP3    H152394   5.838   0.361  16.912  1.6653 -1.7513 -2.2666
10301TIP3    H252395   5.897   0.426  16.789  0.2057  2.7290 -0.8094
10302TIP3   OH252396   5.698   2.349  11.452 -0.0153 -0.3414 -0.4338
10302TIP3    H152397   5.656   2.283  11.398 -0.1133  0.2584 -1.1057
10302TIP3    H252398   5.638   2.423  11.451 -0.3613 -0.5614  1.0892
10303TIP3   OH252399   6.753   6.071   4.582 -0.3672 -0.0975  0.5678
10303TIP3    H152400   6.818   6.138   4.564 -0.7253 -0.2863 -1.7225
10303TIP3    H252401   6.801   6.002   4.627 -0.2454  2.1206  4.2147
10304TIP3   OH252402   0.513   0.463  12.000  0.3212 -0.3749  0.1977
10304TIP3    H152403   0.540   0.521  12.070  1.0003  0.1139 -0.4525
10304TIP3    H252404   0.441   0.412  12.037 -2.0375  2.6000  0.0299
10305TIP3   OH252405   5.557   2.165   4.058 -0.7919  0.2198 -0.4252
10305TIP3    H152406   5.617   2.234   4.088  1.1627 -1.2408 -0.7901
10305TIP3    H252407   5.534   2.191   3.969 -1.0301  0.9888 -0.1483
10306TIP3   OH252408   4.793   0.870  11.616  0.1851 -0.2071 -0.3130
10306TIP3    H152409   4.735   0.933  11.573  1.2913 -0.0915 -1.6848
10306TIP3    H252410   4.792   0.794  11.559  0.3120 -0.7418  0.3830
10307TIP3   OH252411   4.603   3.657  16.958  0.0804 -0.3974 -0.1986
10307TIP3    H152412   4.687   3.671  17.000  1.0133 -3.0412 -0.9886
10307TIP3    H252413   4.622   3.604  16.881 -2.1076  0.5698 -1.5295
10308TIP3   OH252414   2.446   1.253  16.615  0.2591 -0.0225  0.8174
10308TIP3    H152415   2.468   1.161  16.603  0.3663 -0.0607  1.2946
10308TIP3    H252416   2.354   1.253  16.641 -0.7950  0.2132 -2.4856
10309TIP3   OH252417   5.042   4.751  16.882 -0.4027  0.5250 -0.1000
10309TIP3    H152418   5.032   4.656  16.878 -1.7577  0.6329  0.2525
10309TIP3    H252419   5.133   4.764  16.910  0.0336 -0.6360 -0.9096
10310TIP3   OH252420   2.646   5.466  11.311 -0.1183  0.5060  0.2627
10310TIP3    H152421   2.732   5.473  11.271 -0.6157  1.0460 -0.7504
10310TIP3    H252422   2.646   5.380  11.353  0.4594 -0.0617 -0.8461
10311TIP3   OH252423   2.931   4.824  11.930 -0.1901  0.4490 -0.0477
10311TIP3    H152424   2.968   4.872  12.004 -0.2001  0.4974 -0.0737
10311TIP3    H252425   2.836   4.829  11.943 -0.1730 -0.0957  0.2820
10312TIP3   OH252426   1.132   4.943  14.838 -0.0111  0.1343 -0.3802
10312TIP3    H152427   1.162   4.960  14.748  0.9133  0.9674  0.0730
10312TIP3    H252428   1.047   4.986  14.843 -0.2033 -0.1647 -0.9373
10313TIP3   OH252429   5.743   3.933  15.105  0.1046 -0.8153  0.6403
10313TIP3    H152430   5.672   3.869  15.101 -0.9618  0.3549 -1.7122
10313TIP3    H252431   5.699   4.017  15.119  0.9069 -0.0046 -1.2576
10314TIP3   OH252432   6.017   5.648  10.882 -0.1554 -0.1045  0.5442
10314TIP3    H152433   5.977   5.713  10.823 -0.5542 -1.6448 -0.9643
10314TIP3    H252434   5.944   5.591  10.907 -0.0703  0.7137  2.8993
10315TIP3   OH252435   3.911   4.328  13.868  0.0859  0.5278  0.1649
10315TIP3    H152436   3.993   4.308  13.822 -0.6967 -2.1929 -0.2635
10315TIP3    H252437   3.924   4.291  13.955 -1.3502 -1.9282 -0.5599
10316TIP3   OH252438   1.964   4.944  14.302  0.0827 -0.2020  0.3728
10316TIP3    H152439   1.926   4.880  14.362 -1.4970  0.5121  0.1707
10316TIP3    H252440   1.945   4.910  14.214 -1.3889  0.8407  0.2498
10317TIP3   OH252441   2.536   1.925  12.807 -0.2483  0.0497 -0.3237
10317TIP3    H152442   2.468   1.990  12.823  0.5788  0.5278  1.4754
10317TIP3    H252443   2.488   1.844  12.790 -1.2606  0.6663 -0.5097
10318TIP3   OH252444   1.052   2.751  14.696  0.3620 -0.7734  0.2058
10318TIP3    H152445   1.125   2.809  14.676  0.4820 -1.0404 -0.1507
10318TIP3    H252446   1.083   2.696  14.767  0.4685 -0.8064  0.1339
10319TIP3   OH252447   1.527   0.162   2.788  0.8359 -0.0166  0.1543
10319TIP3    H152448   1.492   0.243   2.826  0.2299  0.3423 -1.0980
10319TIP3    H252449   1.458   0.097   2.803  0.5026  0.1776 -0.4721
10320TIP3   OH252450   0.354   3.657   5.797  0.0305  0.1191 -0.0498
10320TIP3    H152451   0.258   3.660   5.800  0.0608  1.2270  0.8408
10320TIP3    H252452   0.381   3.732   5.850  1.4090 -1.0402  0.9510
10321TIP3   OH252453   4.896   3.441  17.193 -1.0879 -0.4943  0.1392
10321TIP3    H152454   4.820   3.413  17.143 -1.2843  1.5307 -0.8047
10321TIP3    H252455   4.860   3.476  17.274 -0.8374 -2.8872  1.3558
10322TIP3   OH252456   3.569   4.066  12.081 -0.1170  0.7967 -1.0835
10322TIP3    H152457   3.562   4.003  12.010  0.9581 -0.1906 -0.3378
10322TIP3    H252458   3.479   4.097  12.094 -1.1998 -2.4698  0.1931
10323TIP3   OH252459   4.441   2.790  11.954  0.1962  0.0503 -0.4603
10323TIP3    H152460   4.395   2.730  11.896 -0.9897  0.5493 -0.0608
10323TIP3    H252461   4.524   2.808  11.908 -0.3396 -0.2266 -1.5782
10324TIP3   OH252462   6.556   6.510   4.920 -0.4473 -0.1827 -0.0595
10324TIP3    H152463   6.480   6.567   4.933  1.3514  2.6618 -1.0861
10324TIP3    H252464   6.579   6.521   4.827  0.0906 -2.5768 -0.2883
10325TIP3   OH252465   6.425   1.409  12.632  0.5557  0.5140  0.1970
10325TIP3    H152466   6.475   1.420  12.713  1.1572  0.3806 -0.1512
10325TIP3    H252467   6.476   1.455  12.565  0.6038 -0.2370 -0.3035
10326TIP3   OH252468   0.014   3.667   3.268 -0.2046  0.0721  0.0419
10326TIP3    H152469   0.089   3.609   3.253 -1.9519 -1.8850 -1.8621
10326TIP3    H252470   0.046   3.753   3.243  0.9336 -1.0226 -2.7789
10327TIP3   OH252471   1.338   3.361  13.248 -0.1012  0.2201  0.0361
10327TIP3    H152472   1.260   3.329  13.294  0.1947 -0.1705  0.2752
10327TIP3    H252473   1.326   3.456  13.245  0.9876  0.5836  3.0714
10328TIP3   OH252474   4.016   4.742  15.433  0.0024 -0.1044  0.0120
10328TIP3    H152475   4.092   4.686  15.420 -0.3635 -0.7929  0.7463
10328TIP3    H252476   3.982   4.717  15.519 -0.5830  0.7565  0.0437
10329TIP3   OH252477   6.538   2.812  13.051 -0.2986 -0.5010 -1.3974
10329TIP3    H152478   6.546   2.894  13.101  1.5706 -1.6173  0.2699
10329TIP3    H252479   6.447   2.784  13.066  0.0930 -0.6061  1.1940
10330TIP3   OH252480   6.230   4.348   3.652  0.0727  0.1553 -0.0185
10330TIP3    H152481   6.206   4.351   3.744  1.0647  1.0097  0.2369
10330TIP3    H252482   6.314   4.394   3.647  0.5578 -0.7801 -1.1931
10331TIP3   OH252483   4.466   1.122  12.715 -0.0470  0.0638 -0.6662
10331TIP3    H152484   4.390   1.125  12.774  1.4901  0.3415  1.3965
10331TIP3    H252485   4.497   1.212  12.711  1.6640 -0.4213  0.6051
10332TIP3   OH252486   0.151   2.533  12.658  0.0726  0.5487 -0.3817
10332TIP3    H152487   0.164   2.469  12.588 -2.7457 -1.8282  1.0416
10332TIP3    H252488   0.079   2.588  12.627  0.6465  1.3095 -0.4171
10333TIP3   OH252489   5.966   2.519   1.119 -0.4647 -0.0340 -0.3103
10333TIP3    H152490   6.037   2.584   1.119  1.4883 -1.9940  1.0888
10333TIP3    H252491   5.889   2.568   1.146  0.5030  2.0532 -1.1064
10334TIP3   OH252492   6.268   5.269  15.092  0.3073 -0.6265 -0.4207
10334TIP3    H152493   6.349   5.321  15.094  0.1945 -0.4584 -0.1822
10334TIP3    H252494   6.288   5.193  15.147 -0.7773  1.0305  2.4572
10335TIP3   OH252495   5.347   6.444   0.355 -0.2423  0.3099  0.0631
10335TIP3    H152496   5.341   6.349   0.345  2.0518 -0.0902  1.7465
10335TIP3    H252497   5.415   6.470   0.293  0.4545  0.5713  0.9272
10336TIP3   OH252498   6.681   6.808   4.573 -0.2002  0.1883 -0.8605
10336TIP3    H152499   6.682   6.828   4.479 -1.7609  1.5255 -0.6344
10336TIP3    H252500   6.746   6.867   4.611 -1.3054  1.4388 -0.8288
10337TIP3   OH252501   2.671   1.178   5.233  0.3107  0.0097  0.8152
10337TIP3    H152502   2.587   1.218   5.211  1.5842  1.7281 -1.3859
10337TIP3    H252503   2.663   1.087   5.205 -0.6643  0.2886  0.1616
10338TIP3   OH252504   0.492   6.417  11.909 -0.3790  0.1061  0.6695
10338TIP3    H152505   0.533   6.393  11.992  0.6133  2.2626  0.8821
10338TIP3    H252506   0.563   6.409  11.845  0.1493  2.7175  0.8327
10339TIP3   OH252507   3.121   6.443   1.508  0.4033  0.0260 -0.6707
10339TIP3    H152508   3.186   6.381   1.541  0.4325 -0.4645 -1.6059
10339TIP3    H252509   3.097   6.496   1.584  0.7108 -0.8412  0.0468
10340TIP3   OH252510   0.800   0.052   6.408 -0.2413 -0.4386  0.2722
10340TIP3    H152511   0.774  -0.039   6.421 -1.6452 -0.1513 -0.3314
10340TIP3    H252512   0.738   0.103   6.461 -0.2353  0.2151 -0.3262
10341TIP3   OH252513   0.828   5.982   6.204 -0.4740  0.4965  0.0430
10341TIP3    H152514   0.775   6.055   6.238  0.4367  0.3625  1.8899
10341TIP3    H252515   0.916   6.000   6.237  0.3273 -0.0982 -1.6760
10342TIP3   OH252516   5.186   5.754   4.262 -0.2068 -0.4930 -0.5992
10342TIP3    H152517   5.130   5.811   4.210 -0.4341 -1.1669 -1.1128
10342TIP3    H252518   5.131   5.726   4.335  0.0811  0.3749 -0.0378
10343TIP3   OH252519   0.446   2.191  12.658 -0.5211 -0.1829 -0.2638
10343TIP3    H152520   0.468   2.141  12.736 -1.6458  0.1128  0.2562
10343TIP3    H252521   0.429   2.124  12.591 -0.8860 -0.4741  0.1146
10344TIP3   OH252522   6.742   1.614  13.556 -0.1797 -0.2361 -0.4352
10344TIP3    H152523   6.735   1.709  13.550 -2.1179 -0.3337 -0.3509
10344TIP3    H252524   6.660   1.586  13.596  0.2906 -1.9766 -0.5738
10345TIP3   OH252525   2.636   4.339   1.831 -0.4128 -0.3484  0.0729
10345TIP3    H152526   2.615   4.423   1.788 -0.8116  0.0128  0.9499
10345TIP3    H252527   2.603   4.350   1.920  0.0881 -1.2221  0.3641
10346TIP3   OH252528   4.788   5.058  17.112 -0.0567 -0.8556 -1.2286
10346TIP3    H152529   4.837   5.011  17.180 -0.0159 -0.7740 -1.2015
10346TIP3    H252530   4.834   5.142  17.103 -0.7184 -0.4030 -0.5575
10347TIP3   OH252531   5.559   2.659  16.723  0.0967 -0.3590 -0.3002
10347TIP3    H152532   5.502   2.624  16.791  0.3918  0.2409  0.2712
10347TIP3    H252533   5.570   2.751  16.746  1.0133 -0.3842 -0.5888
10348TIP3   OH252534   2.264   0.827  10.771 -0.3994 -0.1529  0.1425
10348TIP3    H152535   2.263   0.762  10.700  0.2590 -1.7917  1.5404
10348TIP3    H252536   2.182   0.811  10.818  0.9925 -1.9870  2.1258
10349TIP3   OH252537   4.373   0.874  14.490 -0.1866 -0.4794  0.4071
10349TIP3    H152538   4.446   0.907  14.541 -2.4275  1.9540  2.3331
10349TIP3    H252539   4.315   0.833  14.554 -1.7392  0.0775 -0.5856
10350TIP3   OH252540   6.401   6.590   3.474  0.5595  0.7548 -0.3500
10350TIP3    H152541   6.376   6.673   3.516 -1.1433  1.1433 -2.0139
10350TIP3    H252542   6.352   6.588   3.392  0.9782 -1.6658 -0.6301
10351TIP3   OH252543   2.838   0.940  10.823  0.7335  0.1679  0.3949
10351TIP3    H152544   2.757   0.939  10.874 -0.6421  1.6656 -1.5840
10351TIP3    H252545   2.885   1.018  10.854 -0.2524  1.2638 -0.7343
10352TIP3   OH252546   2.695   0.974   2.027 -0.2729  0.4564 -0.3180
10352TIP3    H152547   2.687   1.047   2.089 -1.0627 -1.6660  2.2801
10352TIP3    H252548   2.779   0.934   2.048 -0.1575  0.1921 -1.2451
10353TIP3   OH252549   0.950   1.588  14.529 -0.1744 -0.6861 -0.3956
10353TIP3    H152550   0.901   1.663  14.494  1.2785  1.3296  1.5586
10353TIP3    H252551   0.893   1.551  14.596  0.2706  0.6904  0.8038
10354TIP3   OH252552   6.310   3.449  13.447  0.0367  0.0845 -0.3805
10354TIP3    H152553   6.226   3.407  13.467 -0.7328  1.2280 -1.0855
10354TIP3    H252554   6.347   3.472  13.532 -0.1238 -0.8826 -0.0432
10355TIP3   OH252555   4.757   0.392  12.753  0.2704  0.3834  0.2363
10355TIP3    H152556   4.763   0.442  12.835 -0.0219  0.8532 -0.0246
10355TIP3    H252557   4.672   0.416  12.717  0.8280  0.9756 -0.7080
10356TIP3   OH252558   3.312   1.607  13.790  0.1603 -0.7296 -0.0268
10356TIP3    H152559   3.231   1.635  13.832 -0.6432  0.1070 -2.0420
10356TIP3    H252560   3.288   1.528  13.741  1.3734 -2.4487  1.9657
10357TIP3   OH252561   4.974   3.940   1.748  0.3783 -0.7484 -0.2612
10357TIP3    H152562   4.891   3.964   1.707  0.3614 -3.2667 -1.9094
10357TIP3    H252563   5.037   3.938   1.675  1.3936 -1.0342  0.5965
10358TIP3   OH252564   6.398   6.757  11.695  0.1133  0.4247 -0.0351
10358TIP3    H152565   6.367   6.791  11.779  0.9457 -0.6265  0.7289
10358TIP3    H252566   6.429   6.834  11.648 -1.8368  1.2494 -0.0600
10359TIP3   OH252567   3.478   3.891   2.526  0.4850  0.5191 -0.3842
10359TIP3    H152568   3.453   3.822   2.464 -1.1906  2.2952 -1.8032
10359TIP3    H252569   3.560   3.927   2.490  1.4435 -0.7656  0.4401
10360TIP3   OH252570   3.097   6.033  16.889  0.1239  0.4815  0.0534
10360TIP3    H152571   3.156   6.095  16.933  2.2777 -1.6302  0.2896
10360TIP3    H252572   3.021   6.028  16.947  1.0676  0.9389  1.3832
10361TIP3   OH252573   4.693   5.055   0.366 -0.4739 -0.7267 -0.0373
10361TIP3    H152574   4.637   5.131   0.381  0.5533 -0.2180  1.4931
10361TIP3    H252575   4.652   5.009   0.293 -2.9416 -0.4248  1.0467
10362TIP3   OH252576   4.242   3.806   6.320 -0.3843 -0.0294  0.2605
10362TIP3    H152577   4.253   3.722   6.277  0.0802  1.3991 -2.6933
10362TIP3    H252578   4.159   3.840   6.285  0.4493  1.5695 -0.2983
10363TIP3   OH252579   1.211   6.362  15.135  0.0417 -0.1554  0.0941
10363TIP3    H152580   1.272   6.422  15.093  0.4645  0.6958  1.8372
10363TIP3    H252581   1.173   6.413  15.206 -4.0323 -0.0574 -1.8610
10364TIP3   OH252582   6.122   5.699  11.219 -0.6927  0.6672 -0.0490
10364TIP3    H152583   6.026   5.701  11.211 -0.6915  1.2780  0.0151
10364TIP3    H252584   6.142   5.610  11.247 -1.0958 -0.0845 -1.9495
10365TIP3   OH252585   1.741   1.190  13.526 -0.0797  0.4127 -0.7732
10365TIP3    H152586   1.695   1.110  13.550  0.7430 -0.4586 -1.9481
10365TIP3    H252587   1.751   1.238  13.608 -0.8173 -0.5690 -0.0893
10366TIP3   OH252588   1.803   0.188  10.255 -0.7928 -0.1633  0.2555
10366TIP3    H152589   1.799   0.266  10.310  0.2089 -0.3405  0.6088
10366TIP3    H252590   1.728   0.196  10.196 -1.0150  0.7868  0.6459
10367TIP3   OH252591   1.686   0.712  15.953 -0.3925  0.0105  0.0107
10367TIP3    H152592   1.636   0.679  15.878  1.7401 -2.6150 -0.3664
10367TIP3    H252593   1.619   0.750  16.010 -2.3770 -0.1418 -2.0528
10368TIP3   OH252594   2.237   0.920  15.975 -0.5229  0.0831 -0.4047
10368TIP3    H152595   2.248   0.971  15.895 -0.6927 -0.5066 -0.8090
10368TIP3    H252596   2.257   0.830  15.949  2.0683  0.2096  0.8003
10369TIP3   OH252597   4.421   1.765   1.795  0.3385  0.2360  0.1834
10369TIP3    H152598   4.352   1.800   1.739 -1.3662 -3.9372 -0.7226
10369TIP3    H252599   4.379   1.754   1.881  0.9586  0.7392  0.5598
10370TIP3   OH252600   6.202   6.573  11.589  0.6346  0.1160 -0.1355
10370TIP3    H152601   6.232   6.559  11.500 -0.4854  1.3592 -0.7507
10370TIP3    H252602   6.254   6.646  11.621  2.3489 -1.4916  0.9510
10371TIP3   OH252603   3.546   5.712   5.273  0.0448 -0.1306  0.3348
10371TIP3    H152604   3.624   5.734   5.324 -0.1248 -0.1388  0.6011
10371TIP3    H252605   3.482   5.685   5.338 -1.0312  2.2903  0.3741
10372TIP3   OH252606   3.048   3.033   4.352 -0.1954  0.1902 -0.3072
10372TIP3    H152607   3.051   3.074   4.266  0.0926 -0.1109 -0.4432
10372TIP3    H252608   3.139   3.019   4.375 -0.2982 -0.9683 -0.5512
10373TIP3   OH252609   1.148   1.903  13.977 -0.1604  0.1942  0.1351
10373TIP3    H152610   1.090   1.869  13.909  1.1263 -0.1298 -0.8330
10373TIP3    H252611   1.115   1.992  13.994  0.9468  1.2665 -2.7275
10374TIP3   OH252612   0.655   0.260  11.373 -0.2962 -0.0429  0.4000
10374TIP3    H152613   0.596   0.334  11.384 -0.1074  0.1246  0.3063
10374TIP3    H252614   0.605   0.184  11.402  0.2312  0.3754  2.5854
10375TIP3   OH252615   4.567   2.037   4.700 -0.2534 -0.1522  0.0511
10375TIP3    H152616   4.541   2.027   4.608  0.4944  0.0055 -0.1802
10375TIP3    H252617   4.655   2.000   4.704 -0.2928 -0.1811  0.7134
10376TIP3   OH252618   1.879   1.458   2.210 -0.6375  0.3690 -0.9834
10376TIP3    H152619   1.920   1.374   2.188 -1.1357 -0.4130  0.8669
10376TIP3    H252620   1.788   1.448   2.181 -0.2476  1.0690 -2.5772
10377TIP3   OH252621   4.281   0.628   0.322  0.4192  0.4276  0.4338
10377TIP3    H152622   4.329   0.710   0.330  0.5175  0.2082  2.6112
10377TIP3    H252623   4.244   0.631   0.234  1.5645  2.1563 -0.0445
10378TIP3   OH252624   3.558   0.332  15.211  0.0730 -0.4132  0.5195
10378TIP3    H152625   3.547   0.322  15.116  1.6503 -1.2303  0.4062
10378TIP3    H252626   3.539   0.425  15.227  0.4946 -0.0986 -0.6969
10379TIP3   OH252627   6.466   5.454   4.847  0.5574  0.5424 -0.6311
10379TIP3    H152628   6.438   5.366   4.822  2.6969 -0.4113  0.1288
10379TIP3    H252629   6.521   5.484   4.775 -3.0947  2.9822 -2.7879
10380TIP3   OH252630   4.184   6.026  13.929  0.0250  0.9877 -0.0759
10380TIP3    H152631   4.115   6.075  13.883 -0.5203  1.0860  0.8308
10380TIP3    H252632   4.189   5.942  13.882 -0.7169  0.9771 -0.1438
10381TIP3   OH252633   2.687   2.230   5.918  0.2073 -0.1685  0.1510
10381TIP3    H152634   2.619   2.280   5.963  1.1506 -2.0120  4.0065
10381TIP3    H252635   2.650   2.142   5.909  1.7284 -1.0537  1.8003
10382TIP3   OH252636   1.901   0.181   2.418 -0.1774  0.3802  0.0758
10382TIP3    H152637   1.826   0.211   2.367 -0.1495  0.6409  0.1893
10382TIP3    H252638   1.863   0.151   2.501 -0.2414 -0.1903 -0.1527
10383TIP3   OH252639   5.266   2.441   0.119  0.1407  0.3423  0.2252
10383TIP3    H152640   5.217   2.360   0.105 -0.5527  1.0989 -2.4656
10383TIP3    H252641   5.356   2.412   0.134 -0.3435 -0.9591  0.7361
10384TIP3   OH252642   1.967   5.228  15.324  0.2552 -0.0323  0.7728
10384TIP3    H152643   1.965   5.202  15.232  0.0231  0.7818  0.5430
10384TIP3    H252644   1.975   5.146  15.371 -0.7648 -0.5579  0.0775
10385TIP3   OH252645   1.461   1.803  12.390  0.3429 -0.4219 -0.0943
10385TIP3    H152646   1.367   1.786  12.393  0.0446  1.0839 -0.2946
10385TIP3    H252647   1.468   1.892  12.357  1.8322 -0.2986  0.5060
10386TIP3   OH252648   5.582   4.094  12.777  0.2357 -0.5971  0.3960
10386TIP3    H152649   5.527   4.021  12.748 -1.0145  0.7113 -0.6756
10386TIP3    H252650   5.643   4.055  12.839  1.8128 -3.1973 -2.5668
10387TIP3   OH252651   2.656   5.822   3.766 -0.2905  0.8030 -0.1917
10387TIP3    H152652   2.741   5.847   3.730 -0.4679  0.7523 -0.6497
10387TIP3    H252653   2.603   5.799   3.690 -0.4161 -0.0887  0.1486
10388TIP3   OH252654   1.937   5.351   1.732 -0.2849  0.3970 -1.0221
10388TIP3    H152655   1.855   5.316   1.766 -0.9449  0.6457 -2.2868
10388TIP3    H252656   2.005   5.301   1.777 -1.1607 -1.3455 -1.5426
10389TIP3   OH252657   5.853   5.985  13.514  0.0352  0.5239 -0.4166
10389TIP3    H152658   5.796   6.063  13.514  0.1316  0.6416  1.5145
10389TIP3    H252659   5.801   5.918  13.470 -0.6493  1.2607 -0.7671
10390TIP3   OH252660   4.824   1.673   4.181 -0.2684  0.0602 -0.4220
10390TIP3    H152661   4.756   1.645   4.242  1.2619 -2.7155  0.1705
10390TIP3    H252662   4.795   1.640   4.096 -1.7881  2.8475 -1.0878
10391TIP3   OH252663   0.268   0.240  16.894  0.2166  0.7182  0.0830
10391TIP3    H152664   0.357   0.266  16.868  0.7908 -0.4093  0.8566
10391TIP3    H252665   0.269   0.242  16.989 -0.5715  0.6296  0.1004
10392TIP3   OH252666   5.328   6.074  13.556 -0.5967 -0.3094  0.5921
10392TIP3    H152667   5.335   6.080  13.652 -1.0187 -1.0227  0.6739
10392TIP3    H252668   5.371   6.153  13.524 -0.6686  0.0584  1.3832
10393TIP3   OH252669   5.972   3.742   0.831 -0.0288 -0.7688  0.5446
10393TIP3    H152670   5.986   3.817   0.774  2.0329 -0.7229  1.0245
10393TIP3    H252671   5.909   3.773   0.896 -0.1134  0.1463  0.0421
10394TIP3   OH252672   0.486   1.101   6.618  0.0130  0.1432  0.5749
10394TIP3    H152673   0.561   1.147   6.655  0.8286 -1.4184  0.9515
10394TIP3    H252674   0.523   1.023   6.576 -0.9490  1.4808 -3.1074
10395TIP3   OH252675   2.494   3.522  12.331  0.8033  0.0511  0.2912
10395TIP3    H152676   2.457   3.609  12.318 -0.4391 -0.8283 -3.0648
10395TIP3    H252677   2.579   3.525  12.287  0.2494 -0.7282 -0.8600
10396TIP3   OH252678   2.951   6.508  11.668  0.2066 -0.1348 -0.0482
10396TIP3    H152679   2.973   6.483  11.758  0.2955  1.1532  0.3045
10396TIP3    H252680   2.868   6.556  11.676  0.3990  0.2950 -0.6128
10397TIP3   OH252681   3.959   5.772  13.366 -0.2179 -0.0863 -0.0417
10397TIP3    H152682   3.866   5.769  13.385 -0.3305  0.0053 -0.5583
10397TIP3    H252683   3.997   5.821  13.439 -0.3552 -1.3977  0.9355
10398TIP3   OH252684   4.171   3.976  15.733 -0.2962  0.1219  0.7438
10398TIP3    H152685   4.172   4.035  15.658 -0.2745  0.2848  0.8733
10398TIP3    H252686   4.141   4.029  15.806  0.1017  0.0766  0.9437
10399TIP3   OH252687   3.522   3.636   1.883 -0.2241  0.3802 -0.1632
10399TIP3    H152688   3.588   3.701   1.909 -0.6491  0.5279  0.5658
10399TIP3    H252689   3.548   3.556   1.928 -0.1747  0.2687 -0.3916
10400TIP3   OH252690   0.431   2.372  17.013  0.0968 -0.2585  0.6301
10400TIP3    H152691   0.483   2.309  17.064 -1.4860 -1.4653  0.8391
10400TIP3    H252692   0.342   2.360  17.045 -0.3448  1.6873  0.2187
10401TIP3   OH252693   1.438   3.436  12.023  0.3285  0.3476 -0.1176
10401TIP3    H152694   1.421   3.358  12.076 -0.1224 -0.5353 -1.5218
10401TIP3    H252695   1.532   3.453  12.036  0.2453  0.1364  0.9032
10402TIP3   OH252696   1.242   2.658  15.324  0.0785  0.0321 -0.2429
10402TIP3    H152697   1.272   2.727  15.265  0.2057  0.6902  0.5591
10402TIP3    H252698   1.147   2.665  15.323  0.1143  0.9696  0.6608
10403TIP3   OH252699   5.345   5.497  11.222 -0.3140  0.1762  0.5023
10403TIP3    H152700   5.394   5.523  11.143 -1.6552 -1.4030 -0.9496
10403TIP3    H252701   5.292   5.423  11.193 -0.2876 -0.9697  3.1311
10404TIP3   OH252702   2.323   0.153  15.016 -0.2370 -0.6927  0.0087
10404TIP3    H152703   2.235   0.129  15.045 -0.5262  0.2325 -0.0772
10404TIP3    H252704   2.350   0.224  15.075  0.4877 -1.0221  0.0901
10405TIP3   OH252705   1.413   1.348  14.743  0.2572 -0.8877  0.5260
10405TIP3    H152706   1.334   1.298  14.764  0.5229 -0.5934  2.3331
10405TIP3    H252707   1.424   1.335  14.649 -2.7071  0.1940 -0.0911
10406TIP3   OH252708   4.670   6.292  11.750  0.6871 -0.2031 -0.3423
10406TIP3    H152709   4.695   6.274  11.840 -1.7810  0.4845  0.5735
10406TIP3    H252710   4.650   6.385  11.749 -0.9679 -0.5303 -1.1126
10407TIP3   OH252711   6.793   5.013  14.779  0.7098 -0.1641  0.1234
10407TIP3    H152712   6.822   5.102  14.801 -0.5869  0.0084  1.2442
10407TIP3    H252713   6.704   5.025  14.745  1.5724 -0.7432 -2.6388
10408TIP3   OH252714   4.728   6.365  13.189  0.1827  0.4406  0.0186
10408TIP3    H152715   4.762   6.302  13.125  0.0753 -0.5720  0.9373
10408TIP3    H252716   4.635   6.343  13.196 -0.4010  2.2441 -1.3861
10409TIP3   OH252717   2.672   6.194   2.536  0.0706  0.4139 -0.4854
10409TIP3    H152718   2.712   6.178   2.451 -1.4155  0.7800 -1.2906
10409TIP3    H252719   2.745   6.195   2.597  1.1207 -0.3252 -1.6826
10410TIP3   OH252720   0.375   0.956  11.472 -0.1963  0.5237 -0.4465
10410TIP3    H152721   0.387   1.028  11.411 -1.0151  2.3852  1.4452
10410TIP3    H252722   0.462   0.943  11.511 -0.2313  1.1741 -0.1266
10411TIP3   OH252723   2.403   6.558  10.609  0.4896 -0.9048 -0.4257
10411TIP3    H152724   2.335   6.561  10.677  1.6829  0.0570  0.7542
10411TIP3    H252725   2.376   6.486  10.552 -1.3163 -0.7911  0.2275
10412TIP3   OH252726   1.980   0.747  15.795  0.3436  0.3317  0.1962
10412TIP3    H152727   1.998   0.747  15.889  0.8174  0.2384  0.1045
10412TIP3    H252728   1.902   0.803  15.786  0.5681  0.7108  0.5877
10413TIP3   OH252729   0.913   6.134  16.880 -0.1799 -0.5554  0.6093
10413TIP3    H152730   0.847   6.108  16.816  0.2735  0.7645 -0.4484
10413TIP3    H252731   0.865   6.187  16.944 -0.0130  1.4870 -0.8484
10414TIP3   OH252732   6.001   5.476   1.092 -0.5094  0.5461 -0.1845
10414TIP3    H152733   6.080   5.429   1.068 -1.6663 -1.1609 -0.8654
10414TIP3    H252734   5.960   5.499   1.009 -0.3408  2.1741  0.1504
10415TIP3   OH252735   3.058   6.669  11.456  0.0310  0.3238 -0.4200
10415TIP3    H152736   2.982   6.637  11.408  1.5206 -0.7284 -2.2346
10415TIP3    H252737   3.062   6.615  11.535  0.3358 -1.4627 -1.5922
10416TIP3   OH252738   4.582   1.067   1.786  0.2964  0.0473 -0.0383
10416TIP3    H152739   4.488   1.050   1.790 -0.1726  2.0995 -0.8446
10416TIP3    H252740   4.606   1.045   1.696  0.6462 -0.6493  0.2183
10417TIP3   OH252741   1.068   1.621  11.932  0.1936 -0.1363  0.0709
10417TIP3    H152742   1.083   1.586  11.844  1.0162 -1.7455  0.7990
10417TIP3    H252743   1.111   1.558  11.991 -1.3374  0.2612  1.7094
10418TIP3   OH252744   4.381   4.909   3.554  0.1238 -0.4294  0.5403
10418TIP3    H152745   4.305   4.862   3.586 -1.2449  2.1133  1.3331
10418TIP3    H252746   4.419   4.950   3.632  0.6740  0.5276 -0.1993
10419TIP3   OH252747   3.733   3.247  11.223  0.6143  0.3751 -0.7852
10419TIP3    H152748   3.703   3.191  11.295  3.3149  0.1388  0.2688
10419TIP3    H252749   3.691   3.331  11.239  0.8799  0.2238  0.8991
10420TIP3   OH252750   6.407   1.391   0.375  0.2684 -0.1465 -0.3140
10420TIP3    H152751   6.405   1.475   0.421 -2.3819 -0.3979  0.2009
10420TIP3    H252752   6.336   1.340   0.415  1.3530 -2.4056 -1.0681
10421TIP3   OH252753   3.511   1.691  12.011  0.2813 -0.4010 -0.7388
10421TIP3    H152754   3.505   1.608  11.963 -0.8267 -0.8157  0.0808
10421TIP3    H252755   3.530   1.666  12.101 -0.1915  0.2131 -0.4576
10422TIP3   OH252756   4.882   1.462  14.117  0.0267  0.3987 -0.7134
10422TIP3    H152757   4.817   1.504  14.172 -0.2849 -2.7933  1.6500
10422TIP3    H252758   4.966   1.497  14.148 -0.2935  0.5200  0.0411
10423TIP3   OH252759   4.837   4.973  13.400 -0.1294  0.1306 -0.1367
10423TIP3    H152760   4.753   4.951  13.361  0.1086 -2.1584  0.4553
10423TIP3    H252761   4.856   4.899  13.458  0.9994  1.8953  1.8846
10424TIP3   OH252762   6.634   2.998  13.838 -0.0049 -0.2695  0.0290
10424TIP3    H152763   6.552   2.956  13.862 -1.4295  0.0338 -3.6362
10424TIP3    H252764   6.618   3.092  13.849 -0.8437 -0.0933 -2.2140
10425TIP3   OH252765   2.205   1.766   3.796 -0.3354  0.3468 -0.6173
10425TIP3    H152766   2.193   1.672   3.812  2.1416 -0.1543 -1.2736
10425TIP3    H252767   2.197   1.806   3.883 -0.3216 -0.6129 -0.1580
10426TIP3   OH252768   3.281   0.060   4.081  0.0704  0.0926 -0.5738
10426TIP3    H152769   3.276   0.072   3.986  0.4998  1.0943 -0.4816
10426TIP3    H252770   3.243   0.140   4.118 -2.7401 -1.4407  0.1471
10427TIP3   OH252771   1.559   2.550  11.388  0.1300  0.3239 -0.2481
10427TIP3    H152772   1.481   2.499  11.410  0.5295 -0.0546  0.3093
10427TIP3    H252773   1.566   2.543  11.292  2.3903 -4.0752 -0.0117
10428TIP3   OH252774   0.821   3.680   4.461  0.6279  0.2375 -0.1309
10428TIP3    H152775   0.874   3.651   4.387  0.2819 -0.3971 -0.1331
10428TIP3    H252776   0.869   3.650   4.538  0.4638 -0.0139 -0.1248
10429TIP3   OH252777   5.352   5.082  13.515  0.5183  0.4481  0.0503
10429TIP3    H152778   5.360   5.025  13.592 -1.6900  0.3144  0.2378
10429TIP3    H252779   5.442   5.093  13.484  1.2130 -1.4339  1.2380
10430TIP3   OH252780   3.529   1.166  16.122  0.1811 -0.2194  0.3344
10430TIP3    H152781   3.578   1.248  16.115  1.0088 -0.4560  2.5657
10430TIP3    H252782   3.437   1.194  16.128  0.3968  0.5151  0.3893
10431TIP3   OH252783   1.980   2.429   0.570 -0.9304 -0.0196  0.2684
10431TIP3    H152784   2.037   2.494   0.611 -1.4859  1.1120 -0.6865
10431TIP3    H252785   2.027   2.401   0.492 -1.2434  0.1855  0.0026
10432TIP3   OH252786   1.333   1.271  14.484  0.4559  0.1861 -0.8370
10432TIP3    H152787   1.301   1.219  14.410  2.0616  0.7679 -1.9848
10432TIP3    H252788   1.404   1.219  14.521 -0.6855 -0.3601  0.7002
10433TIP3   OH252789   1.166   3.781   4.727 -0.7434 -0.7501  0.3372
10433TIP3    H152790   1.076   3.805   4.703  0.0639  2.6356  0.2101
10433TIP3    H252791   1.217   3.800   4.649  0.2815 -1.3471  0.8478
10434TIP3   OH252792   4.232   5.868   3.799 -0.0644  0.4000  0.6986
10434TIP3    H152793   4.255   5.913   3.717 -1.6372 -0.8573 -0.4990
10434TIP3    H252794   4.283   5.787   3.796 -0.3692  0.2037  0.7950
10435TIP3   OH252795   1.550   2.805  13.421 -0.1902 -0.0552  0.1101
10435TIP3    H152796   1.543   2.750  13.499  2.0604 -0.9369 -0.2355
10435TIP3    H252797   1.468   2.792  13.374 -1.1398 -0.3373  1.8013
10436TIP3   OH252798   2.133   3.972  14.373  0.0302  0.5000  0.0788
10436TIP3    H152799   2.072   3.957  14.445  0.8839 -1.7236  0.4075
10436TIP3    H252800   2.107   3.909  14.306  0.6284  1.0107 -0.6506
10437TIP3   OH252801   3.166   6.158   2.733  0.1218 -0.2880 -0.7964
10437TIP3    H152802   3.223   6.095   2.777 -1.0694 -0.2080  0.9859
10437TIP3    H252803   3.219   6.238   2.728 -0.1877  0.2072  2.0790
10438TIP3   OH252804   1.048   5.894  17.084 -0.9064 -0.6067 -0.1734
10438TIP3    H152805   1.066   5.987  17.096 -0.8625 -0.3380 -1.9756
10438TIP3    H252806   1.135   5.853  17.079 -0.8697 -0.4170 -1.4145
10439TIP3   OH252807   3.515   5.523   4.429 -0.1154  0.0962 -0.1055
10439TIP3    H152808   3.538   5.603   4.476 -0.5774 -0.5231  1.1995
10439TIP3    H252809   3.527   5.546   4.336 -0.9538  1.8937  0.1925
10440TIP3   OH252810   6.200   3.947  16.738  0.0730  0.6410  0.3109
10440TIP3    H152811   6.114   3.917  16.710  0.0794 -0.7649  1.6336
10440TIP3    H252812   6.184   3.993  16.821  0.1622  3.8661 -1.3224
10441TIP3   OH252813   2.819   0.453  14.966  0.3341  1.0424  0.0752
10441TIP3    H152814   2.726   0.466  14.947 -0.1246 -1.2763  0.4778
10441TIP3    H252815   2.861   0.445  14.880 -0.5837 -2.2141 -0.1722
10442TIP3   OH252816   4.915   2.887  13.015  0.5485 -0.3183  0.0529
10442TIP3    H152817   4.994   2.918  12.972  0.4088 -0.4208 -0.2775
10442TIP3    H252818   4.844   2.910  12.955  0.3858 -0.7676  0.0687
10443TIP3   OH252819   2.603   6.198   1.226 -0.6026  0.2181 -0.3364
10443TIP3    H152820   2.671   6.190   1.293 -1.1548  1.1238  0.3687
10443TIP3    H252821   2.650   6.216   1.145  0.0295  0.2826  0.0342
10444TIP3   OH252822   3.943   4.091  14.726 -0.1888 -0.0729 -0.2402
10444TIP3    H152823   3.968   4.127  14.641  0.6156 -0.5263 -0.2144
10444TIP3    H252824   3.851   4.067  14.716 -0.3424  0.6811 -0.6984
10445TIP3   OH252825   4.063   2.435   6.302  0.1250 -0.8115  0.3338
10445TIP3    H152826   4.080   2.439   6.207 -0.0292 -2.0700  0.2269
10445TIP3    H252827   4.095   2.518   6.336 -0.2057 -0.1557 -0.8840
10446TIP3   OH252828   5.673   1.907  12.769  0.0387 -0.5103 -0.3481
10446TIP3    H152829   5.715   1.916  12.855 -0.8638  1.6737 -0.0653
10446TIP3    H252830   5.724   1.964  12.711  0.5170 -1.8084 -1.2572
10447TIP3   OH252831   6.078   0.065   2.434  0.0122 -0.3307 -0.3545
10447TIP3    H152832   6.132  -0.009   2.461 -0.6674 -0.9767 -0.7352
10447TIP3    H252833   6.138   0.123   2.387  0.3383 -1.1716 -1.0134
10448TIP3   OH252834   4.632   5.461   2.576  0.4357  0.5236  0.6152
10448TIP3    H152835   4.655   5.369   2.594  0.5077  0.6975  1.4227
10448TIP3    H252836   4.708   5.511   2.607  0.3267  0.8713  0.3222
10449TIP3   OH252837   0.227   5.016   0.805 -0.0183 -0.4441 -0.5203
10449TIP3    H152838   0.186   4.962   0.873  1.8023 -0.9381  0.2511
10449TIP3    H252839   0.220   4.964   0.725  1.5208 -1.7897  0.1715
10450TIP3   OH252840   2.391   4.378  11.414  0.8405  0.0561 -0.5194
10450TIP3    H152841   2.411   4.450  11.355 -2.0945  0.3628 -1.3178
10450TIP3    H252842   2.302   4.351  11.390  1.4079 -3.1412  0.4789
10451TIP3   OH252843   3.215   4.129   3.093  0.0882  0.5039  0.5915
10451TIP3    H152844   3.297   4.152   3.049  1.1152 -2.5413  0.6792
10451TIP3    H252845   3.173   4.066   3.034 -1.5026  0.9001  1.2381
10452TIP3   OH252846   6.013   0.392   0.586 -0.0959  0.2914  0.1063
10452TIP3    H152847   5.993   0.359   0.674 -1.6968  0.5660 -0.1251
10452TIP3    H252848   5.928   0.399   0.543  0.3090  3.0521 -0.4399
10453TIP3   OH252849   6.322   5.910   0.333  0.1916  0.4855 -0.0725
10453TIP3    H152850   6.282   5.989   0.295  0.8443  0.2731 -1.2294
10453TIP3    H252851   6.284   5.837   0.285  0.7446  0.1840 -0.0667
10454TIP3   OH252852   5.331   2.840  13.435 -0.3440  0.6104 -0.1273
10454TIP3    H152853   5.360   2.794  13.356  1.7540  2.6543 -0.6679
10454TIP3    H252854   5.406   2.835  13.494 -1.7723 -0.6187  1.7061
10455TIP3   OH252855   4.031   3.470   5.856  0.6435  0.7047 -0.2031
10455TIP3    H152856   3.948   3.480   5.810  0.5452 -0.4149 -0.2886
10455TIP3    H252857   4.097   3.490   5.789  0.4765  0.0672 -0.5665
10456TIP3   OH252858   3.284   1.253  16.155  0.1669 -0.2186 -0.2661
10456TIP3    H152859   3.222   1.306  16.107 -0.2860 -0.9099 -0.4525
10456TIP3    H252860   3.237   1.225  16.233  0.4385 -0.2596 -0.1128
10457TIP3   OH252861   1.624   2.283  10.877 -0.1702 -0.4203 -0.0287
10457TIP3    H152862   1.614   2.210  10.816 -2.2044  0.8968 -1.4327
10457TIP3    H252863   1.706   2.325  10.851 -0.2292 -0.7947 -0.8700
10458TIP3   OH252864   4.459   4.615   3.688 -0.5329  0.1239 -0.5768
10458TIP3    H152865   4.400   4.668   3.635 -0.7351  0.4518 -0.0276
10458TIP3    H252866   4.519   4.576   3.625 -0.2610  1.1566 -0.9810
10459TIP3   OH252867   2.157   5.530  12.223  0.4106 -0.5452 -0.3161
10459TIP3    H152868   2.150   5.485  12.140 -0.7289  0.5531 -0.8450
10459TIP3    H252869   2.235   5.585  12.214  1.3927 -1.8189  0.0766
10460TIP3   OH252870   5.014   3.060  11.525  0.1240  0.2009 -0.0432
10460TIP3    H152871   5.024   3.135  11.467  3.4074 -0.5369 -0.6607
10460TIP3    H252872   4.966   2.995  11.473  3.9141 -0.8589 -2.6444
10461TIP3   OH252873   0.028   1.740   5.910  0.4780 -0.1947  0.4062
10461TIP3    H152874  -0.041   1.805   5.895  0.1241 -0.3958  1.1274
10461TIP3    H252875   0.068   1.727   5.824  1.9910  2.5733  0.5781
10462TIP3   OH252876   4.060   4.703  16.630  0.5776  0.1574  0.2252
10462TIP3    H152877   4.066   4.763  16.704  0.5745  0.2240  0.1717
10462TIP3    H252878   4.021   4.624  16.667  0.3968  0.2597  0.2545
10463TIP3   OH252879   6.455   4.512  16.657  0.0824 -0.0717 -0.1574
10463TIP3    H152880   6.374   4.461  16.660  0.4742 -0.7220 -0.4293
10463TIP3    H252881   6.452   4.557  16.573  0.4507 -0.8532 -0.5932
10464TIP3   OH252882   5.431   0.703  13.861 -0.3777  0.1446 -0.7824
10464TIP3    H152883   5.417   0.776  13.800  2.0079  1.1404 -0.2794
10464TIP3    H252884   5.474   0.636  13.808 -2.9516 -1.1743 -1.3477
10465TIP3   OH252885   4.614   4.837   1.253  0.3502 -0.4747  0.2962
10465TIP3    H152886   4.621   4.922   1.209 -0.9608 -0.3077  0.3714
10465TIP3    H252887   4.594   4.858   1.344 -2.4107 -0.8097 -0.1336
10466TIP3   OH252888   4.472   1.197   1.508 -0.1779  0.0965  0.3337
10466TIP3    H152889   4.446   1.197   1.416  0.0977 -0.0169  0.2550
10466TIP3    H252890   4.543   1.133   1.513  0.3171  0.6470  0.4839
10467TIP3   OH252891   1.015   3.162  13.771  0.0687 -0.0901 -0.2643
10467TIP3    H152892   0.967   3.174  13.853 -0.5865  0.5185 -0.7302
10467TIP3    H252893   1.010   3.068  13.755 -1.2632 -0.0033 -0.4687
10468TIP3   OH252894   4.089   4.751  16.250  0.0363 -0.3547  0.1583
10468TIP3    H152895   4.179   4.745  16.283 -0.9482 -2.7922  2.8192
10468TIP3    H252896   4.047   4.670  16.279 -2.5828 -0.1960 -2.6046
10469TIP3   OH252897   0.598   3.426   0.006 -1.2614  0.0747  0.1105
10469TIP3    H152898   0.502   3.434   0.010 -1.4788 -2.0795  0.1570
10469TIP3    H252899   0.617   3.344   0.051  0.7563  1.0705  1.2039
10470TIP3   OH252900   0.619   1.052  17.076  0.3121  0.4913 -0.7324
10470TIP3    H152901   0.532   1.022  17.105  0.3103  0.6870 -0.5265
10470TIP3    H252902   0.668   0.971  17.062  0.6425  0.3704  0.8469
10471TIP3   OH252903   6.499   1.894   6.108  1.1039 -0.3156  0.1250
10471TIP3    H152904   6.420   1.898   6.162 -0.2607  3.5057 -1.7297
10471TIP3    H252905   6.485   1.820   6.049 -0.7618 -0.2094  0.3806
10472TIP3   OH252906   0.859   0.316  11.547 -0.5141 -0.5969  0.1737
10472TIP3    H152907   0.892   0.231  11.575  1.4106 -0.2700 -0.9034
10472TIP3    H252908   0.793   0.297  11.481  0.2023 -1.2644 -0.3610
10473TIP3   OH252909   2.024   3.989   2.875  0.3663 -0.1083 -0.3179
10473TIP3    H152910   2.018   4.083   2.892 -0.0546 -0.4565  1.7672
10473TIP3    H252911   2.118   3.972   2.868  0.5160  0.2752  0.6324
10474TIP3   OH252912   5.048   3.589  13.901 -0.1465  0.2050 -0.5716
10474TIP3    H152913   5.029   3.604  13.993 -0.9054 -0.7084 -0.5579
10474TIP3    H252914   5.129   3.637  13.884 -0.6266  1.3266  0.2695
10475TIP3   OH252915   2.910   4.615   0.857 -0.5347  0.2424  0.1882
10475TIP3    H152916   2.828   4.644   0.817 -0.8466  1.2370  1.4743
10475TIP3    H252917   2.965   4.693   0.858 -0.3319  0.0910  1.1825
10476TIP3   OH252918   3.404   1.801  10.772 -0.0425 -0.1412  0.2085
10476TIP3    H152919   3.450   1.885  10.780 -0.4236 -0.0508  1.8169
10476TIP3    H252920   3.369   1.801  10.682  0.1753  1.3061  0.0973
10477TIP3   OH252921   4.802   0.070  12.462  0.2467 -0.5182  0.0456
10477TIP3    H152922   4.879   0.125  12.476  0.0740 -0.0437 -0.7834
10477TIP3    H252923   4.746   0.087  12.537  0.7421 -0.5010  0.4139
10478TIP3   OH252924   0.892   0.752   4.177  0.2207 -0.4285  0.0188
10478TIP3    H152925   0.928   0.820   4.119 -0.4337 -0.6547 -0.6796
10478TIP3    H252926   0.932   0.671   4.145  1.2150 -0.3616  1.0276
10479TIP3   OH252927   2.158   2.452   4.460  0.7430  0.5572 -0.1300
10479TIP3    H152928   2.248   2.480   4.444  2.3545 -1.7685  3.6512
10479TIP3    H252929   2.127   2.509   4.531  0.6041 -0.9759  1.0719
10480TIP3   OH252930   6.246   6.577   5.730  0.0308  0.2737 -0.7004
10480TIP3    H152931   6.268   6.668   5.710  0.7234  0.5911  1.2973
10480TIP3    H252932   6.184   6.583   5.803  0.2354 -0.8561 -0.4198
10481TIP3   OH252933   3.665   3.927   4.502  0.2002  0.4878 -0.3467
10481TIP3    H152934   3.758   3.943   4.485  0.4920 -0.6720  0.0136
10481TIP3    H252935   3.658   3.932   4.598  0.1068 -0.3922 -0.2984
10482TIP3   OH252936   5.576   6.388  15.473 -0.3586 -0.0376  0.9162
10482TIP3    H152937   5.663   6.349  15.481 -0.4701 -0.4538  0.1987
10482TIP3    H252938   5.516   6.313  15.479 -0.5105 -0.3361 -2.4926
10483TIP3   OH252939   5.962   2.811   0.617  0.3230 -0.1218  0.1163
10483TIP3    H152940   5.902   2.779   0.684 -0.7008 -1.3201 -1.3078
10483TIP3    H252941   5.905   2.847   0.549  1.3412  1.1461 -0.1143
10484TIP3   OH252942   6.796   5.138  16.196  0.2106 -0.0254 -0.2615
10484TIP3    H152943   6.740   5.070  16.232 -2.1730  2.1010  0.2861
10484TIP3    H252944   6.780   5.135  16.102 -1.3300  0.9478 -0.0503
10485TIP3   OH252945   4.700   2.005   1.811  0.8703 -0.6089  0.2246
10485TIP3    H152946   4.717   2.051   1.893 -0.5199  0.9022 -0.2762
10485TIP3    H252947   4.657   2.070   1.755 -0.7097 -2.3514 -0.7173
10486TIP3   OH252948   6.738   6.091  11.778 -0.0451  0.5611 -0.0758
10486TIP3    H152949   6.655   6.127  11.810 -0.6040 -0.7315 -0.0237
10486TIP3    H252950   6.799   6.106  11.850 -1.0902 -1.5632  1.3614
10487TIP3   OH252951   3.469   3.803   6.833 -0.5316  0.1250 -0.6019
10487TIP3    H152952   3.377   3.819   6.812 -0.2113  0.0317 -2.2239
10487TIP3    H252953   3.478   3.707   6.831 -0.7226  0.0384  1.1728
10488TIP3   OH252954   5.517   4.508   0.146  0.0604 -0.5114 -0.1583
10488TIP3    H152955   5.552   4.531   0.232  1.9912 -1.5162 -0.6092
10488TIP3    H252956   5.511   4.412   0.148  1.1143 -0.6331 -1.4584
10489TIP3   OH252957   1.457   3.014   4.177  0.0628  0.1055  0.0204
10489TIP3    H152958   1.467   3.059   4.093  0.0034  2.0711  1.0019
10489TIP3    H252959   1.495   3.075   4.241 -1.5102 -0.5205  1.6202
10490TIP3   OH252960   5.237   2.935   5.148  0.3804 -0.5274  0.1979
10490TIP3    H152961   5.221   2.923   5.054  1.2339 -1.6377  0.1799
10490TIP3    H252962   5.184   3.011   5.171  1.2546  0.6448 -1.4682
10491TIP3   OH252963   4.924   6.387   2.998 -0.2301 -0.4958 -0.5956
10491TIP3    H152964   4.933   6.461   2.938 -1.0539  1.3935  1.4469
10491TIP3    H252965   4.997   6.398   3.060 -1.7062  0.0963  1.1400
10492TIP3   OH252966   6.677   6.652   2.141 -0.5296  0.1436 -0.0324
10492TIP3    H152967   6.659   6.568   2.185 -1.5934  0.3644 -0.0133
10492TIP3    H252968   6.662   6.718   2.209 -0.7959  0.4097 -0.3475
10493TIP3   OH252969   5.941   1.996  14.594  1.0453  0.1571  0.3328
10493TIP3    H152970   5.885   2.055  14.544 -0.9328 -0.3432  1.8096
10493TIP3    H252971   5.941   1.915  14.544  0.4230  0.1746  0.2863
10494TIP3   OH252972   5.185   1.799  10.991  0.7522 -0.1413 -0.0505
10494TIP3    H152973   5.179   1.713  10.950  0.3607 -0.2999  0.3275
10494TIP3    H252974   5.266   1.837  10.956 -0.1303  0.2015 -1.8325
10495TIP3   OH252975   3.599   2.623  12.208  0.2530  0.3220  0.2016
10495TIP3    H152976   3.543   2.552  12.175  1.4156  0.5843 -2.6274
10495TIP3    H252977   3.676   2.578  12.243  0.9812  0.1197 -1.5730
10496TIP3   OH252978   3.258   1.498   5.478 -0.3284  0.2337 -0.1121
10496TIP3    H152979   3.296   1.531   5.397 -2.5802  0.0676 -1.3030
10496TIP3    H252980   3.176   1.547   5.488 -0.4608 -0.2718  1.6950
10497TIP3   OH252981   3.523   3.883   4.724  1.0455 -0.0804 -0.0490
10497TIP3    H152982   3.461   3.845   4.662 -0.6404  0.8658  0.9792
10497TIP3    H252983   3.542   3.812   4.785 -1.3554  0.3257  1.3150
10498TIP3   OH252984   3.409   5.673  16.371  0.4656  0.0821  0.2976
10498TIP3    H152985   3.350   5.744  16.345 -0.7519 -0.7665  0.6303
10498TIP3    H252986   3.470   5.663  16.298 -0.1680  0.6075 -0.3114
10499TIP3   OH252987   6.436   4.722  13.281 -0.3296 -0.4946  0.3701
10499TIP3    H152988   6.531   4.723  13.272 -0.1682 -2.6438  1.0764
10499TIP3    H252989   6.420   4.739  13.373 -0.6533  0.1239  0.2039
10500TIP3   OH252990   5.425   0.725   5.302 -0.1537 -0.3457 -0.3528
10500TIP3    H152991   5.451   0.649   5.250  0.9301  1.2202 -2.1772
10500TIP3    H252992   5.345   0.756   5.261 -0.1430 -0.0138 -0.1245
10501TIP3   OH252993   1.039   3.920  17.164  0.1144 -0.4254 -0.0391
10501TIP3    H152994   0.971   3.959  17.109 -0.9154 -3.5309 -1.1847
10501TIP3    H252995   1.005   3.925  17.253 -0.3321  0.5070 -0.2550
10502TIP3   OH252996   3.986   3.055   4.391  0.2430 -0.5096 -0.2089
10502TIP3    H152997   3.917   3.085   4.450  0.0160  0.0281 -0.7379
10502TIP3    H252998   4.067   3.084   4.432  0.0171  1.1883 -0.8758
10503TIP3   OH252999   3.759   1.685  13.543 -0.3764  0.6584  0.2139
10503TIP3    H153000   3.831   1.655  13.598 -0.7938 -0.2255  0.2990
10503TIP3    H253001   3.731   1.768  13.584  1.5302  1.8249 -0.6884
10504TIP3   OH253002   2.228   1.868  11.446 -0.0849  0.9832  0.0769
10504TIP3    H153003   2.215   1.848  11.539  1.1048  1.6191  0.4068
10504TIP3    H253004   2.242   1.782  11.405 -0.7559  0.6857  0.4561
10505TIP3   OH253005   4.525   4.231  16.539  0.4554  0.3527  0.2634
10505TIP3    H153006   4.495   4.151  16.583 -2.7289  0.6460 -1.0556
10505TIP3    H253007   4.526   4.297  16.608 -1.1536  0.0585  0.6304
10506TIP3   OH253008   3.663   5.763   1.020 -0.4763  0.4650  0.0581
10506TIP3    H153009   3.569   5.745   1.015  0.2298 -3.9910 -2.5540
10506TIP3    H253010   3.688   5.738   1.108 -1.5526  0.8177  0.4842
10507TIP3   OH253011   4.400   6.608  14.230  0.3767 -0.3851 -0.4289
10507TIP3    H153012   4.456   6.652  14.166 -0.1919  0.3979 -0.4017
10507TIP3    H253013   4.392   6.671  14.301  0.2402 -0.8807 -0.0058
10508TIP3   OH253014   5.577   1.611  14.777 -0.5834  0.1911 -0.2877
10508TIP3    H153015   5.586   1.659  14.859 -1.2231 -0.5159  0.2167
10508TIP3    H253016   5.518   1.664  14.723 -4.3870 -1.6103  1.6507
10509TIP3   OH253017   5.669   2.437   1.936  0.1227  0.2385  0.4829
10509TIP3    H153018   5.646   2.507   1.997  3.3525 -0.3173  2.5728
10509TIP3    H253019   5.745   2.470   1.888  0.7572 -1.2427  0.4087
10510TIP3   OH253020   2.418   5.835  14.705  0.4340 -0.1225 -0.3287
10510TIP3    H153021   2.480   5.831  14.633  2.2466 -0.4619  1.1730
10510TIP3    H253022   2.452   5.772  14.769 -2.5993 -1.8999 -0.2685
10511TIP3   OH253023   5.403   2.100   6.519 -0.8103  0.5364  0.1417
10511TIP3    H153024   5.466   2.028   6.512 -0.2707  0.9150  0.9210
10511TIP3    H253025   5.343   2.073   6.589 -0.2820  1.0656  0.8154
10512TIP3   OH253026   0.246   1.922  13.509 -0.4148  0.4692 -0.1117
10512TIP3    H153027   0.273   1.963  13.427  0.0001 -0.9204 -0.7157
10512TIP3    H253028   0.329   1.904  13.555 -0.3832 -1.5999 -0.8569
10513TIP3   OH253029   4.886   5.957  12.953 -0.4179  0.2268 -0.5270
10513TIP3    H153030   4.799   5.989  12.976  0.1199  0.1538  1.9562
10513TIP3    H253031   4.878   5.862  12.953  0.0947  0.1092  2.1203
10514TIP3   OH253032   2.295   1.624   2.956  0.1411 -0.2316  0.3525
10514TIP3    H153033   2.322   1.714   2.977 -0.9430  0.1784  0.0634
10514TIP3    H253034   2.199   1.629   2.949  0.1446 -1.2034 -0.6467
10515TIP3   OH253035   0.400   4.857  14.284  0.0701 -0.1856 -0.0902
10515TIP3    H153036   0.492   4.841  14.303  0.1438 -0.1699 -0.4268
10515TIP3    H253037   0.358   4.863  14.370  0.1306 -1.6044  0.0673
10516TIP3   OH253038   6.492   2.437   4.452 -0.1169  0.2383  0.1357
10516TIP3    H153039   6.581   2.411   4.426 -0.3477  0.1220 -0.5491
10516TIP3    H253040   6.462   2.493   4.381 -0.4527  0.5871  0.5515
10517TIP3   OH253041   0.464   6.415   5.068 -0.4245  0.0876 -0.0509
10517TIP3    H153042   0.504   6.338   5.029 -0.3242  0.1781 -0.1300
10517TIP3    H253043   0.379   6.386   5.100  0.4331 -0.5613  1.7371
10518TIP3   OH253044   3.798   5.711   4.244  0.6571  0.3789 -0.1476
10518TIP3    H153045   3.862   5.746   4.182  1.8804  1.4521  1.6273
10518TIP3    H253046   3.821   5.750   4.328 -1.3148 -0.5292  0.9071
10519TIP3   OH253047   6.729   0.924  11.131  0.3435  0.0092  0.4393
10519TIP3    H153048   6.792   0.965  11.190  0.4204  2.1833 -1.0522
10519TIP3    H253049   6.781   0.894  11.057  0.2015 -2.4130  1.2152
10520TIP3   OH253050   0.949   5.146   5.106  0.2589 -0.4248 -0.1941
10520TIP3    H153051   0.879   5.195   5.150  0.4737  0.3549 -0.6927
10520TIP3    H253052   0.903   5.076   5.060  0.1500 -2.1982  2.4080
10521TIP3   OH253053   6.215   6.271  11.234  0.2193 -0.5916 -0.1875
10521TIP3    H153054   6.248   6.194  11.280  0.5186 -0.0010  0.6009
10521TIP3    H253055   6.223   6.249  11.141 -0.6331 -1.8935  0.0280
10522TIP3   OH253056   2.344   0.160   2.167  0.3126  0.1556 -0.1221
10522TIP3    H153057   2.368   0.122   2.252 -1.9424 -0.7317  0.1916
10522TIP3    H253058   2.337   0.253   2.184  0.8307  0.1032  0.4172
10523TIP3   OH253059   5.192   3.775   5.473 -0.1737 -0.4299 -0.4880
10523TIP3    H153060   5.172   3.813   5.558  3.5919 -0.1863  0.4832
10523TIP3    H253061   5.217   3.849   5.418 -0.8189 -0.7750 -1.2838
10524TIP3   OH253062   2.637   0.224  16.924  0.0428  0.5854  0.1200
10524TIP3    H153063   2.687   0.211  16.844  1.1840 -2.7028  1.2052
10524TIP3    H253064   2.691   0.283  16.977 -0.1030  1.7207 -0.9360
10525TIP3   OH253065   4.938   0.199  10.787 -0.0286 -0.9343  0.0869
10525TIP3    H153066   5.003   0.132  10.809 -0.9927 -1.5037  1.3055
10525TIP3    H253067   4.905   0.230  10.871  1.8185  2.6310 -0.2970
10526TIP3   OH253068   5.885   1.336   3.963 -0.1344  0.7495 -0.1592
10526TIP3    H153069   5.838   1.324   4.045  1.1350 -0.5429  0.4392
10526TIP3    H253070   5.914   1.427   3.964  1.3750  0.3056  1.7110
10527TIP3   OH253071   5.436   4.904   3.144  0.0987 -0.2292 -0.1766
10527TIP3    H153072   5.353   4.908   3.095  0.2784  1.3136 -0.4306
10527TIP3    H253073   5.464   4.813   3.138  0.1219 -0.1233 -2.9875
10528TIP3   OH253074   0.976   1.897  16.877  0.4805  0.0509  0.1506
10528TIP3    H153075   0.904   1.871  16.819  1.2809 -0.6333 -0.5530
10528TIP3    H253076   0.986   1.823  16.938  2.7247 -1.4120 -1.8194
10529TIP3   OH253077   2.009   1.081  11.513  0.1374 -0.0357 -0.0870
10529TIP3    H153078   2.030   1.172  11.493 -0.7206 -0.0266 -1.0229
10529TIP3    H253079   1.916   1.072  11.491  0.2774 -1.2049 -0.2805
10530TIP3   OH253080   3.902   6.201   4.099  0.6697  0.2772 -0.2384
10530TIP3    H153081   3.931   6.220   4.188  0.3010 -0.4572  0.0480
10530TIP3    H253082   3.965   6.137   4.066  1.7470  1.7151 -1.0997
10531TIP3   OH253083   5.784   2.458   0.110  0.2872 -0.2277 -0.0067
10531TIP3    H153084   5.789   2.499   0.197  3.1740 -1.3162  0.4578
10531TIP3    H253085   5.790   2.364   0.128  2.5323 -0.4236 -1.3548
10532TIP3   OH253086   6.215   3.480   5.943 -0.2253  1.0436  0.0456
10532TIP3    H153087   6.239   3.398   5.987 -2.1922  0.7630  0.6975
10532TIP3    H253088   6.254   3.472   5.856  2.2895  0.8421  1.0921
10533TIP3   OH253089   0.917   5.811  16.760 -0.2016  0.3244  0.6507
10533TIP3    H153090   1.008   5.841  16.764  0.9617 -2.9733  2.2729
10533TIP3    H253091   0.877   5.844  16.841 -0.4519  1.5697  0.0504
10534TIP3   OH253092   5.003   5.518   5.364 -0.1497 -0.8373 -0.4945
10534TIP3    H153093   4.930   5.493   5.309  0.2991 -2.2671 -0.4753
10534TIP3    H253094   4.984   5.479   5.450  0.1435 -0.3716 -0.2088
10535TIP3   OH253095   4.255   5.611  13.409  0.6036  0.2523 -0.0001
10535TIP3    H153096   4.159   5.608  13.400  0.4388 -1.1422  1.5751
10535TIP3    H253097   4.277   5.527  13.450  2.5525  0.4152 -0.6229
10536TIP3   OH253098   6.137   2.486  13.439  0.4355 -0.7032  0.7625
10536TIP3    H153099   6.169   2.403  13.405  2.1316 -0.3941  1.5216
10536TIP3    H253100   6.182   2.497  13.523 -0.7233  0.3814  1.2788
10537TIP3   OH253101   0.406   6.446  10.833  0.4667 -0.0234  0.5225
10537TIP3    H153102   0.477   6.387  10.861  0.1642 -0.2652  0.7844
10537TIP3    H253103   0.371   6.481  10.915  1.6992  1.7787  0.3221
10538TIP3   OH253104   3.424   3.737  12.307 -0.6994  0.3951 -0.2565
10538TIP3    H153105   3.360   3.687  12.257  0.9079 -1.5655 -0.4516
10538TIP3    H253106   3.422   3.699  12.394  1.8245 -1.4039 -0.8656
10539TIP3   OH253107   1.383   4.563   1.776  0.5460  0.1306  0.3981
10539TIP3    H153108   1.379   4.468   1.765  1.5362  0.2772 -1.7817
10539TIP3    H253109   1.294   4.594   1.757  0.5630 -0.2629 -0.3555
10540TIP3   OH253110   1.927   3.564  11.450 -0.2335 -0.4617  0.2753
10540TIP3    H153111   1.922   3.508  11.528 -0.9953 -1.2964 -0.3510
10540TIP3    H253112   1.862   3.632  11.466 -1.4443 -1.4558 -0.2400
10541TIP3   OH253113   1.125   2.595   1.376  0.0151  0.0154  0.0304
10541TIP3    H153114   1.081   2.622   1.295 -0.7963  1.5920  0.9644
10541TIP3    H253115   1.206   2.647   1.377  0.7004 -1.0008 -0.4035
10542TIP3   OH253116   6.061   3.711   0.379 -0.1333  0.1750 -0.4610
10542TIP3    H153117   6.124   3.726   0.450 -0.7230 -1.3094  0.4189
10542TIP3    H253118   6.022   3.797   0.364 -0.5079  0.4110  1.5533
10543TIP3   OH253119   2.643   4.454   5.874  0.1751 -0.5240  0.4375
10543TIP3    H153120   2.566   4.408   5.841 -1.0219  2.1357 -0.8020
10543TIP3    H253121   2.622   4.473   5.965 -0.4940 -0.1557  0.2142
10544TIP3   OH253122   2.807   3.568   5.384  0.8233  0.0487 -0.0312
10544TIP3    H153123   2.722   3.613   5.380  1.5448  1.5152  0.4442
10544TIP3    H253124   2.840   3.589   5.471  1.9279 -0.0212 -0.4257
10545TIP3   OH253125   0.604   3.422  16.728 -0.3846 -0.2035 -0.5902
10545TIP3    H153126   0.566   3.338  16.754  3.5056 -1.5677  1.6370
10545TIP3    H253127   0.586   3.480  16.802  0.1343 -0.2550 -0.4211
10546TIP3   OH253128   4.442   4.900  12.781 -0.1801  0.0586  0.1434
10546TIP3    H153129   4.525   4.946  12.770  0.8681 -1.5862  0.7516
10546TIP3    H253130   4.390   4.926  12.705  1.4018  0.1301 -0.9772
10547TIP3   OH253131   3.297   4.324   5.455  0.3364  0.1984  0.6367
10547TIP3    H153132   3.364   4.323   5.386 -0.2800 -1.6227 -0.0166
10547TIP3    H253133   3.223   4.370   5.416 -0.2503 -1.3923 -0.2398
10548TIP3   OH253134   2.600   5.500   1.396 -0.7327  0.7185  0.2011
10548TIP3    H153135   2.595   5.577   1.454 -0.7144 -1.2212  2.9784
10548TIP3    H253136   2.572   5.533   1.311 -2.4037  3.4372  1.6418
10549TIP3   OH253137   3.166   0.034  11.676 -0.7817  0.3537  0.4179
10549TIP3    H153138   3.077   0.069  11.679 -0.4910  1.0565  1.2634
10549TIP3    H253139   3.163  -0.046  11.729 -1.2551 -0.4879 -0.8376
10550TIP3   OH253140   5.637   3.630  11.418  0.2018 -0.6680  0.1431
10550TIP3    H153141   5.708   3.682  11.381 -0.8992  0.2791 -0.7086
10550TIP3    H253142   5.592   3.691  11.478  0.1747 -1.2936  0.7751
10551TIP3   OH253143   1.876   1.560   0.417 -0.3023 -0.2448 -0.2180
10551TIP3    H153144   1.802   1.511   0.455  1.0740 -1.0687  1.5639
10551TIP3    H253145   1.950   1.501   0.425  0.9177  1.2147 -0.2978
10552TIP3   OH253146   5.259   2.847  12.506  0.4452 -0.2520  0.8538
10552TIP3    H153147   5.276   2.922  12.562  0.2777 -0.5519  1.3138
10552TIP3    H253148   5.299   2.773  12.551 -0.8673 -0.7361  1.2865
10553TIP3   OH253149   2.589   4.249  15.929  0.5707 -0.3398 -0.5011
10553TIP3    H153150   2.541   4.265  16.010  0.1809 -2.1365 -0.3505
10553TIP3    H253151   2.680   4.240  15.957  0.5951  0.1476 -0.4137
10554TIP3   OH253152   1.919   6.137   0.949  0.1414 -0.0914 -0.0782
10554TIP3    H153153   1.864   6.188   0.889 -0.0677 -0.0413  0.1550
10554TIP3    H253154   1.867   6.130   1.029  1.2074  1.5073  0.7979
10555TIP3   OH253155   3.955   1.100  15.072 -0.1027 -0.1469 -0.1658
10555TIP3    H153156   3.997   1.080  15.156  1.3903 -0.0901 -0.8727
10555TIP3    H253157   3.920   1.015  15.043 -1.4017 -0.0161  0.8755
10556TIP3   OH253158   0.891   1.969  12.850  0.0106 -0.5648 -0.3348
10556TIP3    H153159   0.952   1.899  12.874 -0.7874 -1.7927 -1.7587
10556TIP3    H253160   0.933   2.049  12.882  2.1064 -1.4154 -0.7900
10557TIP3   OH253161   3.648   0.013   4.677  0.2298 -0.1338 -0.4952
10557TIP3    H153162   3.710   0.083   4.655 -0.7910  1.2160  0.7282
10557TIP3    H253163   3.667  -0.008   4.768  1.0473 -2.0876 -1.0522
10558TIP3   OH253164   4.200   0.680  15.962  0.6492 -0.1604 -0.1607
10558TIP3    H153165   4.247   0.714  15.886 -0.3930  1.5194 -0.0916
10558TIP3    H253166   4.146   0.609  15.927 -1.4471  1.9719 -1.4790
10559TIP3   OH253167   6.118   5.828   4.982  0.2552  0.2815  0.1736
10559TIP3    H153168   6.209   5.811   4.956  0.3649  1.7709 -0.4678
10559TIP3    H253169   6.113   5.794   5.071  2.0503  1.9814  1.0080
10560TIP3   OH253170   1.757   5.847  11.378 -0.2371 -0.4398  0.0283
10560TIP3    H153171   1.827   5.811  11.432 -0.1616  0.7575  0.7733
10560TIP3    H253172   1.728   5.774  11.324  0.3060 -1.4425  1.0498
10561TIP3   OH253173   1.700   5.300  11.272  0.5181 -0.3541  0.0420
10561TIP3    H153174   1.634   5.236  11.244  0.1791 -0.6440  1.4455
10561TIP3    H253175   1.661   5.385  11.254  1.0516 -0.5011 -2.0355
10562TIP3   OH253176   0.317   6.647  12.587  0.1876 -0.3719  0.2445
10562TIP3    H153177   0.398   6.642  12.638 -0.3946  1.3177  1.4066
10562TIP3    H253178   0.317   6.734  12.549 -1.2535 -0.2024  0.5713
10563TIP3   OH253179   3.506   0.365   5.778 -0.3241 -0.4970 -0.3649
10563TIP3    H153180   3.493   0.458   5.796 -2.2110 -0.9134  0.8306
10563TIP3    H253181   3.556   0.333   5.853  1.1366 -0.2978 -1.2336
10564TIP3   OH253182   3.962   1.755  11.657 -0.4133 -0.2421  0.3669
10564TIP3    H153183   3.952   1.678  11.712  0.0689 -1.0228 -0.6091
10564TIP3    H253184   4.057   1.763  11.644 -0.5728 -1.1394 -1.7662
10565TIP3   OH253185   1.345   1.812   6.393  0.3379 -0.1765 -0.3065
10565TIP3    H153186   1.286   1.831   6.466  1.8212 -0.2523  0.9616
10565TIP3    H253187   1.388   1.896   6.375  1.1510 -0.5119  0.0115
10566TIP3   OH253188   0.040   0.112  16.479  0.6577  0.3894 -0.5623
10566TIP3    H153189  -0.029   0.050  16.455  0.9086  0.3064 -1.0799
10566TIP3    H253190   0.018   0.139  16.568 -0.6990  1.2397 -1.1273
10567TIP3   OH253191   1.081   5.236  14.428 -1.0302  0.6278  0.2069
10567TIP3    H153192   1.146   5.302  14.402 -0.5106  0.1952  0.3830
10567TIP3    H253193   1.006   5.287  14.458  0.0933  1.2227  2.2351
10568TIP3   OH253194   3.185   3.732  15.584 -0.2040  0.0715 -0.3251
10568TIP3    H153195   3.118   3.678  15.626  0.1753 -0.7677 -0.7807
10568TIP3    H253196   3.137   3.782  15.517 -1.2037  2.8939  2.2367
10569TIP3   OH253197   4.609   0.560  11.535  0.7004  0.0094 -0.0487
10569TIP3    H153198   4.605   0.466  11.516  0.0252  0.0857 -0.3098
10569TIP3    H253199   4.692   0.588  11.495 -0.5248  0.1046 -2.7292
10570TIP3   OH253200   4.737   6.574   1.030  0.6591  0.3419  0.6071
10570TIP3    H153201   4.655   6.524   1.026  0.7789  0.1715 -2.6787
10570TIP3    H253202   4.710   6.666   1.030  0.5036  0.3645  3.1011
10571TIP3   OH253203   3.729   5.647   2.001  0.1533  0.5222  0.5363
10571TIP3    H153204   3.707   5.603   2.083 -0.4218  1.2229  0.7622
10571TIP3    H253205   3.759   5.734   2.027 -1.8035  1.4356 -0.0800
10572TIP3   OH253206   5.892   3.930  13.199  0.3548 -0.4217 -0.0595
10572TIP3    H153207   5.823   3.994  13.216 -0.3752 -0.8719 -1.2421
10572TIP3    H253208   5.892   3.874  13.277 -0.4263 -0.2558  0.0684
10573TIP3   OH253209   1.574   6.651   1.275 -0.0822  0.4434  0.2790
10573TIP3    H153210   1.562   6.623   1.184 -1.5239 -0.1943  0.6358
10573TIP3    H253211   1.610   6.740   1.268  0.9792 -0.0349 -0.8907
10574TIP3   OH253212   2.282   0.134  14.737  0.3671 -0.3347 -0.4737
10574TIP3    H153213   2.342   0.133  14.811  1.2803  0.3303 -1.1772
10574TIP3    H253214   2.197   0.111  14.774  1.0890 -1.5320  0.5080
10575TIP3   OH253215   1.905   1.374   5.012 -0.4787  0.0006 -0.2807
10575TIP3    H153216   1.931   1.308   4.948  1.1236 -1.3067  1.5785
10575TIP3    H253217   1.867   1.324   5.085  0.7945  1.0564  1.1892
10576TIP3   OH253218   5.105   2.007  15.275 -0.2967 -0.2777  0.0187
10576TIP3    H153219   5.181   1.984  15.329 -1.0589  0.8424  1.6785
10576TIP3    H253220   5.070   1.923  15.245  0.8169 -0.8722  0.3476
10577TIP3   OH253221   4.937   4.661  11.251 -0.7814 -0.2397  0.0549
10577TIP3    H153222   4.872   4.591  11.252 -0.7786 -0.2303  0.7247
10577TIP3    H253223   5.003   4.634  11.315 -0.2781 -0.0980 -0.3927
10578TIP3   OH253224   2.077   3.976   5.741 -0.3077 -0.1111 -0.5222
10578TIP3    H153225   2.000   3.920   5.751  0.2488 -1.2808 -2.3939
10578TIP3    H253226   2.138   3.945   5.809  0.0715 -2.0032 -1.6457
10579TIP3   OH253227   2.743   6.442   3.994 -0.6226 -0.7345 -0.5435
10579TIP3    H153228   2.682   6.423   4.065  0.0735 -0.7346  0.0689
10579TIP3    H253229   2.826   6.405   4.024  0.1297  0.9012 -0.5031
10580TIP3   OH253230   2.529   4.777  16.507 -0.0258 -0.3326  0.3012
10580TIP3    H153231   2.452   4.770  16.450 -1.9036  1.5501  2.4083
10580TIP3    H253232   2.598   4.812  16.451 -1.4926  0.5342 -1.0443
10581TIP3   OH253233   1.294   1.179  13.481 -0.6377  0.0041 -0.1507
10581TIP3    H153234   1.355   1.240  13.439 -1.1716  2.2845  2.1063
10581TIP3    H253235   1.225   1.166  13.416  0.1287  0.8106 -1.1603
10582TIP3   OH253236   3.993   0.252   3.880  0.1401 -0.4276  0.4120
10582TIP3    H153237   3.980   0.304   3.800 -0.7133 -1.2648 -0.0149
10582TIP3    H253238   3.962   0.308   3.951  2.3564  0.9512  0.3775
10583TIP3   OH253239   6.011   6.536   5.958 -0.2909  0.2257  0.5373
10583TIP3    H153240   6.046   6.525   6.046 -0.0616 -0.1809  0.3999
10583TIP3    H253241   5.919   6.559   5.971 -0.4155 -0.4393  0.8751
10584TIP3   OH253242   3.769   0.336  14.823  0.5101 -0.2027  0.2115
10584TIP3    H153243   3.675   0.320  14.835  0.4501  0.6297  0.8799
10584TIP3    H253244   3.811   0.289  14.894  0.3277  2.4879  2.2425
10585TIP3   OH253245   2.194   0.974   3.665  0.1956 -0.0237  0.2497
10585TIP3    H153246   2.111   0.927   3.675 -0.5685  0.8658 -1.4835
10585TIP3    H253247   2.181   1.028   3.588  1.6988  1.6678  1.1185
10586TIP3   OH253248   4.381   3.416  16.158  0.5093  0.0923  0.4909
10586TIP3    H153249   4.301   3.459  16.187  1.5941  0.9970  2.2599
10586TIP3    H253250   4.440   3.487  16.133  0.2627 -0.5807 -2.4450
10587TIP3   OH253251   1.129   2.552   4.330  0.2844  0.6056  0.6405
10587TIP3    H153252   1.183   2.549   4.251  0.4338 -1.5354  0.7492
10587TIP3    H253253   1.157   2.475   4.381 -0.2528  1.5708  2.4831
10588TIP3   OH253254   0.489   5.765   3.960  0.6706 -0.2412 -0.0747
10588TIP3    H153255   0.494   5.764   3.865 -0.4098  0.5531 -0.1551
10588TIP3    H253256   0.400   5.793   3.980  0.9752 -0.0670  1.1769
10589TIP3   OH253257   5.080   0.459   3.002 -0.0004 -0.1167  0.4760
10589TIP3    H153258   5.019   0.500   2.942  0.7937  3.2228  1.7019
10589TIP3    H253259   5.156   0.437   2.948  0.2392  1.7402 -0.0184
10590TIP3   OH253260   6.729   1.070  12.799  0.4261 -0.0752 -0.1654
10590TIP3    H153261   6.649   1.077  12.747 -0.1365 -0.0320  0.6892
10590TIP3    H253262   6.707   1.111  12.883  1.8183  1.3209 -0.4301
10591TIP3   OH253263   0.663   1.167  15.332  0.0423 -0.0516  0.1337
10591TIP3    H153264   0.655   1.085  15.381  0.3229  0.2960  0.7863
10591TIP3    H253265   0.605   1.157  15.257  0.3564 -0.9873  0.0137
10592TIP3   OH253266   0.126   2.077  16.597  0.4170 -0.3673 -0.3908
10592TIP3    H153267   0.177   2.088  16.677  0.8012  3.2766 -0.9500
10592TIP3    H253268   0.041   2.043  16.628  0.9572 -0.2139  1.3943
10593TIP3   OH253269   5.839   0.556  13.960 -0.4373 -0.3880  0.0080
10593TIP3    H153270   5.746   0.562  13.938 -0.3176 -0.5117 -0.5486
10593TIP3    H253271   5.844   0.582  14.052 -0.7273  1.7559 -0.5499
10594TIP3   OH253272   1.306   6.226   0.583 -0.2779  1.0250  0.0778
10594TIP3    H153273   1.274   6.309   0.547 -2.0748  0.0359 -0.7727
10594TIP3    H253274   1.380   6.202   0.528 -1.3141  0.8690 -1.3068
10595TIP3   OH253275   6.482   3.258   2.420 -0.3075  0.2585  0.6738
10595TIP3    H153276   6.388   3.269   2.434 -0.4169 -0.3529  0.4843
10595TIP3    H253277   6.490   3.245   2.326 -0.1072 -0.2987  0.7617
10596TIP3   OH253278   0.991   0.675  14.661 -0.3839  0.5228  0.1919
10596TIP3    H153279   1.076   0.701  14.698 -0.5685  0.8211  0.4192
10596TIP3    H253280   0.937   0.654  14.738 -0.2194 -0.6255  0.0045
10597TIP3   OH253281   3.502   5.416   5.187  0.0665  0.0255 -0.2250
10597TIP3    H153282   3.456   5.499   5.198 -0.5882 -0.4737  1.0442
10597TIP3    H253283   3.592   5.434   5.212 -0.5028 -0.0794  2.1757
10598TIP3   OH253284   4.098   1.783  14.700 -0.9568 -0.6070 -0.1708
10598TIP3    H153285   4.114   1.870  14.665  0.0882  0.5856  2.9425
10598TIP3    H253286   4.185   1.743  14.706 -1.2638 -1.2918 -0.1982
10599TIP3   OH253287   3.792   5.729  15.104  0.3721 -0.4183 -0.1153
10599TIP3    H153288   3.746   5.645  15.107 -0.9441  0.2728 -0.1706
10599TIP3    H253289   3.762   5.770  15.023  0.1404  0.5568  0.4442
10600TIP3   OH253290   5.995   1.223   6.501 -0.2174 -0.0099  0.1404
10600TIP3    H153291   6.067   1.278   6.531 -1.1593  1.5102 -0.2628
10600TIP3    H253292   5.975   1.166   6.575  0.8715  0.0953  0.5270
10601TIP3   OH253293   5.233   0.531  12.793  0.1459 -0.4163  0.3307
10601TIP3    H153294   5.183   0.605  12.759 -0.3538 -1.7200 -1.9579
10601TIP3    H253295   5.174   0.456  12.784  2.0434 -1.8057 -1.3666
10602TIP3   OH253296   3.322   3.605   5.148  0.0327  0.0251 -0.0350
10602TIP3    H153297   3.389   3.626   5.213  1.9952 -0.0480 -1.9163
10602TIP3    H253298   3.298   3.690   5.111 -0.8695  0.0381  0.5475
10603TIP3   OH253299   1.702   2.188   4.052 -0.3522  0.6664 -0.3025
10603TIP3    H153300   1.768   2.120   4.048 -1.2002 -0.1672 -0.5921
10603TIP3    H253301   1.735   2.258   3.996  0.1798  0.1787 -0.6023
10604TIP3   OH253302   2.369   3.977  13.693 -0.0643  0.1333  0.2935
10604TIP3    H153303   2.353   3.975  13.788  2.0263  0.7125  0.7044
10604TIP3    H253304   2.288   4.012  13.656 -0.2060  1.8487  2.0651
10605TIP3   OH253305   3.591   1.913  11.069  0.6279 -0.9198 -0.1140
10605TIP3    H153306   3.588   1.932  11.163 -1.9295 -0.0122 -0.3240
10605TIP3    H253307   3.639   1.987  11.031 -1.3212  0.5295  0.1303
10606TIP3   OH253308   0.912   3.882  13.713 -0.3300 -0.6849 -0.6885
10606TIP3    H153309   0.970   3.943  13.666 -0.7062 -0.2761 -0.6325
10606TIP3    H253310   0.972   3.820  13.755  0.0326 -0.7039 -1.2262
10607TIP3   OH253311   5.600   5.959   1.687 -0.0127 -0.5820  0.7607
10607TIP3    H153312   5.604   5.914   1.602 -0.1018 -0.0606  0.4806
10607TIP3    H253313   5.685   6.001   1.696 -0.9852  1.8709 -0.4670
10608TIP3   OH253314   0.624   0.380   2.927  0.5405  0.0135 -0.1232
10608TIP3    H153315   0.633   0.415   3.016 -0.2158 -0.5100  0.1782
10608TIP3    H253316   0.537   0.339   2.927  0.5003  0.0793 -1.1329
10609TIP3   OH253317   3.746   4.104   1.395 -0.1569 -0.5692 -0.4477
10609TIP3    H153318   3.658   4.101   1.432 -0.4880  1.5804 -0.9372
10609TIP3    H253319   3.793   4.033   1.440 -1.6019 -0.5541  1.2017
10610TIP3   OH253320   0.186   1.098  14.949  0.2903 -0.4833  0.0707
10610TIP3    H153321   0.155   1.015  14.912  2.0271  0.4383 -4.0783
10610TIP3    H253322   0.107   1.143  14.977 -0.9789 -2.3686 -0.3078
10611TIP3   OH253323   1.169   3.582  12.041  0.4917  0.2033  0.6623
10611TIP3    H153324   1.150   3.652  11.978  0.6628 -0.2273  0.1195
10611TIP3    H253325   1.264   3.579  12.046  0.6648 -1.8865 -1.5763
10612TIP3   OH253326   2.699   2.487  12.574 -0.5647  0.3554  0.0591
10612TIP3    H153327   2.683   2.417  12.511  0.2495 -0.0895  0.3202
10612TIP3    H253328   2.641   2.467  12.647  0.4937 -0.7576  0.6439
10613TIP3   OH253329   6.274   3.111  12.359  0.5878  0.0603 -0.1454
10613TIP3    H153330   6.202   3.100  12.298  1.2796 -0.6870 -0.8641
10613TIP3    H253331   6.332   3.175  12.318  0.3394  0.6623  0.4274
10614TIP3   OH253332   2.043   0.249   1.679  0.0284  0.1452  0.4000
10614TIP3    H153333   2.069   0.187   1.748  0.3904  0.2194  0.3350
10614TIP3    H253334   1.949   0.260   1.690 -0.1771 -0.9616 -0.0217
10615TIP3   OH253335   1.081   3.897   2.303 -0.4906 -0.3014  0.1512
10615TIP3    H153336   1.135   3.946   2.365  0.2003 -0.0370 -0.6421
10615TIP3    H253337   1.142   3.869   2.235 -1.4101  0.3619 -0.9919
10616TIP3   OH253338   3.174   4.393   5.007  0.0703 -0.2207 -0.1453
10616TIP3    H153339   3.258   4.425   4.975  1.0254 -0.6097  1.8699
10616TIP3    H253340   3.192   4.305   5.039 -1.1512 -0.3753  0.1588
10617TIP3   OH253341   3.794   6.338  10.686  0.5551 -0.3755  0.9771
10617TIP3    H153342   3.827   6.424  10.660 -0.6234  0.3033  1.6784
10617TIP3    H253343   3.848   6.276  10.636 -0.4727  0.8102 -1.8418
10618TIP3   OH253344   1.596   5.445   6.057 -0.0638  0.2231 -0.5172
10618TIP3    H153345   1.642   5.366   6.085 -0.3544 -0.4104 -1.7760
10618TIP3    H253346   1.633   5.515   6.111  2.2127 -0.2915 -1.3120
10619TIP3   OH253347   5.669   3.751   5.739  0.5631  0.2178 -0.1973
10619TIP3    H153348   5.741   3.729   5.799 -0.2252  1.6859  1.3961
10619TIP3    H253349   5.611   3.675   5.741  1.1855 -0.2581 -0.0780
10620TIP3   OH253350   2.258   0.648  15.926 -0.5955  0.4800  0.3976
10620TIP3    H153351   2.312   0.589  15.874 -1.1299  0.5314 -0.2304
10620TIP3    H253352   2.228   0.595  15.999 -1.1932 -0.0730 -0.2400
10621TIP3   OH253353   3.832   4.578  11.990  0.5044 -0.3341  0.3945
10621TIP3    H153354   3.847   4.532  11.908 -0.0698 -1.4772  0.9105
10621TIP3    H253355   3.748   4.623  11.977  0.4889 -0.3912  0.2957
10622TIP3   OH253356   1.401   5.405  14.728 -0.0234 -0.1463 -0.0868
10622TIP3    H153357   1.453   5.468  14.778 -1.8633  1.0153  0.4657
10622TIP3    H253358   1.369   5.343  14.793 -0.2884 -0.1544 -0.2236
10623TIP3   OH253359   3.221   2.670  12.897  0.5223 -0.1290 -0.0275
10623TIP3    H153360   3.176   2.654  12.814  0.1149 -1.0850  0.3634
10623TIP3    H253361   3.151   2.675  12.962  0.8221  0.8508  0.2332
10624TIP3   OH253362   2.722   6.019   5.442 -0.1867 -0.3289 -0.0010
10624TIP3    H153363   2.670   6.012   5.362 -1.6726  0.3694  0.8654
10624TIP3    H253364   2.803   6.060   5.415 -0.7553  0.0939 -1.1149
10625TIP3   OH253365   3.812   5.575   4.802  0.5490  0.8023  0.1389
10625TIP3    H153366   3.729   5.536   4.828  0.6624  0.5322  0.1006
10625TIP3    H253367   3.814   5.660   4.847 -0.4106  1.4792 -1.0347
10626TIP3   OH253368   3.148   3.066  15.632  0.6359  0.0064 -0.4254
10626TIP3    H153369   3.233   3.022  15.632  1.0297  0.6642 -2.6190
10626TIP3    H253370   3.142   3.107  15.546 -1.2588  1.2660  0.2465
10627TIP3   OH253371   4.367   3.955   0.647 -0.5247 -0.5078 -0.1630
10627TIP3    H153372   4.289   3.901   0.658  0.5158 -1.9750  0.2506
10627TIP3    H253373   4.378   3.962   0.552 -0.7836 -0.8401 -0.2179
10628TIP3   OH253374   2.351   6.627   2.461 -0.7567 -0.1293  0.4351
10628TIP3    H153375   2.275   6.593   2.507 -0.5370  0.4507  1.2407
10628TIP3    H253376   2.421   6.627   2.526 -1.0428  3.0327  0.9121
10629TIP3   OH253377   6.024   6.046   4.002 -0.5782 -0.3246  0.0392
10629TIP3    H153378   6.049   5.953   4.002  1.3691  0.0783 -2.2852
10629TIP3    H253379   6.008   6.066   3.910 -0.2009  1.8001  0.3844
10630TIP3   OH253380   0.894   5.861  16.012  0.6192  0.2119 -0.5835
10630TIP3    H153381   0.850   5.907  16.084  0.1543  0.6699 -1.1497
10630TIP3    H253382   0.987   5.864  16.036  0.3046 -1.7677  1.1847
10631TIP3   OH253383   3.300   6.055  16.576  0.0895  0.3464 -0.5285
10631TIP3    H153384   3.268   6.140  16.548 -0.9509 -0.0089 -0.4432
10631TIP3    H253385   3.224   5.998  16.575  0.4759 -0.2511  0.7568
10632TIP3   OH253386   4.363   6.207  15.664  0.4809 -0.3529 -0.1745
10632TIP3    H153387   4.395   6.261  15.736  0.1981 -0.0633 -0.2615
10632TIP3    H253388   4.276   6.242  15.645  1.0881  0.5082 -1.5694
10633TIP3   OH253389   4.861   0.288  11.019  0.7647 -0.8169  0.3264
10633TIP3    H153390   4.839   0.381  11.025 -1.0063 -1.1119 -0.9395
10633TIP3    H253391   4.897   0.267  11.105  0.0722  0.7608  1.0525
10634TIP3   OH253392   3.595   4.728  15.280  0.2654  0.3349  0.2200
10634TIP3    H153393   3.637   4.689  15.203  1.5020 -0.7318  1.3799
10634TIP3    H253394   3.646   4.808  15.296 -0.3042  0.8225 -0.3261
10635TIP3   OH253395   3.982   6.300   3.248 -0.2421  0.2144  0.3891
10635TIP3    H153396   3.939   6.330   3.168 -0.6468 -2.4032 -0.4737
10635TIP3    H253397   4.073   6.327   3.237  0.3360 -2.2754 -2.2937
10636TIP3   OH253398   4.100   1.773   3.110  0.0384  0.3459 -0.4633
10636TIP3    H153399   4.006   1.768   3.091  0.0360  3.6167 -1.9474
10636TIP3    H253400   4.140   1.718   3.042 -0.7298 -1.3171  0.3549
10637TIP3   OH253401   5.561   5.275   1.340 -0.0313 -0.7400  0.0252
10637TIP3    H153402   5.541   5.183   1.324  1.1675 -0.8714 -0.8304
10637TIP3    H253403   5.601   5.306   1.259  2.1426 -0.2151  1.2121
10638TIP3   OH253404   3.568   1.945   2.296 -0.1992  0.2173 -0.2161
10638TIP3    H153405   3.486   1.911   2.332 -0.2878  0.1794 -0.4487
10638TIP3    H253406   3.551   1.953   2.202 -0.1950  0.9559 -0.1562
10639TIP3   OH253407   6.816   2.007  16.328 -0.1619 -0.3394  0.0506
10639TIP3    H153408   6.847   2.080  16.381  1.5997 -1.5026  0.6987
10639TIP3    H253409   6.828   2.035  16.238 -0.4411  0.5352  0.2788
10640TIP3   OH253410   3.027   2.153   3.497 -0.0108 -0.1801  0.0685
10640TIP3    H153411   3.008   2.085   3.433  1.2347  1.1449 -1.8079
10640TIP3    H253412   2.958   2.144   3.563 -1.8446 -1.0777 -1.8610
10641TIP3   OH253413   3.235   4.736   0.021 -0.1235  0.3262  0.7738
10641TIP3    H153414   3.316   4.761  -0.023 -0.4361 -1.3391 -0.8807
10641TIP3    H253415   3.260   4.665   0.080  0.1502  2.0394  2.8770
10642TIP3   OH253416   2.823   3.565   4.609 -0.0792  0.2908  0.6437
10642TIP3    H153417   2.764   3.640   4.622 -0.4658 -0.1400  1.4668
10642TIP3    H253418   2.768   3.498   4.567 -0.5953 -0.6086  2.6461
10643TIP3   OH253419   0.499   5.074   4.241 -0.2177  0.1786 -0.0537
10643TIP3    H153420   0.455   5.136   4.182  2.7886  1.3173 -1.3035
10643TIP3    H253421   0.551   5.018   4.182  2.4178  0.9540  1.3889
10644TIP3   OH253422   4.789   0.269   3.722  0.0710 -0.0295 -0.3211
10644TIP3    H153423   4.786   0.364   3.730 -1.8255  0.1899 -2.6889
10644TIP3    H253424   4.703   0.245   3.687  1.7056 -2.2118 -3.2279
10645TIP3   OH253425   3.655   5.091  12.738 -0.0000 -0.3695 -0.2606
10645TIP3    H153426   3.679   5.175  12.700 -2.0059  0.9031  1.1512
10645TIP3    H253427   3.721   5.075  12.806  0.0324  0.3599 -0.1185
10646TIP3   OH253428   2.638   3.135   5.694  0.1566 -0.2101  0.4344
10646TIP3    H153429   2.727   3.108   5.673  0.3131  1.7159 -1.9990
10646TIP3    H253430   2.599   3.156   5.609 -3.2649 -2.6005  1.1982
10647TIP3   OH253431   3.840   2.979   5.608  0.1352  0.2926 -0.9112
10647TIP3    H153432   3.805   2.962   5.520  3.6429 -2.4488 -2.0086
10647TIP3    H253433   3.773   2.943   5.667 -1.4703  0.4834 -2.5044
10648TIP3   OH253434   3.260   2.339   6.287 -0.2768  0.0654 -0.3508
10648TIP3    H153435   3.282   2.322   6.379 -2.0301 -0.3068  0.0327
10648TIP3    H253436   3.318   2.411   6.262  0.3619  0.0629  0.9888
10649TIP3   OH253437   4.220   2.355  12.742 -0.0175  0.0727  0.6577
10649TIP3    H153438   4.171   2.338  12.661 -1.2057  0.4234  1.2825
10649TIP3    H253439   4.245   2.269  12.774  0.3758 -0.0759 -0.0111
10650TIP3   OH253440   3.169   1.776  12.408 -0.4866 -0.0267 -0.0733
10650TIP3    H153441   3.074   1.781  12.419 -0.4665  1.0157 -0.2495
10650TIP3    H253442   3.201   1.864  12.428  0.1833  0.3014 -2.2653
10651TIP3   OH253443   0.161   6.208   3.684  0.6431  0.0124 -0.5396
10651TIP3    H153444   0.081   6.259   3.667  1.9830  2.6187  0.3840
10651TIP3    H253445   0.167   6.148   3.610 -1.6882  0.3509 -1.0856
10652TIP3   OH253446   3.848   0.575   5.183 -0.3460  0.0933 -0.0630
10652TIP3    H153447   3.758   0.545   5.175 -0.4769  0.3026  0.5568
10652TIP3    H253448   3.900   0.495   5.188 -0.5952 -0.0355  0.5570
10653TIP3   OH253449   2.347   5.382  14.159  0.2447  0.4723 -0.2443
10653TIP3    H153450   2.287   5.316  14.194 -2.8113  3.3138  0.4458
10653TIP3    H253451   2.411   5.396  14.229  0.1085 -0.7347  0.1443
10654TIP3   OH253452   0.853   5.118   3.894  0.3955 -0.1683 -0.2404
10654TIP3    H153453   0.769   5.144   3.932  0.5358  1.6506 -1.0655
10654TIP3    H253454   0.901   5.200   3.885  2.0151 -1.1015 -0.3973
10655TIP3   OH253455   5.532   6.628   3.069  0.6742 -0.2300  0.1021
10655TIP3    H153456   5.543   6.543   3.026  0.1122 -0.5586  0.5855
10655TIP3    H253457   5.442   6.654   3.048  0.0291 -0.8893  1.9023
10656TIP3   OH253458   2.832   2.891   4.313  0.2751  0.3090  0.3686
10656TIP3    H153459   2.809   2.947   4.239 -1.5988  1.8027  1.9885
10656TIP3    H253460   2.916   2.925   4.344  1.6806 -1.0416 -1.6232
10657TIP3   OH253461   3.575   5.056   6.084  0.2636  0.2061  0.3716
10657TIP3    H153462   3.607   5.029   6.170 -1.7875  1.5873  1.6813
10657TIP3    H253463   3.492   5.009   6.073  0.5857 -0.0958 -0.9750
10658TIP3   OH253464   0.424   0.808  14.723  0.0924 -0.0115  0.2336
10658TIP3    H153465   0.501   0.755  14.702  0.2821  0.3792 -0.0718
10658TIP3    H253466   0.365   0.796  14.648 -0.9193 -1.6981  1.2297
10659TIP3   OH253467   6.226   1.504   5.769 -0.1369 -0.1777  0.1007
10659TIP3    H153468   6.243   1.442   5.698  2.6342  0.0013  0.4853
10659TIP3    H253469   6.205   1.586   5.724  1.1023 -0.1821 -0.5243
10660TIP3   OH253470   1.378   5.485   1.214 -0.2398  0.3057 -0.3580
10660TIP3    H153471   1.436   5.428   1.163 -1.2361  1.2458 -2.6646
10660TIP3    H253472   1.379   5.447   1.302  2.5809 -0.6398 -0.6940
10661TIP3   OH253473   5.574   2.229   4.416  0.8478  0.6808  0.3552
10661TIP3    H153474   5.478   2.235   4.414  0.6807 -1.4634 -0.3984
10661TIP3    H253475   5.603   2.294   4.353 -0.3281 -0.9393 -2.0064
10662TIP3   OH253476   1.944   2.158   0.655 -1.3141 -0.1027  0.4757
10662TIP3    H153477   1.994   2.234   0.625  0.4450 -1.0881  0.8293
10662TIP3    H253478   1.937   2.102   0.578  1.1180 -1.5177  1.1974
10663TIP3   OH253479   1.753   0.059   2.015 -0.1782  0.3507 -0.0727
10663TIP3    H153480   1.660   0.080   2.028 -0.2254  0.0062  0.1652
10663TIP3    H253481   1.798   0.143   2.026 -0.3895  0.3846  0.5601
10664TIP3   OH253482   0.180   0.590   5.804  0.1487  0.0155  0.3876
10664TIP3    H153483   0.224   0.507   5.817 -2.3201 -1.5138 -0.2785
10664TIP3    H253484   0.135   0.606   5.887 -0.9701 -0.3767 -0.1242
10665TIP3   OH253485   1.039   6.215   1.374 -0.1411  0.2911 -0.0234
10665TIP3    H153486   1.085   6.254   1.448  0.0489 -1.4632  0.8251
10665TIP3    H253487   1.067   6.266   1.298  0.2938  1.6031  0.9830
10666TIP3   OH253488   0.152   1.683   1.711  0.0808 -0.1877  0.5767
10666TIP3    H153489   0.085   1.729   1.762 -0.8684 -0.9174  0.0230
10666TIP3    H253490   0.202   1.753   1.668 -0.4362  0.3656  0.8627
10667TIP3   OH253491   2.137   5.266   2.483  0.0999 -0.4400 -0.3360
10667TIP3    H153492   2.088   5.348   2.482 -0.2088 -0.5809 -2.2776
10667TIP3    H253493   2.113   5.224   2.565  1.0724  1.8414  1.2336
10668TIP3   OH253494   4.665   1.631  15.854 -0.3288  0.5202  0.3802
10668TIP3    H153495   4.699   1.720  15.862 -0.3851  0.6979 -1.0510
10668TIP3    H253496   4.740   1.578  15.828 -0.6326  0.4773 -0.4494
10669TIP3   OH253497   1.131   3.906   2.727  0.1872  0.6680 -0.1019
10669TIP3    H153498   1.101   3.972   2.664  0.6849 -1.3293 -2.5957
10669TIP3    H253499   1.056   3.849   2.740  1.1434 -1.1959 -2.0990
10670TIP3   OH253500   1.253   1.845   4.208  0.2927 -0.0291 -0.6289
10670TIP3    H153501   1.218   1.928   4.242  0.3941 -0.5465  0.8431
10670TIP3    H253502   1.348   1.859   4.204  0.2642  0.0933 -0.8499
10671TIP3   OH253503   5.926   2.222  13.893 -0.2039  0.6425 -0.0018
10671TIP3    H153504   5.874   2.147  13.923  0.7970  0.3481  1.0912
10671TIP3    H253505   5.870   2.266  13.830 -0.6939 -1.2193 -0.9389
10672TIP3   OH253506   0.494   1.712   2.564 -0.2083 -0.6426 -0.3432
10672TIP3    H153507   0.454   1.640   2.612  0.0401 -0.4104  0.2173
10672TIP3    H253508   0.459   1.791   2.605 -0.6253 -0.4321 -1.0749
10673TIP3   OH253509   6.556   4.531  12.509  0.1531  0.1138 -0.2350
10673TIP3    H153510   6.540   4.543  12.415 -1.2647 -2.4875 -0.4060
10673TIP3    H253511   6.645   4.497  12.514  0.9438  2.0416 -0.4268
10674TIP3   OH253512   4.929   0.026  14.664 -0.1050 -0.4255 -0.0038
10674TIP3    H153513   4.853   0.077  14.636 -0.4783 -2.0985 -2.3417
10674TIP3    H253514   4.894  -0.033  14.731 -1.0741 -1.5267 -1.4144
10675TIP3   OH253515   5.593   0.653  11.089  0.3085  0.3050  0.3353
10675TIP3    H153516   5.574   0.667  10.996 -2.7485  1.4553  1.0213
10675TIP3    H253517   5.649   0.727  11.113  0.8093  0.2098 -0.4944
10676TIP3   OH253518   5.065   0.814  14.723 -0.3736 -0.4537 -0.6340
10676TIP3    H153519   5.155   0.825  14.753 -0.3400  0.6868 -1.1064
10676TIP3    H253520   5.060   0.723  14.694  0.9470 -0.2339 -1.6274
10677TIP3   OH253521   0.143   1.214  16.630 -0.3527 -0.7053 -0.3553
10677TIP3    H153522   0.184   1.129  16.648 -1.8844 -1.1410  1.4335
10677TIP3    H253523   0.168   1.269  16.704 -2.4167 -0.8085  0.4893
10678TIP3   OH253524   3.527   5.773   0.692  0.0999 -0.1827  0.1461
10678TIP3    H153525   3.435   5.799   0.692  0.0679 -0.2939  0.4971
10678TIP3    H253526   3.570   5.840   0.745  0.2241 -0.1192 -0.0358
10679TIP3   OH253527   5.077   6.397   0.138 -0.8502 -0.0154  0.9352
10679TIP3    H153528   5.029   6.454   0.198  1.1388  1.6117  1.0980
10679TIP3    H253529   5.147   6.358   0.191  0.2322  0.5456 -0.0175
10680TIP3   OH253530   5.235   0.869  13.148 -0.4445 -0.0911 -0.1750
10680TIP3    H153531   5.271   0.823  13.224 -1.5236 -0.9923 -0.1927
10680TIP3    H253532   5.286   0.837  13.074  0.8832  1.0891  0.1893
10681TIP3   OH253533   0.313   3.874  16.545 -0.0935 -0.8673 -0.2509
10681TIP3    H153534   0.253   3.807  16.579 -1.6182  0.3435 -0.4093
10681TIP3    H253535   0.302   3.868  16.450 -0.5401 -0.1590 -0.2515
10682TIP3   OH253536   4.496   1.738   4.671 -0.6382  0.2000 -0.2141
10682TIP3    H153537   4.525   1.775   4.755  2.1134 -0.3524 -0.8323
10682TIP3    H253538   4.503   1.643   4.683 -1.3265  0.0773 -0.7339
10683TIP3   OH253539   0.973   0.034   6.006  0.0806 -0.2251  0.1924
10683TIP3    H153540   1.019   0.110   5.972 -0.5302 -0.3032 -0.8391
10683TIP3    H253541   0.896   0.025   5.950 -1.8964  0.6275  2.5490
10684TIP3   OH253542   1.685   6.189   0.206 -0.0843  0.3142  0.3260
10684TIP3    H153543   1.618   6.132   0.244  0.8006 -0.7046  0.4208
10684TIP3    H253544   1.637   6.265   0.174 -1.4651 -0.9510 -0.7533
10685TIP3   OH253545   3.126   2.708  11.662 -0.5942  0.0036 -0.2580
10685TIP3    H153546   3.199   2.748  11.615  0.4083  0.2568  1.4585
10685TIP3    H253547   3.056   2.773  11.658 -0.4361  0.1256 -1.1563
10686TIP3   OH253548   3.382   0.793  12.288  0.0008  0.0029  0.5014
10686TIP3    H153549   3.357   0.835  12.370 -3.0548  0.1598 -0.4042
10686TIP3    H253550   3.323   0.718  12.280 -0.2707  0.3937 -1.8469
10687TIP3   OH253551   4.213   3.283   2.856  0.1537 -0.1604 -0.1956
10687TIP3    H153552   4.138   3.273   2.915 -0.0859  3.0969  0.2280
10687TIP3    H253553   4.188   3.233   2.778 -2.9690  1.5433 -0.4545
10688TIP3   OH253554   3.679   4.391   1.076 -0.0497  0.0542 -0.2572
10688TIP3    H153555   3.620   4.443   1.130 -1.2447 -1.2489 -0.2257
10688TIP3    H253556   3.758   4.382   1.129 -0.3980  0.5748  0.3724
10689TIP3   OH253557   4.264   5.053  15.160 -0.7613 -0.5483 -0.2714
10689TIP3    H153558   4.334   5.080  15.100 -1.7493  0.1762 -1.1395
10689TIP3    H253559   4.279   4.959  15.173  0.2684 -0.4383 -0.5697
10690TIP3   OH253560   1.295   3.624  13.213 -0.0786 -0.2248  0.6384
10690TIP3    H153561   1.335   3.681  13.147  0.1508 -2.0929 -0.9275
10690TIP3    H253562   1.202   3.648  13.212 -0.1054 -0.3179 -0.5091
10691TIP3   OH253563   3.590   1.538  14.606  0.5226  0.1910 -0.2420
10691TIP3    H153564   3.651   1.489  14.662  1.5598  0.0242 -1.4683
10691TIP3    H253565   3.507   1.491  14.612  0.7778 -0.1539  0.6864
10692TIP3   OH253566   2.168   5.015   4.006  0.2982  0.8822 -0.6469
10692TIP3    H153567   2.181   4.984   3.916 -0.8898 -2.0169  0.0680
10692TIP3    H253568   2.251   4.996   4.050  0.1798  0.3351 -0.6507
10693TIP3   OH253569   0.980   4.803  16.713 -0.3522  0.0912 -0.5196
10693TIP3    H153570   0.985   4.881  16.768  1.2097 -0.4090  0.0898
10693TIP3    H253571   1.058   4.806  16.658  0.2619 -1.5079  0.1879
10694TIP3   OH253572   0.501   0.147  15.115  0.6197  0.3120 -0.2304
10694TIP3    H153573   0.551   0.074  15.079  0.2287 -1.4981  2.5958
10694TIP3    H253574   0.561   0.189  15.177 -0.0222  0.6839  0.1532
10695TIP3   OH253575   3.608   2.637   4.981 -0.5535  0.6028 -0.1872
10695TIP3    H153576   3.621   2.727   4.949 -1.9409  0.8442 -0.1015
10695TIP3    H253577   3.693   2.613   5.018  0.2260  1.3961 -1.3790
10696TIP3   OH253578   4.299   3.126  15.618 -0.0439  0.0907  0.3886
10696TIP3    H153579   4.359   3.165  15.682 -0.2174 -0.8712  1.1607
10696TIP3    H253580   4.318   3.173  15.537  1.4945  0.0740  0.6970
10697TIP3   OH253581   6.330   2.625  15.482  0.5287  1.1542 -0.5950
10697TIP3    H153582   6.310   2.538  15.447  0.8559  1.0788 -0.6008
10697TIP3    H253583   6.258   2.681  15.451  1.4665  1.3739 -2.5298
10698TIP3   OH253584   6.160   2.098  13.799  0.5307  0.5157 -0.0609
10698TIP3    H153585   6.082   2.150  13.822 -1.0175 -0.9564 -1.6406
10698TIP3    H253586   6.170   2.037  13.872 -0.9622 -0.4612 -0.6048
10699TIP3   OH253587   4.218   6.405   5.407  0.3436 -0.0878  0.0241
10699TIP3    H153588   4.232   6.495   5.439  0.7151 -0.1751  0.1057
10699TIP3    H253589   4.147   6.414   5.343 -2.6039 -0.2894  2.9724
10700TIP3   OH253590   6.495   5.388  15.150 -0.3093 -1.1091 -0.3052
10700TIP3    H153591   6.578   5.352  15.119 -0.2498 -0.3208 -1.0899
10700TIP3    H253592   6.506   5.483  15.142 -1.0219 -0.9714  0.2873
10701TIP3   OH253593   3.809   4.688  11.158  0.2299  0.1984  0.1218
10701TIP3    H153594   3.881   4.685  11.095 -1.0073  0.4908 -1.3397
10701TIP3    H253595   3.810   4.778  11.192  0.6167  0.1642  0.2086
10702TIP3   OH253596   5.396   4.090  14.062  0.2830  0.1347 -0.1893
10702TIP3    H153597   5.462   4.070  14.128 -0.1983  0.9196  0.5506
10702TIP3    H253598   5.446   4.108  13.982  0.8908 -0.4260  0.0550
10703TIP3   OH253599   0.920   0.658  16.105 -0.1580  0.2386  0.1354
10703TIP3    H153600   0.841   0.699  16.070 -0.5763 -0.8662 -0.2483
10703TIP3    H253601   0.983   0.662  16.034 -0.7455 -1.2742 -0.5009
10704TIP3   OH253602   3.465   4.076   4.377  0.4557 -0.8101 -0.3471
10704TIP3    H153603   3.547   4.037   4.406  0.8077 -0.2006 -0.5106
10704TIP3    H253604   3.403   4.003   4.375  0.9277 -1.2238  0.0193
10705TIP3   OH253605   6.326   3.756  12.789 -0.2221  1.0752  0.6540
10705TIP3    H153606   6.337   3.800  12.705 -0.3483  0.3865  0.2627
10705TIP3    H253607   6.253   3.800  12.831 -0.8642  0.7330 -0.0797
10706TIP3   OH253608   1.379   4.937  15.601  0.0712  0.1028  0.3505
10706TIP3    H153609   1.472   4.950  15.620  0.1213 -0.2491  0.3576
10706TIP3    H253610   1.334   4.969  15.680  0.0442  2.3105 -0.4827
10707TIP3   OH253611   0.950   6.154  15.313 -0.4251 -0.0307  0.2521
10707TIP3    H153612   0.925   6.114  15.396 -0.3810  0.9875  0.7796
10707TIP3    H253613   0.949   6.248  15.331 -2.1301  0.3138 -1.3786
10708TIP3   OH253614   2.751   2.545  14.357 -0.0977 -0.6602 -0.2553
10708TIP3    H153615   2.683   2.540  14.291 -2.1013  0.2581  1.6297
10708TIP3    H253616   2.763   2.454  14.387  2.1398 -1.3965 -2.9901
10709TIP3   OH253617   2.630   4.145   5.878  0.1678  0.1613 -0.6132
10709TIP3    H153618   2.638   4.188   5.963  0.1016  0.6278 -0.8414
10709TIP3    H253619   2.538   4.157   5.854  0.3062  0.4863 -0.9912
10710TIP3   OH253620   2.833   1.992   3.374 -0.8787 -0.1073  0.1452
10710TIP3    H153621   2.741   1.988   3.401 -1.1381 -2.1314 -0.9046
10710TIP3    H253622   2.834   1.958   3.285  1.0045 -0.9159  0.4342
10711TIP3   OH253623   4.111   2.764  13.815 -0.0362 -0.2653  0.6244
10711TIP3    H153624   4.170   2.837  13.830  0.4140 -0.3295 -0.6994
10711TIP3    H253625   4.163   2.686  13.836  0.6381 -0.3627 -1.2369
10712TIP3   OH253626   5.549   0.517  14.027  0.5825  0.2162  0.4189
10712TIP3    H153627   5.530   0.607  14.001 -1.4187  0.0278  1.0101
10712TIP3    H253628   5.494   0.502  14.103 -0.3516 -1.9800 -0.5813
10713TIP3   OH253629   1.951   3.306  10.203  0.2830  0.3603 -0.2514
10713TIP3    H153630   2.039   3.305  10.167  0.7938  2.0450  0.8263
10713TIP3    H253631   1.947   3.387  10.254 -1.5730 -0.1647  0.5162
10714TIP3   OH253632   3.194   3.265  16.719  0.6432  0.6467  0.1342
10714TIP3    H153633   3.145   3.187  16.745 -1.1179  1.7792  0.4567
10714TIP3    H253634   3.249   3.237  16.646 -0.2700 -0.7914 -0.0290
10715TIP3   OH253635   5.189   6.595  16.672 -0.1336  0.0886  0.2641
10715TIP3    H153636   5.156   6.683  16.691  1.0808  0.4411  0.8246
10715TIP3    H253637   5.113   6.538  16.686  0.0801  0.5101  4.4668
10716TIP3   OH253638   5.722   0.724   4.394 -0.2889  0.2704  0.6530
10716TIP3    H153639   5.743   0.631   4.396  0.4564  0.4261  0.3942
10716TIP3    H253640   5.633   0.730   4.427 -0.6873 -0.6360 -0.2313
10717TIP3   OH253641   5.833   4.278  15.492 -0.6769 -0.4031 -0.5992
10717TIP3    H153642   5.811   4.368  15.467  0.0228 -0.4099 -1.2865
10717TIP3    H253643   5.837   4.280  15.588  0.7636  0.6724 -0.6415
10718TIP3   OH253644   5.110   2.693  14.449  0.0496  0.1866  0.3264
10718TIP3    H153645   5.159   2.732  14.376  0.6129 -0.5677  0.2860
10718TIP3    H253646   5.126   2.599  14.441 -0.6009  0.0168  0.9115
10719TIP3   OH253647   1.535   2.626   0.833 -0.7191 -0.0341 -0.0934
10719TIP3    H153648   1.600   2.559   0.854 -0.6079  0.7102  2.1472
10719TIP3    H253649   1.484   2.588   0.761 -0.1574 -2.1852  0.5734
10720TIP3   OH253650   3.001   1.142   3.623 -0.0148  0.2757  0.3818
10720TIP3    H153651   2.963   1.208   3.566  0.7342  0.4842  0.1100
10720TIP3    H253652   2.962   1.060   3.594  0.3173  0.3833 -0.3997
10721TIP3   OH253653   4.789   5.012   1.420 -0.0239  0.0973 -0.1884
10721TIP3    H153654   4.818   4.937   1.367  3.0801  0.5606  0.6405
10721TIP3    H253655   4.772   4.976   1.507  1.4671  0.2868  0.2097
10722TIP3   OH253656   1.281   0.136   6.415 -0.4642 -0.3626 -0.3499
10722TIP3    H153657   1.234   0.149   6.498 -0.8819  0.0668 -0.6471
10722TIP3    H253658   1.212   0.127   6.350 -0.2011  2.2003 -1.0959
10723TIP3   OH253659   6.722   3.202   0.896  0.0886 -0.5669  0.1757
10723TIP3    H153660   6.805   3.184   0.940  1.2007  0.6490 -1.3080
10723TIP3    H253661   6.723   3.297   0.881 -1.4654 -0.5739 -0.0852
10724TIP3   OH253662   6.506   3.119  15.213  0.3674  0.1347 -0.0452
10724TIP3    H153663   6.584   3.067  15.229  0.6956  0.5280 -0.3308
10724TIP3    H253664   6.539   3.208  15.198 -0.0800  0.1880 -0.7714
10725TIP3   OH253665   4.178   0.999   5.176  1.1502  0.1140 -0.5767
10725TIP3    H153666   4.182   1.089   5.143  0.2678  0.2950 -0.2168
10725TIP3    H253667   4.215   1.003   5.264  1.0949  0.1287 -0.5544
10726TIP3   OH253668   0.549   1.883   6.134  0.2056  0.0272 -0.5888
10726TIP3    H153669   0.543   1.851   6.224  2.8484  0.9068  0.0132
10726TIP3    H253670   0.530   1.807   6.079 -1.8588 -0.4277  0.6640
10727TIP3   OH253671   5.273   5.210   6.288 -0.6532  0.1359  0.4473
10727TIP3    H153672   5.304   5.273   6.353 -0.5473 -0.4481  0.9726
10727TIP3    H253673   5.252   5.132   6.338  0.6754 -0.7884 -0.3740
10728TIP3   OH253674   2.424   0.885   1.192 -0.2677  0.4489 -0.2617
10728TIP3    H153675   2.380   0.816   1.240 -2.0533  0.2231 -2.0960
10728TIP3    H253676   2.501   0.842   1.154 -1.9651 -0.9315 -2.3430
10729TIP3   OH253677   0.956   3.600  16.220  0.1674 -1.2680 -0.0420
10729TIP3    H153678   0.945   3.510  16.248 -1.2352 -1.2587 -0.4681
10729TIP3    H253679   0.911   3.652  16.287 -1.1884 -1.0905 -1.0369
10730TIP3   OH253680   4.887   6.809   5.362  0.8681 -0.3947 -0.1052
10730TIP3    H153681   4.924   6.845   5.442  2.6405 -1.1007 -0.5552
10730TIP3    H253682   4.925   6.861   5.292 -0.2098 -0.1585 -0.5364
10731TIP3   OH253683   0.877   6.467  15.270 -0.8879 -0.6950  0.6087
10731TIP3    H153684   0.893   6.495  15.180 -0.1923 -0.5095  0.7870
10731TIP3    H253685   0.788   6.432  15.268 -1.7043  1.2715  0.3006
10732TIP3   OH253686   3.534   6.237   5.116  0.3269  0.2948  0.1889
10732TIP3    H153687   3.608   6.223   5.175 -0.3746  0.4031  1.1100
10732TIP3    H253688   3.545   6.170   5.049  0.5553 -0.5320  1.0279
10733TIP3   OH253689   0.769   4.064   1.904 -0.4663  0.3339  0.0489
10733TIP3    H153690   0.713   4.088   1.830 -2.1349 -2.4903  0.2555
10733TIP3    H253691   0.759   4.136   1.966 -0.5542  1.8365 -1.6330
10734TIP3   OH253692   1.783   0.811  17.109 -0.0618  0.0935 -0.3252
10734TIP3    H153693   1.840   0.823  17.033 -0.3818  0.1409 -0.5583
10734TIP3    H253694   1.804   0.885  17.166  1.3923 -0.8563  0.4118
10735TIP3   OH253695   1.795   6.354  15.470 -0.5257 -0.1740  0.0717
10735TIP3    H153696   1.874   6.317  15.430 -1.9091 -1.1193 -1.9836
10735TIP3    H253697   1.725   6.296  15.442 -2.2789  1.8761 -0.0529
10736TIP3   OH253698   1.069   2.994   6.228  0.1312  0.4597  0.4442
10736TIP3    H153699   1.079   2.951   6.313  0.0554 -0.1295  0.1558
10736TIP3    H253700   1.038   2.926   6.170  0.4459  0.7964 -0.1275
10737TIP3   OH253701   3.842   4.669   3.627  0.6099  0.0979 -0.1828
10737TIP3    H153702   3.851   4.678   3.532 -0.2658 -2.7348 -0.6211
10737TIP3    H253703   3.768   4.725   3.650  1.2870  1.3837 -0.9977
10738TIP3   OH253704   0.683   2.635  13.745 -0.4007 -0.0706  0.7083
10738TIP3    H153705   0.685   2.560  13.804  2.0717 -0.7885 -0.1638
10738TIP3    H253706   0.630   2.700  13.790 -0.3152 -1.3455  2.7484
10739TIP3   OH253707   3.401   5.939   5.200  0.3496 -0.6526  0.5248
10739TIP3    H153708   3.452   5.870   5.244  1.3748  0.2910  0.8735
10739TIP3    H253709   3.402   6.012   5.262 -2.2712 -0.9078  0.9496
10740TIP3   OH253710   5.993   4.529  15.600  0.2322  0.0528  0.1985
10740TIP3    H153711   6.068   4.496  15.551 -0.5144 -1.5348  0.0530
10740TIP3    H253712   5.931   4.558  15.533  0.0082 -0.2814  0.2592
10741TIP3   OH253713   5.538   2.206   6.038  0.3045 -0.2836  0.0133
10741TIP3    H153714   5.598   2.269   5.999  1.2333 -1.2730 -0.2307
10741TIP3    H253715   5.580   2.180   6.120  0.1893 -0.9516 -0.1346
10742TIP3   OH253716   5.105   5.537  13.215  0.9411 -0.1196 -0.2314
10742TIP3    H153717   5.089   5.625  13.178  2.3936  0.0950 -0.4010
10742TIP3    H253718   5.054   5.536  13.296 -1.7746 -0.3488 -1.8018
10743TIP3   OH253719   2.525   1.442   4.935  0.6391  0.1639 -0.1140
10743TIP3    H153720   2.526   1.475   4.845 -2.1528  2.8110  0.6595
10743TIP3    H253721   2.596   1.491   4.978 -0.0955  1.3367 -0.1922
10744TIP3   OH253722   1.638   1.190   2.040  0.0873 -0.5587 -0.1936
10744TIP3    H153723   1.644   1.285   2.050  0.8738 -0.7053  1.0012
10744TIP3    H253724   1.702   1.156   2.102 -1.1151 -1.9030  0.3641
10745TIP3   OH253725   1.489   4.310  13.469  0.1019 -0.2227  0.3621
10745TIP3    H153726   1.434   4.293  13.546  0.4290 -2.6144  0.1277
10745TIP3    H253727   1.441   4.271  13.396  0.8834  0.0035 -0.2836
10746TIP3   OH253728   3.607   4.762  12.299 -0.1352 -0.1985  0.3556
10746TIP3    H153729   3.607   4.719  12.213  0.4659 -0.9933  0.7315
10746TIP3    H253730   3.680   4.721  12.345 -0.7004 -0.0634  1.3880
10747TIP3   OH253731   5.756   3.705   3.312 -0.4441  0.2030 -0.7580
10747TIP3    H153732   5.803   3.632   3.273  1.3092  0.5389  0.6118
10747TIP3    H253733   5.718   3.670   3.393  2.7711  1.3306  1.4196
10748TIP3   OH253734   1.511   4.391  11.481 -0.4276  0.3260 -0.1838
10748TIP3    H153735   1.540   4.482  11.482 -0.0662  0.2102 -0.2363
10748TIP3    H253736   1.521   4.363  11.390  0.1974 -0.0048 -0.0142
10749TIP3   OH253737   2.457   4.810  15.283 -0.1783 -0.5715  0.2344
10749TIP3    H153738   2.467   4.904  15.297  1.9703 -0.7504  0.2270
10749TIP3    H253739   2.448   4.774  15.371  2.1320 -0.6188  0.5007
10750TIP3   OH253740   4.028   0.781  15.653 -0.0225 -0.1921  0.5728
10750TIP3    H153741   4.105   0.823  15.694  0.6838  2.6799 -3.1347
10750TIP3    H253742   3.962   0.851  15.650 -1.0659 -1.1843 -0.4828
10751TIP3   OH253743   6.509   3.098   2.161  0.0123  0.4862 -0.0226
10751TIP3    H153744   6.524   3.060   2.074  1.3863 -0.5912  0.6500
10751TIP3    H253745   6.592   3.086   2.207 -1.6776 -2.3835  2.6965
10752TIP3   OH253746   4.429   3.811   5.368  0.4469  0.7895  0.1581
10752TIP3    H153747   4.379   3.880   5.325  0.3647  0.7811  0.2411
10752TIP3    H253748   4.520   3.838   5.358  0.3916  1.1375  0.5812
10753TIP3   OH253749   3.754   6.302   0.095 -0.6441  0.2706 -0.1728
10753TIP3    H153750   3.724   6.333   0.009 -2.1137 -0.7887 -0.0898
10753TIP3    H253751   3.674   6.295   0.147 -0.0102 -0.8521  0.7056
10754TIP3   OH253752   1.462   3.314   2.149 -0.0232 -0.3432 -0.4494
10754TIP3    H153753   1.433   3.397   2.111  0.2658 -0.5644 -1.1582
10754TIP3    H253754   1.406   3.302   2.226  1.7637  1.9671  1.4136
10755TIP3   OH253755   5.272   4.734  14.056 -0.3207 -0.3504 -0.3350
10755TIP3    H153756   5.232   4.811  14.095 -1.2230 -0.8539 -0.2450
10755TIP3    H253757   5.277   4.753  13.962  1.2139  0.5769 -0.1020
10756TIP3   OH253758   3.069   2.105  16.067  0.5712  0.0433 -0.7565
10756TIP3    H153759   3.093   2.012  16.069  0.6881  0.0364 -1.9806
10756TIP3    H253760   3.004   2.114  16.137  3.0581 -0.2154  1.7881
10757TIP3   OH253761   5.470   3.336  11.542 -0.3312  0.1944  0.6119
10757TIP3    H153762   5.504   3.259  11.588  0.4014 -0.0118 -0.2586
10757TIP3    H253763   5.539   3.361  11.482 -0.3860  1.8141  1.1798
10758TIP3   OH253764   4.462   5.319  11.797  0.4551 -0.3057  0.1929
10758TIP3    H153765   4.446   5.334  11.704 -2.2895  0.4754  0.6783
10758TIP3    H253766   4.537   5.375  11.818  0.0758  0.8056 -1.2240
10759TIP3   OH253767   2.282   1.905   6.557  0.6110  0.5470 -0.3143
10759TIP3    H153768   2.196   1.934   6.526  1.0074  0.3874 -1.6347
10759TIP3    H253769   2.325   1.984   6.589  0.3950  0.8127 -0.6845
10760TIP3   OH253770   1.185   4.950   5.362  0.5688  0.0589  0.6068
10760TIP3    H153771   1.241   4.974   5.288 -0.6027  1.2745  0.0607
10760TIP3    H253772   1.149   5.034   5.393 -1.2721 -0.6890  0.6490
10761TIP3   OH253773   3.092   4.100   4.374 -0.4806  0.5620 -0.1555
10761TIP3    H153774   3.112   4.008   4.392 -0.7402 -0.0614 -2.6401
10761TIP3    H253775   3.039   4.098   4.294  1.4851  2.9785 -1.6664
10762TIP3   OH253776   0.350   4.877   1.451  0.2369 -0.0549 -0.6152
10762TIP3    H153777   0.445   4.863   1.451  0.4286  0.7144  1.9775
10762TIP3    H253778   0.337   4.954   1.394  1.2275  0.1360 -0.5947
10763TIP3   OH253779   1.010   1.881   1.769  0.2849  0.7216 -0.1317
10763TIP3    H153780   1.037   1.944   1.701 -0.5026 -1.2833 -2.4651
10763TIP3    H253781   0.922   1.909   1.793  0.3879  1.1952 -0.2879
10764TIP3   OH253782   5.294   3.795  16.328  0.1300 -0.8661 -0.1987
10764TIP3    H153783   5.221   3.793  16.267  1.8056  1.9960 -2.5602
10764TIP3    H253784   5.258   3.758  16.409 -3.8511  0.2101 -1.2437
10765TIP3   OH253785   3.342   3.977   3.918  0.8846 -0.1536  0.4408
10765TIP3    H153786   3.357   4.057   3.969 -0.7315  1.4937 -1.4914
10765TIP3    H253787   3.251   3.982   3.890  1.1527 -1.9259 -0.9869
10766TIP3   OH253788   0.383   4.653  13.411 -0.3477  0.1813 -0.3941
10766TIP3    H153789   0.350   4.673  13.324  0.0331 -0.2681 -0.6465
10766TIP3    H253790   0.451   4.718  13.426 -0.1513  0.0247 -0.5931
10767TIP3   OH253791   3.522   0.748   5.561 -0.1080 -0.3627 -0.3607
10767TIP3    H153792   3.549   0.762   5.652 -0.5085 -1.0647 -0.1306
10767TIP3    H253793   3.428   0.765   5.560 -0.3596 -1.6674 -0.3496
10768TIP3   OH253794   1.135   2.000  14.919 -0.3310  0.2527  0.2158
10768TIP3    H153795   1.118   1.989  15.012 -1.7209 -0.0580 -0.0576
10768TIP3    H253796   1.110   1.916  14.879  1.8437 -0.2376 -0.2614
10769TIP3   OH253797   2.902   4.198   6.059 -0.5268  0.0563 -0.6016
10769TIP3    H153798   2.848   4.242   5.994 -1.8933  0.0830  0.4948
10769TIP3    H253799   2.986   4.184   6.015 -0.6647  2.0135 -1.6221
10770TIP3   OH253800   3.746   3.111  15.176 -0.1873  0.3045 -0.3241
10770TIP3    H153801   3.698   3.194  15.178  0.8969  0.9433 -0.1454
10770TIP3    H253802   3.732   3.074  15.264  0.1700  0.7959 -0.0550
10771TIP3   OH253803   6.159   5.840   3.284 -0.9072  0.0124 -0.4637
10771TIP3    H153804   6.108   5.824   3.363  0.3769 -0.7847  0.2418
10771TIP3    H253805   6.224   5.770   3.283 -0.3233  0.5456 -1.7411
10772TIP3   OH253806   2.337   3.437  16.865 -0.3781 -0.3907 -0.1662
10772TIP3    H153807   2.277   3.496  16.820  0.7939  0.2756 -0.8912
10772TIP3    H253808   2.347   3.362  16.806  0.7312  0.2354 -0.8137
10773TIP3   OH253809   2.633   2.917  13.587 -0.0610  0.6335 -0.6521
10773TIP3    H153810   2.593   3.002  13.606  1.8983  1.6953 -0.9162
10773TIP3    H253811   2.560   2.856  13.583 -1.3974  1.9102  1.6002
10774TIP3   OH253812   4.059   4.598   0.269 -0.1142 -0.3014  1.0847
10774TIP3    H153813   4.153   4.616   0.265 -0.5139  2.0594  0.7544
10774TIP3    H253814   4.034   4.620   0.359 -0.7851  1.9830  0.4144
10775TIP3   OH253815   3.842   1.752   3.034 -0.0754  0.1256 -0.8876
10775TIP3    H153816   3.830   1.777   2.942 -0.6317  0.3862 -0.7516
10775TIP3    H253817   3.771   1.797   3.080  0.4737  0.3624 -0.2606
10776TIP3   OH253818   4.663   1.074  11.460 -0.3273 -0.0285 -0.9808
10776TIP3    H153819   4.741   1.069  11.404  1.2059 -1.9121  1.1273
10776TIP3    H253820   4.611   0.998  11.435 -0.9370  0.5659 -1.5642
10777TIP3   OH253821   2.976   1.643  14.855 -0.5876 -0.1484 -0.5212
10777TIP3    H153822   2.919   1.716  14.880  1.2048  0.6412  1.5293
10777TIP3    H253823   3.017   1.671  14.773  1.7959  2.2964  1.3476
10778TIP3   OH253824   4.758   3.291   3.063  0.0525  0.0246  0.1148
10778TIP3    H153825   4.714   3.315   3.144 -0.9942  2.3510 -1.0625
10778TIP3    H253826   4.690   3.251   3.009  0.3738 -0.1330 -0.1781
10779TIP3   OH253827   1.311   2.917  15.618  0.3493 -0.5824  0.0919
10779TIP3    H153828   1.235   2.931  15.561 -1.1253 -0.6614  1.9438
10779TIP3    H253829   1.317   2.998  15.669  0.2649 -1.3253  1.3217
10780TIP3   OH253830   4.402   0.429   4.277  0.2477  0.1631  0.3845
10780TIP3    H153831   4.375   0.479   4.355 -0.4858 -2.0154  1.6227
10780TIP3    H253832   4.478   0.476   4.244  1.0567  0.7956  2.8661
10781TIP3   OH253833   0.507   0.595   3.562 -0.4072 -0.0519  0.6476
10781TIP3    H153834   0.504   0.505   3.531 -2.9880  0.4096 -0.7927
10781TIP3    H253835   0.503   0.588   3.657 -0.6536 -1.4691  0.5512
10782TIP3   OH253836   2.395   1.419  12.193 -0.4901 -0.3630 -0.1897
10782TIP3    H153837   2.386   1.497  12.246  0.2043 -1.9215  2.3819
10782TIP3    H253838   2.449   1.446  12.119 -0.4310  1.6094  0.5196
10783TIP3   OH253839   2.260   4.571  16.742  0.2075 -0.0288 -0.0719
10783TIP3    H153840   2.327   4.630  16.779  1.0234 -0.7049 -0.4343
10783TIP3    H253841   2.268   4.491  16.794 -0.5255 -0.0161  0.0659
10784TIP3   OH253842   5.071   4.801   0.616  0.4852 -0.1486 -0.2222
10784TIP3    H153843   5.157   4.810   0.657  0.1309  0.5606  0.3926
10784TIP3    H253844   5.013   4.856   0.670 -0.0430  0.6307 -1.5418
10785TIP3   OH253845   2.640   5.200   4.221 -0.3804 -0.6021 -0.0872
10785TIP3    H153846   2.672   5.182   4.132  0.6738  0.9078 -0.0534
10785TIP3    H253847   2.686   5.138   4.277 -1.0232 -1.5390 -0.5686
10786TIP3   OH253848   2.011   4.723  15.391  0.1705  0.0760 -0.2541
10786TIP3    H153849   2.027   4.769  15.309 -0.5009 -1.1528 -1.1096
10786TIP3    H253850   2.098   4.704  15.425  0.4923 -0.5665 -1.3725
10787TIP3   OH253851   3.441   5.727  13.304  0.0196 -0.5164  0.0985
10787TIP3    H153852   3.389   5.671  13.363 -0.2100  1.3304  1.7715
10787TIP3    H253853   3.376   5.784  13.263  0.5862  1.4822  1.8314
10788TIP3   OH253854   4.022   6.489  15.456  0.0250  0.3614  0.1316
10788TIP3    H153855   3.960   6.473  15.527 -1.9575  3.8961 -0.5235
10788TIP3    H253856   4.088   6.547  15.494  0.6771 -0.1518 -0.1913
10789TIP3   OH253857   1.451   3.608   2.843 -0.7442 -0.0513  0.0965
10789TIP3    H153858   1.441   3.636   2.752 -2.0436 -0.5611  0.0701
10789TIP3    H253859   1.479   3.517   2.837  1.7469  0.6316  0.2088
10790TIP3   OH253860   6.399   1.502  14.088  0.2698 -0.1720 -0.3021
10790TIP3    H153861   6.453   1.423  14.080  0.0202 -0.2205 -1.6346
10790TIP3    H253862   6.313   1.475  14.057 -0.6790 -0.1817  2.1042
10791TIP3   OH253863   3.336   6.356   0.065 -0.5095 -0.1109 -0.0767
10791TIP3    H153864   3.305   6.447   0.060  0.8867  0.6252  2.8952
10791TIP3    H253865   3.413   6.355   0.009 -0.1529  0.7350  0.3764
10792TIP3   OH253866   2.275   0.490  16.457 -0.2167 -0.1541  0.2533
10792TIP3    H153867   2.283   0.396  16.439  0.0471  0.1438 -1.2827
10792TIP3    H253868   2.189   0.498  16.499 -0.6421 -0.9716 -0.4252
10793TIP3   OH253869   5.541   3.477  15.892 -0.3915  0.2344  0.4703
10793TIP3    H153870   5.553   3.570  15.875 -0.7592  0.1601 -0.2220
10793TIP3    H253871   5.627   3.447  15.922  0.0148  0.5786 -0.3338
10794TIP3   OH253872   0.656   6.581  11.003 -0.4852  0.6024 -0.1555
10794TIP3    H153873   0.609   6.627  10.933  0.3037 -1.9999 -2.5687
10794TIP3    H253874   0.746   6.612  10.996 -0.2697 -0.1299 -0.7817
10795TIP3   OH253875   6.478   0.617  14.340  0.3692 -0.0347  0.0959
10795TIP3    H153876   6.496   0.617  14.434  0.4598  0.6306  0.0851
10795TIP3    H253877   6.400   0.563  14.331  1.0348 -1.0939  0.4081
10796TIP3   OH253878   3.352   1.698   0.947 -0.1963 -1.0619 -0.2284
10796TIP3    H153879   3.287   1.762   0.975  0.0733 -1.2478  0.9064
10796TIP3    H253880   3.404   1.744   0.881  0.5389  0.2117  1.1757
10797TIP3   OH253881   0.698   1.371  16.590  0.2257  0.0310  0.5921
10797TIP3    H153882   0.672   1.441  16.530 -1.3676 -1.7404 -0.9011
10797TIP3    H253883   0.616   1.343  16.631  0.5052 -2.0890 -0.1616
10798TIP3   OH253884   2.029   1.920   6.449  0.5876 -0.4998 -0.2081
10798TIP3    H153885   1.937   1.909   6.474  0.6779  1.4093  1.1580
10798TIP3    H253886   2.025   1.963   6.363  0.2283 -1.3125 -0.6079
10799TIP3   OH253887   3.692   3.459  15.802 -0.4259 -0.2319 -0.0643
10799TIP3    H153888   3.614   3.412  15.832  0.5421 -0.9103  1.4481
10799TIP3    H253889   3.690   3.542  15.850  0.7703 -1.0468  1.4900
10800TIP3   OH253890   1.507   0.863  14.316  0.0353 -0.3698 -0.5253
10800TIP3    H153891   1.422   0.846  14.356 -0.3976 -0.0174 -1.2919
10800TIP3    H253892   1.570   0.843  14.385 -0.7105  0.6331  0.4725
10801TIP3   OH253893   2.012   6.581  14.108 -0.5135 -0.5329  0.8750
10801TIP3    H153894   1.974   6.625  14.184  0.0832  0.1830  0.7724
10801TIP3    H253895   1.955   6.607  14.035  0.2499  0.7191  0.6825
10802TIP3   OH253896   2.155   3.504  11.150  0.5997 -0.5362 -0.2361
10802TIP3    H153897   2.181   3.593  11.128  1.0132 -0.0988  1.7554
10802TIP3    H253898   2.060   3.505  11.149  0.5300  0.5951  1.9086
10803TIP3   OH253899   3.998   0.848  13.682 -0.2150  0.3953 -0.0967
10803TIP3    H153900   4.001   0.804  13.597  1.3744 -1.3762  0.8227
10803TIP3    H253901   4.058   0.923  13.672 -0.1579  0.2874 -0.5775
10804TIP3   OH253902   3.317   3.515  16.756  0.3189 -0.5439  0.0101
10804TIP3    H153903   3.299   3.422  16.750  0.3119 -0.5761  0.5024
10804TIP3    H253904   3.318   3.545  16.665  0.4710 -1.0479 -0.1565
10805TIP3   OH253905   5.271   5.164   4.863 -0.0362  0.3498 -0.5610
10805TIP3    H153906   5.312   5.243   4.828  0.4727 -0.2439 -1.3507
10805TIP3    H253907   5.260   5.107   4.786  2.4870 -1.6099  0.3811
10806TIP3   OH253908   5.775   3.992  12.951  0.5059  0.0115 -0.1602
10806TIP3    H153909   5.770   4.085  12.973  0.9590 -0.3423  1.5854
10806TIP3    H253910   5.797   3.949  13.034 -0.5909 -1.7470 -0.7182
10807TIP3   OH253911   4.427   5.798  11.808 -0.0110 -0.2308 -0.0370
10807TIP3    H153912   4.510   5.758  11.784 -0.5336 -0.4937 -1.4600
10807TIP3    H253913   4.448   5.891  11.822  0.5753 -0.3532 -0.1133
10808TIP3   OH253914   6.798   1.928  12.482 -0.3894 -0.2663 -1.0939
10808TIP3    H153915   6.804   1.960  12.572  1.1609 -0.3228 -1.1549
10808TIP3    H253916   6.743   1.850  12.488  0.1270 -0.5734 -0.0968
10809TIP3   OH253917   0.344   5.765  13.932  0.4235  0.5562  0.8851
10809TIP3    H153918   0.418   5.821  13.955  1.5159 -0.6477  0.4217
10809TIP3    H253919   0.376   5.676  13.947 -0.7262 -0.0126  0.1003
10810TIP3   OH253920   3.432   4.048  13.528  0.1997 -0.1111  0.1594
10810TIP3    H153921   3.489   4.017  13.598  1.3966  0.6457 -0.4479
10810TIP3    H253922   3.344   4.050  13.568  0.5702 -1.2941  1.1087
10811TIP3   OH253923   2.310   3.151  11.079  0.7889  0.0476 -0.2338
10811TIP3    H153924   2.239   3.130  11.139 -0.4724  0.5260 -1.5040
10811TIP3    H253925   2.332   3.068  11.036  0.9011 -0.0702  0.0489
10812TIP3   OH253926   3.561   4.810   3.330  0.0566  0.2842 -0.0390
10812TIP3    H153927   3.520   4.725   3.344  0.2836 -0.4292 -3.1397
10812TIP3    H253928   3.653   4.796   3.349  0.2221 -0.4052 -1.2581
10813TIP3   OH253929   2.208   1.741   2.215  0.0194 -0.1854 -0.4643
10813TIP3    H153930   2.224   1.824   2.171 -0.4289  0.9431  1.3901
10813TIP3    H253931   2.119   1.749   2.250  0.9624 -0.2078  2.1840
10814TIP3   OH253932   3.827   3.235  11.945 -0.0672 -0.0508  0.0200
10814TIP3    H153933   3.917   3.258  11.969  1.3431 -2.1539 -2.7060
10814TIP3    H253934   3.799   3.306  11.887  0.7698 -0.5621 -1.0298
10815TIP3   OH253935   5.176   2.335   1.612 -0.7658 -0.3583 -0.4937
10815TIP3    H153936   5.158   2.343   1.518  1.1851 -2.2664 -1.1122
10815TIP3    H253937   5.114   2.270   1.643  0.2685 -1.6985 -1.0998
10816TIP3   OH253938   2.017   2.894  11.083  0.0400 -0.5187  0.5683
10816TIP3    H153939   2.106   2.864  11.065 -0.3423 -0.0262 -2.7288
10816TIP3    H253940   2.028   2.982  11.118  0.8696  0.3131 -1.6533
10817TIP3   OH253941   2.132   0.946  12.036  0.0280 -0.4175  0.1719
10817TIP3    H153942   2.077   1.020  12.011  0.4051  0.0234  0.6317
10817TIP3    H253943   2.132   0.889  11.959 -0.6607 -0.1809 -0.0102
10818TIP3   OH253944   0.846   4.456   0.678  0.5154 -0.0217 -0.0766
10818TIP3    H153945   0.935   4.432   0.654  0.7244  0.8116 -0.1665
10818TIP3    H253946   0.817   4.386   0.737  1.1678 -0.3799 -0.1767
10819TIP3   OH253947   1.286   2.742   3.187  0.0721  0.4295  0.7838
10819TIP3    H153948   1.304   2.648   3.183 -0.5951  0.3449 -0.5556
10819TIP3    H253949   1.196   2.747   3.217 -0.6186  0.5412 -1.1823
10820TIP3   OH253950   5.551   5.034  13.323  0.3530 -0.0763 -0.0363
10820TIP3    H153951   5.560   4.939  13.332  2.5527  0.0621 -0.1555
10820TIP3    H253952   5.627   5.061  13.272  0.2030  1.8432  0.6369
10821TIP3   OH253953   3.989   4.839   4.182  0.0042  0.5230 -0.0396
10821TIP3    H153954   3.921   4.882   4.131 -0.1457  0.2468 -0.0746
10821TIP3    H253955   4.006   4.900   4.254  0.1333  0.8575 -0.3517
10822TIP3   OH253956   3.376   2.965  15.496 -0.6553  0.3194  0.1083
10822TIP3    H153957   3.441   2.916  15.546  0.3629  1.4237 -0.0703
10822TIP3    H253958   3.346   2.904  15.429 -0.0964 -0.3415  0.4508
10823TIP3   OH253959   4.254   0.508   1.059 -0.1764 -0.2870 -0.1063
10823TIP3    H153960   4.259   0.588   1.111 -0.6258 -0.1113 -0.3368
10823TIP3    H253961   4.338   0.464   1.076  0.5191  0.7243 -0.7958
10824TIP3   OH253962   3.374   3.650   3.527 -0.8674  0.2958 -0.6491
10824TIP3    H153963   3.382   3.644   3.432 -0.6392  0.9346 -0.6733
10824TIP3    H253964   3.314   3.579   3.550 -1.6209  0.6785 -1.3622
10825TIP3   OH253965   4.171   3.170  14.822  0.2703  0.0135 -0.3617
10825TIP3    H153966   4.112   3.155  14.896 -0.0001  0.1922 -0.5394
10825TIP3    H253967   4.119   3.222  14.760  1.0690  1.4186  0.1030
10826TIP3   OH253968   4.965   3.394   2.100  0.4033  0.7654 -0.8823
10826TIP3    H153969   4.977   3.375   2.007  1.0647  2.0525 -1.0770
10826TIP3    H253970   4.875   3.426   2.106 -0.1843 -0.7836 -0.7958
10827TIP3   OH253971   1.834   3.374   2.689  0.1128  0.1574 -0.1656
10827TIP3    H153972   1.891   3.345   2.619  2.3110  1.8930  0.8080
10827TIP3    H253973   1.892   3.388   2.764 -1.9830 -0.6147  1.7306
10828TIP3   OH253974   3.891   4.891  11.409 -0.5011 -0.6247 -0.0077
10828TIP3    H153975   3.856   4.932  11.488  1.1637  0.4982  0.1884
10828TIP3    H253976   3.834   4.920  11.339 -0.1074  1.0273  0.3234
10829TIP3   OH253977   3.483   0.088   1.611  0.1070 -0.4661  0.0224
10829TIP3    H153978   3.456   0.178   1.594  1.0531  0.4557  2.7602
10829TIP3    H253979   3.579   0.092   1.613  0.1496 -1.4643  0.4760
10830TIP3   OH253980   5.503   5.713   5.395  0.1469  0.0315  0.1957
10830TIP3    H153981   5.502   5.650   5.323 -2.1063  0.5055 -0.2436
10830TIP3    H253982   5.492   5.660   5.474 -0.5962 -0.2350 -0.0804
10831TIP3   OH253983   0.978   1.121   3.072 -0.1971  0.6589 -0.0859
10831TIP3    H153984   0.921   1.192   3.043 -1.3152 -0.3821 -0.5186
10831TIP3    H253985   1.010   1.081   2.992  0.0532  0.3719  0.1550
10832TIP3   OH253986   5.401   3.459   1.844 -0.2676  0.6501 -0.3891
10832TIP3    H153987   5.398   3.551   1.817  1.7960  0.3014 -2.0654
10832TIP3    H253988   5.395   3.462   1.940  2.8151  2.8281 -0.1242
10833TIP3   OH253989   3.461   1.168   4.872  0.3113  1.1550  0.1666
10833TIP3    H153990   3.556   1.164   4.857  0.2280 -1.7927 -0.3132
10833TIP3    H253991   3.423   1.174   4.784  0.0087  2.9037  0.3839
10834TIP3   OH253992   4.498   0.955   6.589 -0.0085 -0.6385  0.8315
10834TIP3    H153993   4.437   0.935   6.661 -0.1079 -1.7584  0.4530
10834TIP3    H253994   4.457   0.916   6.512  0.4275 -0.0195  0.2750
10835TIP3   OH253995   1.685   4.160  14.705 -0.0011 -0.0567  0.5523
10835TIP3    H153996   1.643   4.106  14.772  0.3543 -0.3358  0.5553
10835TIP3    H253997   1.727   4.231  14.754 -0.1211 -0.0083  0.5848
10836TIP3   OH253998   4.153   2.300  10.915  0.0395  0.5944 -0.0014
10836TIP3    H153999   4.241   2.306  10.878 -0.0110  2.0977  0.0955
10836TIP3    H254000   4.108   2.379  10.885 -0.6133  0.8981  1.6652
10837TIP3   OH254001   6.183   4.755  11.316 -0.4570 -0.3706 -0.7168
10837TIP3    H154002   6.110   4.801  11.274  0.4989  0.1244 -1.8875
10837TIP3    H254003   6.258   4.814  11.305  0.1863 -0.9865  0.2352
10838TIP3   OH254004   3.918   0.018  14.672 -0.3176 -0.0410  0.0924
10838TIP3    H154005   3.876   0.056  14.749 -2.4902  0.3272 -1.1921
10838TIP3    H254006   3.983   0.084  14.646 -0.4008  0.3779  0.8884
10839TIP3   OH254007   1.059   4.774  13.091 -0.1465 -0.3168 -0.2366
10839TIP3    H154008   1.037   4.682  13.077 -0.9778 -0.0542 -0.7400
10839TIP3    H254009   1.012   4.820  13.021 -0.3356  0.5543  0.4537
10840TIP3   OH254010   5.682   6.362  13.974  0.8748 -0.7300  0.3772
10840TIP3    H154011   5.633   6.285  14.005 -0.3332 -0.0281  0.2827
10840TIP3    H254012   5.748   6.377  14.041 -0.6011 -0.2612  1.7967
10841TIP3   OH254013   5.604   5.435   4.335 -0.0631 -0.6730  0.0991
10841TIP3    H154014   5.629   5.521   4.300 -1.1784  0.4429  1.8903
10841TIP3    H254015   5.636   5.373   4.270 -0.4155  1.1672 -1.9594
10842TIP3   OH254016   3.502   3.653   1.583 -0.5234  0.9707 -0.3550
10842TIP3    H154017   3.547   3.699   1.654 -0.2893  0.4757 -0.1754
10842TIP3    H254018   3.571   3.603   1.540 -1.1383 -1.1465  0.9848
10843TIP3   OH254019   1.717   6.445  16.033  0.4622  0.8166 -0.2789
10843TIP3    H154020   1.782   6.495  15.984  0.4609  1.1404  0.0496
10843TIP3    H254021   1.731   6.470  16.124  0.7082 -0.0504 -0.0669
10844TIP3   OH254022   0.222   1.525  12.431 -0.2495  0.6199 -0.6811
10844TIP3    H154023   0.132   1.554  12.445 -0.5197 -0.7734  0.8394
10844TIP3    H254024   0.266   1.600  12.390 -1.7386  1.8573 -0.1086
10845TIP3   OH254025   2.202   3.997  16.854 -0.0309  0.3717  0.0185
10845TIP3    H154026   2.159   3.923  16.896  0.2719  0.7549  1.0162
10845TIP3    H254027   2.294   3.971  16.847  0.2411  0.9840  1.1528
10846TIP3   OH254028   5.954   3.897   2.551  0.0618 -0.0834  0.1048
10846TIP3    H154029   6.000   3.821   2.515 -0.3720  0.2923 -1.3004
10846TIP3    H254030   6.011   3.929   2.621  1.5010 -0.1636 -0.9965
10847TIP3   OH254031   2.412   0.369   3.971  0.6267  0.7022 -0.1593
10847TIP3    H154032   2.375   0.454   3.992 -2.2434 -0.5531  0.3125
10847TIP3    H254033   2.359   0.306   4.020  1.7711 -1.4517 -1.5091
10848TIP3   OH254034   6.450   4.049  12.305 -0.0028  0.3731 -0.1547
10848TIP3    H154035   6.479   3.983  12.242  1.5722  1.2114 -0.3738
10848TIP3    H254036   6.487   4.131  12.273 -0.9650  1.1865  0.7202
10849TIP3   OH254037   0.769   6.542  12.699  0.3278  0.3224 -0.5572
10849TIP3    H154038   0.829   6.468  12.693 -0.8449 -1.0675  2.5555
10849TIP3    H254039   0.704   6.526  12.631  0.4679 -1.1925 -0.3600
10850TIP3   OH254040   6.641   0.788   0.613  0.4275 -0.4665 -0.2505
10850TIP3    H154041   6.583   0.712   0.620  0.5917 -0.6357 -0.7415
10850TIP3    H254042   6.683   0.780   0.528 -0.9043  1.1333 -1.1134
10851TIP3   OH254043   4.454   1.719  16.001  0.0204  0.2254  0.4659
10851TIP3    H154044   4.496   1.669  15.931 -1.6375 -0.9827  0.2881
10851TIP3    H254045   4.512   1.708  16.076  0.2970 -0.9953  0.0960
10852TIP3   OH254046   0.395   5.786  10.728  0.2236  0.4093  0.3320
10852TIP3    H154047   0.339   5.773  10.651 -1.5287  3.0252  1.0300
10852TIP3    H254048   0.443   5.867  10.709  0.2109  0.7664  1.6873
10853TIP3   OH254049   3.418   2.211  14.035 -0.1654 -0.1077  0.5522
10853TIP3    H154050   3.457   2.278  14.091  0.7041  0.6122 -0.8491
10853TIP3    H254051   3.333   2.248  14.009  0.2507  0.4181 -0.1033
10854TIP3   OH254052   1.009   1.912  13.707  0.5949 -0.6526 -0.2283
10854TIP3    H154053   1.031   1.846  13.641 -1.6980 -0.9734 -0.7510
10854TIP3    H254054   1.044   1.994  13.672  0.5624 -1.0385 -1.1935
10855TIP3   OH254055   6.678   6.003  15.777  0.4263  0.3343 -0.3113
10855TIP3    H154056   6.673   5.939  15.707 -0.7709  0.3609 -0.2672
10855TIP3    H254057   6.587   6.017  15.803  0.7480  1.3811  0.2854
10856TIP3   OH254058   0.665   5.227  16.708 -0.4168 -0.0211 -0.2980
10856TIP3    H154059   0.755   5.227  16.675  0.0811 -0.0482  0.9863
10856TIP3    H254060   0.625   5.151  16.665  0.0904  0.1368 -1.0810
10857TIP3   OH254061   5.118   6.163   2.111  0.2727  0.1750  0.2352
10857TIP3    H154062   5.119   6.130   2.022 -1.0607  0.8441 -0.0521
10857TIP3    H254063   5.040   6.125   2.150  1.0807 -0.4741  1.2867
10858TIP3   OH254064   0.201   5.551   5.321  0.1226 -0.4209 -0.4957
10858TIP3    H154065   0.221   5.531   5.412 -0.7593 -0.9323 -0.4006
10858TIP3    H254066   0.116   5.509   5.305 -0.6834  1.2954 -0.9802
10859TIP3   OH254067   0.364   5.100   1.827  0.6086 -0.1120  0.0135
10859TIP3    H154068   0.311   5.079   1.903  1.9437  2.8937  1.9827
10859TIP3    H254069   0.428   5.030   1.822  0.5111 -0.3617  1.7202
10860TIP3   OH254070   4.617   1.504   2.087 -0.4658 -0.3636  0.3321
10860TIP3    H154071   4.666   1.513   2.005  0.1657 -0.2808  0.7118
10860TIP3    H254072   4.617   1.593   2.124 -2.7444  0.1321 -0.6760
10861TIP3   OH254073   4.117   3.633   2.122  0.5851 -0.7184 -0.4029
10861TIP3    H154074   4.028   3.631   2.086  0.7566  1.3373 -1.0983
10861TIP3    H254075   4.154   3.548   2.100 -1.2888 -1.7498  0.1786
10862TIP3   OH254076   6.555   5.685  16.213  0.2245 -0.2643 -0.0782
10862TIP3    H154077   6.584   5.601  16.178  0.4693 -0.1087 -0.2453
10862TIP3    H254078   6.613   5.750  16.174 -0.1443  0.0150 -0.1715
10863TIP3   OH254079   5.286   6.746  13.117 -0.1535 -0.4865 -0.2629
10863TIP3    H154080   5.316   6.711  13.033 -0.4944 -0.0429 -0.5769
10863TIP3    H254081   5.318   6.684  13.182  0.5814 -0.5520 -0.6734
10864TIP3   OH254082   5.132   1.516  11.198  0.3157  0.3167  0.3137
10864TIP3    H154083   5.107   1.463  11.274 -2.0708  2.3463  1.0616
10864TIP3    H254084   5.080   1.480  11.126  1.0171 -0.2784  0.0931
10865TIP3   OH254085   0.349   5.471   0.139  0.2102 -0.5074 -0.3323
10865TIP3    H154086   0.386   5.403   0.197  2.9114  1.5202  0.5309
10865TIP3    H254087   0.291   5.521   0.196 -0.3001 -0.9369 -0.4690
10866TIP3   OH254088   0.828   3.632   2.981  0.0639 -0.1214  0.3425
10866TIP3    H154089   0.916   3.659   3.006  0.3489 -2.1057  1.6784
10866TIP3    H254090   0.830   3.626   2.886  0.2758  3.2766  0.0140
10867TIP3   OH254091   2.802   2.343   1.444 -0.0081 -0.1770 -0.0890
10867TIP3    H154092   2.898   2.342   1.449 -0.0625 -0.9425  1.1667
10867TIP3    H254093   2.781   2.430   1.409  1.1251  0.2326  0.2074
10868TIP3   OH254094   2.196   5.971  13.606  1.0061  0.2526 -0.4418
10868TIP3    H154095   2.131   5.923  13.658  0.3321  0.8814 -0.6910
10868TIP3    H254096   2.275   5.916  13.610  0.2939 -0.8170 -0.6034
10869TIP3   OH254097   0.292   6.739   1.708  0.6851 -0.6387 -0.2329
10869TIP3    H154098   0.231   6.760   1.638 -1.3024  1.0333  1.8529
10869TIP3    H254099   0.284   6.644   1.720 -0.0657 -0.7162 -1.2556
10870TIP3   OH254100   0.516   2.450   4.904 -0.5437 -0.4359 -0.1394
10870TIP3    H154101   0.479   2.536   4.883 -0.3132  0.0955  1.4516
10870TIP3    H254102   0.582   2.435   4.835 -0.5759  0.6716 -0.4349
10871TIP3   OH254103   0.251   6.207  15.029  0.2797 -0.3842 -0.1443
10871TIP3    H154104   0.327   6.265  15.029  0.6339 -0.8377 -0.5987
10871TIP3    H254105   0.288   6.119  15.035 -0.1448 -0.6715 -1.4188
10872TIP3   OH254106   0.786   4.048  16.175  0.4028 -0.0716 -0.0933
10872TIP3    H154107   0.868   4.050  16.125 -0.6341  2.1178 -1.9081
10872TIP3    H254108   0.721   4.086  16.116 -2.0375 -2.0110  1.1708
10873TIP3   OH254109   5.923   2.890   3.778  0.7470  0.1362 -0.1622
10873TIP3    H154110   5.923   2.805   3.822  0.4061  0.4983  0.5631
10873TIP3    H254111   5.983   2.944   3.831  1.2638  0.2460 -0.8381
10874TIP3   OH254112   0.226   5.284   2.322  0.0884  0.1379  0.1535
10874TIP3    H154113   0.199   5.215   2.383 -0.2969 -1.9247 -2.2049
10874TIP3    H254114   0.321   5.278   2.321  0.0730 -0.1340  0.1871
10875TIP3   OH254115   3.341   4.204  16.882 -0.4590 -0.2317 -0.0556
10875TIP3    H154116   3.266   4.258  16.856  1.0196  1.1276 -1.7505
10875TIP3    H254117   3.417   4.251  16.847  1.2737 -1.1661  2.2381
10876TIP3   OH254118   6.342   1.668  16.475  0.0511  0.1713 -0.2263
10876TIP3    H154119   6.318   1.684  16.567  0.0091 -2.9685  0.4282
10876TIP3    H254120   6.437   1.656  16.477  0.2833  1.6550 -0.9289
10877TIP3   OH254121   1.288   1.994   3.324  0.1619  0.8639  0.4645
10877TIP3    H154122   1.290   1.955   3.411 -2.5598  2.8513  1.5614
10877TIP3    H254123   1.379   2.022   3.308  1.1870 -1.6064  1.5692
10878TIP3   OH254124   5.645   3.151  11.647  0.3171  0.1818 -0.3309
10878TIP3    H154125   5.716   3.164  11.584  0.9137  2.3002  0.6903
10878TIP3    H254126   5.689   3.145  11.732 -0.7266  3.1689  0.5164
10879TIP3   OH254127   1.950   3.110   2.158  0.2114 -0.0033 -0.1950
10879TIP3    H154128   1.894   3.186   2.142 -0.8748 -0.6915  0.1922
10879TIP3    H254129   2.038   3.138   2.133 -0.6237  0.4576 -2.9369
10880TIP3   OH254130   1.607   2.896  12.327 -0.1896  0.1016  0.4212
10880TIP3    H154131   1.660   2.822  12.300  0.1012 -0.2214  1.8011
10880TIP3    H254132   1.645   2.971  12.283 -0.3633 -0.5191 -0.8358
10881TIP3   OH254133   5.344   0.248  11.178 -0.5974 -0.0718 -0.4781
10881TIP3    H154134   5.382   0.248  11.090 -1.3275 -0.2188 -0.7987
10881TIP3    H254135   5.334   0.341  11.199 -1.4546 -0.0327 -1.0116
10882TIP3   OH254136   5.191   4.587  15.249  0.0519  0.2118  0.7272
10882TIP3    H154137   5.155   4.533  15.179  1.3982 -2.4727  1.9936
10882TIP3    H254138   5.275   4.618  15.214 -0.8134  1.8283 -0.0795
10883TIP3   OH254139   4.960   3.650   0.539  0.6222  0.3614  0.4479
10883TIP3    H154140   4.968   3.557   0.517 -1.3185  0.2419  0.0591
10883TIP3    H254141   4.906   3.651   0.618  2.1760  1.1025  1.5477
10884TIP3   OH254142   6.397   2.471   1.060 -0.5302  0.4417  0.0875
10884TIP3    H154143   6.490   2.452   1.073 -0.0954  2.2598 -0.1627
10884TIP3    H254144   6.395   2.557   1.019 -2.3344  0.3690 -0.0600
10885TIP3   OH254145   6.672   3.408  13.014  0.0486 -0.5560 -0.6940
10885TIP3    H154146   6.747   3.356  12.985  1.6928  2.2062 -1.6800
10885TIP3    H254147   6.637   3.446  12.934  0.0793  1.3353  0.1562
10886TIP3   OH254148   6.522   6.222  15.652 -0.4760  0.0650 -0.3465
10886TIP3    H154149   6.475   6.147  15.616 -1.2016  1.0760 -1.5986
10886TIP3    H254150   6.607   6.220  15.608 -0.9733  0.6888 -1.3824
10887TIP3   OH254151   3.014   6.167   5.788  0.0900  0.3827 -0.0678
10887TIP3    H154152   3.012   6.237   5.853 -2.1738  0.4193 -0.0837
10887TIP3    H254153   2.995   6.087   5.839 -1.9837  0.4484 -0.6480
10888TIP3   OH254154   1.254   2.009  16.918 -0.7522  0.6128 -0.1105
10888TIP3    H154155   1.180   1.953  16.893 -1.5127  2.2474 -1.7158
10888TIP3    H254156   1.287   2.044  16.835  2.0764 -0.3050  0.5117
10889TIP3   OH254157   5.062   1.581   3.277  0.5763  0.1265 -0.1519
10889TIP3    H154158   5.051   1.562   3.184 -1.1789 -1.0162  0.2384
10889TIP3    H254159   5.157   1.587   3.290  0.8486  0.2438 -1.9773
10890TIP3   OH254160   6.065   6.121  12.531  0.3286 -0.0348 -0.3326
10890TIP3    H154161   6.028   6.152  12.613 -0.3845 -1.0705 -0.2346
10890TIP3    H254162   5.992   6.121  12.470  0.7263  0.1903 -0.8156
10891TIP3   OH254163   2.598   4.648  12.326  0.0945  0.1231 -0.4312
10891TIP3    H154164   2.507   4.637  12.356 -0.4749  2.2134 -1.2129
10891TIP3    H254165   2.601   4.602  12.242 -0.6099  1.0268 -0.9718
10892TIP3   OH254166   6.219   3.919   3.472  0.1251 -0.1583  0.5394
10892TIP3    H154167   6.241   3.832   3.505 -0.2806 -0.4864 -0.0638
10892TIP3    H254168   6.302   3.953   3.437  0.0038 -0.8261 -0.4218
10893TIP3   OH254169   5.963   5.574  13.941 -0.4471  0.5732  0.2524
10893TIP3    H154170   6.002   5.535  13.863 -1.0545 -0.7632  0.5961
10893TIP3    H254171   5.877   5.606  13.912 -0.3865  0.6965  0.2104
10894TIP3   OH254172   1.356   1.495   6.404  0.2684 -0.1974  0.6166
10894TIP3    H154173   1.316   1.580   6.386 -2.9611 -2.0452 -2.0376
10894TIP3    H254174   1.301   1.457   6.473  0.9070 -0.6149  0.8985
10895TIP3   OH254175   1.871   6.228   2.902 -0.0776 -0.3693  0.0005
10895TIP3    H154176   1.907   6.265   2.983 -1.0002 -0.0864  0.2924
10895TIP3    H254177   1.802   6.289   2.877 -0.7462 -1.2026 -0.2222
10896TIP3   OH254178   6.225   4.514  12.855  0.0121  0.8958 -0.3364
10896TIP3    H154179   6.273   4.431  12.853  2.5301  2.1387  1.8925
10896TIP3    H254180   6.248   4.556  12.772  0.0118  0.0335 -0.7889
10897TIP3   OH254181   3.489   2.124   3.499  0.1794  0.5032  0.2041
10897TIP3    H154182   3.414   2.163   3.544  0.5830  2.6129 -0.7852
10897TIP3    H254183   3.502   2.180   3.422  2.3795 -0.1530  0.0187
10898TIP3   OH254184   4.202   1.114   4.156  0.2150 -0.2497 -0.0382
10898TIP3    H154185   4.259   1.060   4.210  0.1457  0.4121  0.7231
10898TIP3    H254186   4.125   1.130   4.212 -0.1812 -0.1575 -0.6065
10899TIP3   OH254187   3.831   2.816   3.152 -0.0402 -0.5166 -0.0410
10899TIP3    H154188   3.909   2.852   3.193  1.2421 -3.1436  0.0371
10899TIP3    H254189   3.829   2.855   3.065  1.2147 -0.2268  0.0496
10900TIP3   OH254190   2.095   2.365   2.961 -0.3631 -0.1836 -0.0664
10900TIP3    H154191   2.147   2.299   3.007  0.5608  0.5542 -0.0131
10900TIP3    H254192   2.056   2.318   2.887  0.1508 -0.8126  0.0519
10901TIP3   OH254193   3.238   4.274  13.778  0.4812  0.2171 -0.3320
10901TIP3    H154194   3.230   4.296  13.871  0.7688 -0.9530 -0.0161
10901TIP3    H254195   3.270   4.354  13.737  0.4634  0.7113  0.5980
10902TIP3   OH254196   6.388   1.437   4.097  0.2822  0.2261  0.1057
10902TIP3    H154197   6.433   1.358   4.127  1.3574  1.1159  0.9377
10902TIP3    H254198   6.308   1.440   4.149  1.2760  0.8025  1.6694
10903TIP3   OH254199   4.561   2.629  11.249 -0.2045  0.8140  0.1159
10903TIP3    H154200   4.615   2.609  11.172  1.8308 -0.3987  1.7536
10903TIP3    H254201   4.502   2.699  11.219  1.6985  1.6304 -2.0513
10904TIP3   OH254202   3.101   0.376   4.913 -0.1174 -0.6923  0.3653
10904TIP3    H154203   3.172   0.423   4.870  0.8195 -0.8048  1.7406
10904TIP3    H254204   3.140   0.339   4.992 -1.2846 -2.2261  0.2726
10905TIP3   OH254205   2.239   2.178   6.175 -0.9826  0.0180  0.5709
10905TIP3    H154206   2.266   2.139   6.091 -1.5845  1.0727 -0.1406
10905TIP3    H254207   2.320   2.213   6.212 -0.5225 -1.4226  0.9765
10906TIP3   OH254208   2.263   3.280   4.622 -0.0735  0.1049 -0.6313
10906TIP3    H154209   2.260   3.328   4.705  0.5805 -3.0443  1.3752
10906TIP3    H254210   2.183   3.228   4.621  0.1989 -0.3151 -1.7037
10907TIP3   OH254211   0.528   0.783  13.170 -0.3890 -0.4269 -0.2150
10907TIP3    H154212   0.447   0.733  13.158 -0.0538 -1.0125 -0.1087
10907TIP3    H254213   0.591   0.717  13.199  0.4579 -0.2311 -1.5182
10908TIP3   OH254214   4.561   1.398  12.382  0.1304  0.3367 -0.7051
10908TIP3    H154215   4.621   1.458  12.338  1.3334 -1.3364 -1.4515
10908TIP3    H254216   4.619   1.334  12.424 -1.1138 -1.0714 -1.0700
10909TIP3   OH254217   0.061   3.147   1.240 -0.6536  0.4276  0.3088
10909TIP3    H154218   0.110   3.200   1.177 -2.8472  0.8123 -1.2050
10909TIP3    H254219   0.056   3.060   1.200  0.4218 -0.1666  1.3948
10910TIP3   OH254220   4.705   3.979   0.545 -0.2692 -0.2306 -0.1361
10910TIP3    H154221   4.642   3.911   0.524 -1.6847  0.5443  1.3465
10910TIP3    H254222   4.716   3.974   0.640  1.0800  0.3778 -0.2214
10911TIP3   OH254223   5.411   2.520   5.133 -0.1871  0.4884  0.4538
10911TIP3    H154224   5.332   2.571   5.115 -0.1267 -0.2447 -2.3118
10911TIP3    H254225   5.378   2.435   5.163 -0.5213  0.0100 -1.1782
10912TIP3   OH254226   4.996   1.574   4.410  0.8120  0.3639 -0.3836
10912TIP3    H154227   4.976   1.480   4.416 -2.4188  0.8704 -1.1284
10912TIP3    H254228   4.970   1.597   4.321  2.7125  1.7973 -0.6202
10913TIP3   OH254229   4.635   3.302   3.303 -0.1449 -0.1955 -0.2756
10913TIP3    H154230   4.546   3.292   3.339 -0.0863 -0.1360 -0.1126
10913TIP3    H254231   4.677   3.218   3.320  0.7503  0.6430  2.2085
10914TIP3   OH254232   1.701   4.935  11.581 -0.4176  0.1173 -0.1198
10914TIP3    H154233   1.743   5.006  11.532  0.9190 -0.7643 -0.2993
10914TIP3    H254234   1.613   4.968  11.600 -0.6362  0.9170 -2.2009
10915TIP3   OH254235   1.759   3.752   4.953 -0.3704  0.5541  0.3775
10915TIP3    H154236   1.819   3.815   4.993 -2.3982  2.8301  0.1141
10915TIP3    H254237   1.766   3.770   4.859 -0.0101 -0.5742  0.1786
10916TIP3   OH254238   2.587   1.279   4.045 -0.3123 -0.8719  0.5632
10916TIP3    H154239   2.654   1.337   4.082 -0.0245 -1.7089  1.3777
10916TIP3    H254240   2.584   1.303   3.952  0.7234 -0.4305  0.6285
10917TIP3   OH254241   2.041   5.640   0.368  1.0069 -0.1807 -0.3429
10917TIP3    H154242   2.071   5.550   0.384  2.9155  0.5657  0.6217
10917TIP3    H254243   2.031   5.678   0.455 -0.3473  0.3913 -0.7337
10918TIP3   OH254244   4.813   3.436   2.811  0.7533  0.2900  0.8476
10918TIP3    H154245   4.884   3.394   2.761 -0.1266 -1.3656  0.9186
10918TIP3    H254246   4.787   3.370   2.875 -1.2221  0.6410  0.4743
10919TIP3   OH254247   0.547   2.437  16.501 -0.1615  0.0899 -0.3129
10919TIP3    H154248   0.501   2.396  16.573  2.1266 -1.0069  0.6298
10919TIP3    H254249   0.558   2.367  16.437  1.0530  0.0403 -0.0662
10920TIP3   OH254250   0.505   5.910   2.143 -0.5993  0.6276  0.0201
10920TIP3    H154251   0.551   5.886   2.223  0.1241  0.4571 -0.4438
10920TIP3    H254252   0.412   5.901   2.166 -0.4970  2.4727  1.4444
10921TIP3   OH254253   1.852   2.687   0.626 -0.3670 -0.0646 -0.6443
10921TIP3    H154254   1.886   2.686   0.716  0.6856  2.1369 -0.9364
10921TIP3    H254255   1.834   2.595   0.606 -0.4722 -0.6428  1.7400
10922TIP3   OH254256   4.626   4.236  11.140 -0.6180 -0.0135  0.1511
10922TIP3    H154257   4.654   4.306  11.199  0.9153 -1.5945  1.3891
10922TIP3    H254258   4.632   4.157  11.193 -0.8256 -1.2854 -1.6662
10923TIP3   OH254259   5.682   1.026   4.459 -0.2627  0.6042  0.2445
10923TIP3    H154260   5.668   0.963   4.388  0.0205 -0.6338  1.2546
10923TIP3    H254261   5.679   0.974   4.539  3.8680  1.1302  0.9768
10924TIP3   OH254262   5.794   6.193   2.914  0.2584  0.2874  0.8281
10924TIP3    H154263   5.810   6.216   3.005  1.3079 -1.2590  1.0861
10924TIP3    H254264   5.783   6.277   2.869  3.5130  1.3466  1.7099
10925TIP3   OH254265   4.525   3.680   1.063 -0.9440 -0.0212 -1.2313
10925TIP3    H154266   4.430   3.679   1.070 -0.8152  0.1893  1.2057
10925TIP3    H254267   4.554   3.601   1.110  0.1042  0.1807 -1.5013
10926TIP3   OH254268   1.689   6.133  12.170  0.1428  0.1710  0.1843
10926TIP3    H154269   1.661   6.044  12.188  0.7957 -0.2997 -1.0161
10926TIP3    H254270   1.758   6.124  12.104  0.6984  1.5170  0.5408
10927TIP3   OH254271   3.025   5.182  12.970  0.4208  0.2270 -0.0718
10927TIP3    H154272   3.118   5.180  12.992  0.2458 -0.1430  0.6949
10927TIP3    H254273   3.015   5.120  12.899  0.8112  0.5154 -0.3841
10928TIP3   OH254274   5.667   3.053  14.152 -0.1868  0.5097  0.3765
10928TIP3    H154275   5.664   3.058  14.248  0.6580 -2.4290  0.6371
10928TIP3    H254276   5.600   2.988  14.129 -0.5811  1.3779 -1.0975
10929TIP3   OH254277   1.775   2.405   5.104 -0.3289  0.2292 -0.4595
10929TIP3    H154278   1.867   2.391   5.125 -0.9188 -0.1282  2.1466
10929TIP3    H254279   1.760   2.498   5.123 -0.4712  0.3519 -1.1332
10930TIP3   OH254280   3.159   1.912   2.060 -0.1232 -0.2729 -0.0014
10930TIP3    H154281   3.072   1.935   2.094  0.8772  2.0545  1.2285
10930TIP3    H254282   3.183   1.832   2.107 -0.0267  1.2227  2.7143
10931TIP3   OH254283   4.944   0.721   0.979  0.1126  0.1725 -0.0770
10931TIP3    H154284   4.926   0.781   0.906 -0.2727 -0.3065 -0.3845
10931TIP3    H254285   4.979   0.777   1.048 -1.3549  0.9590  0.0807
10932TIP3   OH254286   5.377   0.012   2.762 -0.1682  0.3311  0.6987
10932TIP3    H154287   5.352  -0.074   2.796  2.0596 -1.1012 -1.0296
10932TIP3    H254288   5.411   0.058   2.838 -0.3507 -0.7168  1.4471
10933TIP3   OH254289   3.373   5.461   0.530  0.3403 -0.1554  0.0886
10933TIP3    H154290   3.375   5.366   0.543 -0.1381 -0.2429 -0.4204
10933TIP3    H254291   3.464   5.484   0.510  0.3547 -0.6093 -0.4212
10934TIP3   OH254292   0.212   0.929  10.409  0.5649 -0.0998  0.0666
10934TIP3    H154293   0.300   0.911  10.443  0.2849  0.6027  1.2139
10934TIP3    H254294   0.153   0.888  10.473  0.0527 -0.0968 -0.3995
10935TIP3   OH254295   1.413   1.220   3.969  0.4062  0.4425 -0.0703
10935TIP3    H154296   1.468   1.282   4.017  0.1630  0.7588 -0.1998
10935TIP3    H254297   1.326   1.260   3.968  0.1784 -0.0292  0.0918
10936TIP3   OH254298   1.838   0.863   1.518  0.1154  0.0531 -0.2179
10936TIP3    H154299   1.791   0.868   1.435 -0.8312  0.3677  0.3164
10936TIP3    H254300   1.879   0.949   1.527  1.4248 -0.4687 -1.0326
10937TIP3   OH254301   1.747   2.855   1.539  0.6309 -0.2759  0.1310
10937TIP3    H154302   1.702   2.927   1.495 -0.5527 -0.2901  1.2577
10937TIP3    H254303   1.833   2.851   1.497  0.0084  0.5000 -1.3031
10938TIP3   OH254304   6.746   2.735  14.567  0.2072 -0.3706 -0.0257
10938TIP3    H154305   6.808   2.668  14.597  1.8228  2.0567  2.5618
10938TIP3    H254306   6.792   2.782  14.499 -0.1200 -0.5727 -0.3935
10939TIP3   OH254307   6.657   5.807  14.118 -0.0657  0.0927 -0.1250
10939TIP3    H154308   6.564   5.797  14.097  0.0230 -0.7796 -0.1364
10939TIP3    H254309   6.702   5.790  14.036  0.0631  1.7074 -0.4097
10940TIP3   OH254310   2.698   4.953   1.294  0.5004  0.1065  0.3346
10940TIP3    H154311   2.639   4.942   1.219  0.0192 -0.0775  0.7345
10940TIP3    H254312   2.706   4.865   1.331  0.5518  0.2370  0.6376
10941TIP3   OH254313   3.953   0.285   0.175  0.5260 -0.2049 -0.0414
10941TIP3    H154314   4.034   0.257   0.131  1.7946 -0.9410  2.5159
10941TIP3    H254315   3.974   0.279   0.269 -2.5957 -0.6535  0.7423
10942TIP3   OH254316   6.749   5.023   5.378  1.0110  0.2836 -0.2975
10942TIP3    H154317   6.798   4.952   5.419 -1.4532 -0.2836  1.9058
10942TIP3    H254318   6.783   5.026   5.288  1.6616 -3.2698 -0.3324
10943TIP3   OH254319   0.237   4.104   3.660  0.4998  0.2281 -0.4417
10943TIP3    H154320   0.286   4.108   3.742  0.8497 -1.4163 -0.5468
10943TIP3    H254321   0.277   4.032   3.611 -1.7036 -0.8773 -0.7256
10944TIP3   OH254322   0.872   3.154   3.849  1.3219  0.2835  0.1197
10944TIP3    H154323   0.947   3.133   3.904  1.4750  1.5896  0.4418
10944TIP3    H254324   0.807   3.087   3.871  2.1919 -0.5583  0.2089
10945TIP3   OH254325   5.450   5.411   2.296  0.3076  0.8864 -0.2141
10945TIP3    H154326   5.506   5.486   2.276 -0.5802  1.7055  0.2526
10945TIP3    H254327   5.436   5.368   2.212  0.7379  1.3227 -0.5105
10946TIP3   OH254328   2.361   2.801  14.269  1.2449  0.1813  0.0792
10946TIP3    H154329   2.278   2.754  14.279  1.8242 -1.0683 -0.7021
10946TIP3    H254330   2.381   2.793  14.176  2.3201  0.3475  0.2878
10947TIP3   OH254331   1.509   2.612  13.622  0.1652 -0.1105 -0.3612
10947TIP3    H154332   1.454   2.553  13.673 -0.4029  2.4769  2.3237
10947TIP3    H254333   1.597   2.600  13.657  0.0622  0.5218  0.1351
10948TIP3   OH254334   4.550   4.013  14.814  0.1884  0.0949 -0.6435
10948TIP3    H154335   4.467   4.045  14.849  0.7038 -0.4297  1.1648
10948TIP3    H254336   4.538   4.014  14.719 -0.8152  2.9475 -0.5929
10949TIP3   OH254337   4.610   4.676   4.952 -0.4867  0.7982 -0.0213
10949TIP3    H154338   4.597   4.691   5.046  0.9275  0.9120  0.1827
10949TIP3    H254339   4.638   4.761   4.918 -0.3865  0.6071 -0.4242
10950TIP3   OH254340   4.469   6.591   2.218  0.0497  0.2782 -0.1191
10950TIP3    H154341   4.518   6.532   2.276  1.9956  1.1910 -0.7439
10950TIP3    H254342   4.523   6.670   2.214 -1.8901  1.6653 -0.2648
10951TIP3   OH254343   4.901   5.980  13.223 -0.0527 -0.0553 -0.6618
10951TIP3    H154344   4.809   5.979  13.196 -0.2637  1.3404 -0.0818
10951TIP3    H254345   4.946   6.023  13.151  0.4074 -2.0623 -1.6177
10952TIP3   OH254346   6.554   0.188  14.750  0.4057 -0.1827 -0.6029
10952TIP3    H154347   6.464   0.173  14.720 -0.5487  1.7388  1.0962
10952TIP3    H254348   6.584   0.262  14.697 -0.1297  1.1130  0.8446
10953TIP3   OH254349   6.788   3.444  17.083  0.1307  0.1401  0.1768
10953TIP3    H154350   6.784   3.538  17.100 -0.5044  0.9162 -3.5019
10953TIP3    H254351   6.829   3.437  16.997  0.8240 -3.0442  0.6536
10954TIP3   OH254352   3.896   5.451  10.971 -0.1264 -0.2589  0.8754
10954TIP3    H154353   3.831   5.446  10.901 -0.3809  0.8371  1.0117
10954TIP3    H254354   3.864   5.520  11.029  0.5901 -0.4724  1.5475
10955TIP3   OH254355   6.363   3.441   6.233 -0.0883  0.2562  0.4024
10955TIP3    H154356   6.452   3.471   6.220 -0.7545  1.2309 -2.8172
10955TIP3    H254357   6.367   3.346   6.218  0.1762  0.5649 -1.8795
10956TIP3   OH254358   0.492   1.094   0.285  0.2157  0.3244 -0.1368
10956TIP3    H154359   0.400   1.067   0.275  0.1237  0.6113 -0.0775
10956TIP3    H254360   0.501   1.115   0.378  0.7262 -1.0774  0.1612
10957TIP3   OH254361   4.176   4.749   4.386 -0.1762 -0.1799 -0.2281
10957TIP3    H154362   4.109   4.815   4.369 -0.3283  0.3926  2.2448
10957TIP3    H254363   4.228   4.747   4.306 -0.2679  2.8618 -0.4668
10958TIP3   OH254364   0.739   5.554   3.412 -0.3744  0.5685 -0.0683
10958TIP3    H154365   0.823   5.513   3.432  0.1360  1.9009  0.6576
10958TIP3    H254366   0.682   5.531   3.485  0.0819  1.5696  0.6282
10959TIP3   OH254367   4.278   4.797  15.298 -0.3207 -0.1402 -0.1290
10959TIP3    H154368   4.274   4.701  15.308  3.4448 -0.4133  0.3645
10959TIP3    H254369   4.267   4.830  15.387 -0.8849 -0.1648 -0.1887
10960TIP3   OH254370   3.521   3.462  15.297 -0.2414  0.2220  0.4789
10960TIP3    H154371   3.556   3.437  15.382  1.0436 -0.9760 -0.3484
10960TIP3    H254372   3.521   3.381  15.246 -2.9629  0.4570 -0.0412
10961TIP3   OH254373   0.192   6.703  13.764 -0.0286  0.5439 -0.3042
10961TIP3    H154374   0.123   6.757  13.725  0.8572  0.5357 -1.9559
10961TIP3    H254375   0.151   6.618  13.776 -0.0267  0.1930 -2.3853
10962TIP3   OH254376   3.998   2.230   5.587  0.6357  0.1506 -0.0937
10962TIP3    H154377   3.956   2.277   5.659 -1.1774 -0.9226 -0.3958
10962TIP3    H254378   4.083   2.203   5.623 -1.0653 -2.2910  2.5233
10963TIP3   OH254379   3.374   5.850   1.375  0.0238 -0.2631  0.0651
10963TIP3    H154380   3.351   5.839   1.467 -0.3858 -0.1296 -0.0164
10963TIP3    H254381   3.452   5.797   1.363  0.3607  0.0973  0.6010
10964TIP3   OH254382   4.767   4.162  10.928 -0.5792  0.4305  0.4810
10964TIP3    H154383   4.699   4.198  10.985 -0.5007  1.8400 -0.2750
10964TIP3    H254384   4.812   4.098  10.983 -2.1016 -0.0735  1.1869
10965TIP3   OH254385   3.042   5.235  10.674 -0.1301 -0.4660  0.0027
10965TIP3    H154386   3.095   5.161  10.704  1.3864  0.3959 -0.4344
10965TIP3    H254387   2.996   5.266  10.753 -0.5790 -1.6777  0.2377
10966TIP3   OH254388   2.019   6.775   2.352 -0.5737 -0.1303 -0.0433
10966TIP3    H154389   2.060   6.775   2.439  1.0184  1.9131 -0.7134
10966TIP3    H254390   1.979   6.861   2.343 -1.0002 -0.4231 -1.2185
10967TIP3   OH254391   3.096   1.609   1.685 -0.4184  0.8006  0.8681
10967TIP3    H154392   3.118   1.690   1.640 -1.0522 -0.5684 -2.1056
10967TIP3    H254393   3.180   1.562   1.692  0.2697  2.2540  4.0633
10968TIP3   OH254394   1.710   5.357  11.653 -0.6227  0.3404 -0.4669
10968TIP3    H154395   1.718   5.391  11.564 -1.7550 -0.9998 -1.1272
10968TIP3    H254396   1.719   5.262  11.644  3.0831  0.3383  1.3881
10969TIP3   OH254397   0.162   6.467   0.636  0.4956  0.6691 -0.3263
10969TIP3    H154398   0.192   6.436   0.551  1.4307  2.5804 -0.7470
10969TIP3    H254399   0.236   6.517   0.671 -0.4722  1.3357  0.8562
10970TIP3   OH254400   3.695   5.573  10.712  0.0976 -0.4278 -0.3549
10970TIP3    H154401   3.747   5.646  10.746  0.2587 -0.3737 -0.7213
10970TIP3    H254402   3.757   5.502  10.702 -0.1437 -0.7619  0.4355
10971TIP3   OH254403   3.166   3.548  12.428  0.6956 -0.3397  0.5111
10971TIP3    H154404   3.251   3.549  12.471  0.7007 -1.9173  0.5806
10971TIP3    H254405   3.167   3.470  12.374 -1.0284 -0.8698  1.1754
10972TIP3   OH254406   5.364   3.569  11.658  0.2053  0.2813  0.3758
10972TIP3    H154407   5.418   3.497  11.628  1.4929  1.4400 -0.1609
10972TIP3    H254408   5.415   3.648  11.640 -0.8313  1.2985  1.6335
10973TIP3   OH254409   0.178   4.255   0.389  0.7414  0.3948  0.4522
10973TIP3    H154410   0.093   4.270   0.347 -0.4657  0.3393  2.6790
10973TIP3    H254411   0.227   4.336   0.374 -0.2682  0.9963  0.3267
10974TIP3   OH254412   0.213   0.461  16.620  0.0382  0.5657 -0.2777
10974TIP3    H154413   0.239   0.538  16.670 -2.6455  0.9701  0.6488
10974TIP3    H254414   0.215   0.389  16.683  1.0054  0.1688 -0.7477
10975TIP3   OH254415   2.772   4.254   1.208  0.2745 -0.4802  0.4202
10975TIP3    H154416   2.800   4.339   1.174 -1.3543 -0.1139 -0.0986
10975TIP3    H254417   2.838   4.192   1.175  0.0219  0.1988 -1.4931
10976TIP3   OH254418   2.606   4.188  13.963  0.2432 -0.0200  0.1654
10976TIP3    H154419   2.699   4.173  13.944 -0.1738 -0.8008 -1.3674
10976TIP3    H254420   2.576   4.242  13.890 -0.5421  0.1053  0.5808
10977TIP3   OH254421   4.051   2.665   2.932 -0.0557  0.4575  0.2664
10977TIP3    H154422   4.012   2.715   2.860  1.9196 -0.1587 -1.3327
10977TIP3    H254423   4.105   2.729   2.979  0.6310  0.3315 -0.3472
10978TIP3   OH254424   0.020   2.564   3.497 -0.0544  0.2527  0.0492
10978TIP3    H154425   0.075   2.489   3.476  1.3663  0.9955  0.9668
10978TIP3    H254426  -0.050   2.527   3.552  1.3313 -0.2368  1.5533
10979TIP3   OH254427   2.622   1.640   1.937  0.4283  0.3174 -0.4345
10979TIP3    H154428   2.600   1.734   1.935 -0.8881  0.0313 -0.9659
10979TIP3    H254429   2.715   1.637   1.918  0.5011  1.5302 -0.3840
10980TIP3   OH254430   3.770   5.477   5.230  0.4162  0.6624 -0.1100
10980TIP3    H154431   3.768   5.458   5.324  0.3262  0.2616 -0.1904
10980TIP3    H254432   3.812   5.563   5.224  0.4200  0.6922  0.2965
10981TIP3   OH254433   4.281   5.332  13.455 -0.1848 -0.4400 -0.5233
10981TIP3    H154434   4.215   5.306  13.519 -0.3464 -0.0958 -0.5495
10981TIP3    H254435   4.361   5.286  13.483 -0.4287 -0.8477 -0.4864
10982TIP3   OH254436   6.098   0.566   3.769 -0.3196 -0.0762 -0.0654
10982TIP3    H154437   6.168   0.630   3.754  1.2226 -2.1374 -2.4512
10982TIP3    H254438   6.017   0.616   3.756  0.7717  1.7513 -0.1153
10983TIP3   OH254439   3.281   1.484   2.930  0.1386 -0.1011 -0.3295
10983TIP3    H154440   3.304   1.436   2.851 -1.0168 -2.6987  0.7667
10983TIP3    H254441   3.211   1.543   2.903  0.4591 -0.2052 -1.4319
10984TIP3   OH254442   5.058   0.432   3.384 -0.1105 -0.3196 -0.1922
10984TIP3    H154443   4.981   0.419   3.328  0.5467  0.6756 -1.3999
10984TIP3    H254444   5.023   0.471   3.464 -0.8438  0.4580 -0.8647
10985TIP3   OH254445   5.407   0.789  11.391 -0.2852  0.3350  0.0942
10985TIP3    H154446   5.460   0.743  11.325 -0.0907  3.6136 -2.3059
10985TIP3    H254447   5.321   0.799  11.350 -1.2162 -0.4483  1.7943
10986TIP3   OH254448   2.950   3.857  14.828 -0.8085 -0.3502 -0.3366
10986TIP3    H154449   2.932   3.942  14.866  0.5308  0.0547 -0.5595
10986TIP3    H254450   2.942   3.795  14.901 -0.6387  0.1145  0.0788
10987TIP3   OH254451   2.318   1.081  14.951 -0.1735 -0.1873 -0.5746
10987TIP3    H154452   2.363   1.113  14.873 -0.1191 -0.6124 -0.7178
10987TIP3    H254453   2.388   1.067  15.015 -0.3295  1.2707 -0.0495
10988TIP3   OH254454   4.404   3.768  14.975 -0.1888 -0.6090  0.6975
10988TIP3    H154455   4.443   3.855  14.977 -0.9808 -0.1286 -1.4999
10988TIP3    H254456   4.325   3.778  14.922  0.5851 -2.9676 -1.0832
10989TIP3   OH254457   5.844   6.635  13.087 -0.4746 -0.1987 -0.5579
10989TIP3    H154458   5.918   6.665  13.141 -1.5571  0.0892  0.8297
10989TIP3    H254459   5.768   6.639  13.146 -1.3352 -2.0575 -1.4557
10990TIP3   OH254460   6.485   6.497   1.006  0.3073 -0.2036 -0.1052
10990TIP3    H154461   6.399   6.539   1.013 -0.3805 -1.3658 -1.0047
10990TIP3    H254462   6.530   6.519   1.088 -1.7274 -1.4275  1.4398
10991TIP3   OH254463   4.653   0.357  13.675  0.2327  0.2508 -0.7336
10991TIP3    H154464   4.677   0.376  13.584 -0.4504  0.8582 -0.7926
10991TIP3    H254465   4.677   0.265  13.687  3.2500  0.9451 -0.5614
10992TIP3   OH254466   0.352   5.660  11.232  0.3281  0.7615  0.3226
10992TIP3    H154467   0.373   5.753  11.239  1.5621  0.6687 -1.3902
10992TIP3    H254468   0.433   5.615  11.253  0.4818  0.1858 -1.3621
10993TIP3   OH254469   1.209   2.436   0.445 -0.6260  0.3974 -0.5912
10993TIP3    H154470   1.148   2.375   0.487 -0.5336 -0.1086 -1.1768
10993TIP3    H254471   1.260   2.381   0.385 -0.8747  1.1195 -1.4856
10994TIP3   OH254472   1.773   1.864  13.981  0.1936  0.5347  0.2754
10994TIP3    H154473   1.701   1.803  13.968  0.8393 -0.4220  1.0284
10994TIP3    H254474   1.732   1.943  14.017 -0.6048  0.4199 -0.3542
10995TIP3   OH254475   3.497   4.892   4.916  0.0578  0.1838 -0.8227
10995TIP3    H154476   3.538   4.976   4.937 -0.3461  0.3267 -0.5946
10995TIP3    H254477   3.406   4.902   4.943  0.4449 -1.0263  1.1939
10996TIP3   OH254478   5.805   1.568   5.796  0.4012 -0.4671  0.3322
10996TIP3    H154479   5.858   1.613   5.730  0.3357  0.2911  0.7844
10996TIP3    H254480   5.867   1.514   5.844  0.3262 -1.6555 -0.8547
10997TIP3   OH254481   2.157   2.597  13.665 -0.2960 -0.0956 -0.0339
10997TIP3    H154482   2.162   2.505  13.641  0.7750  0.1008 -0.5997
10997TIP3    H254483   2.177   2.598  13.759 -2.0096 -0.5925  0.3817
10998TIP3   OH254484   4.790   5.045   1.703 -0.4354  0.3179 -0.3620
10998TIP3    H154485   4.824   5.107   1.768 -2.2890 -0.1793  1.1766
10998TIP3    H254486   4.823   4.960   1.731 -0.2442  0.2472 -0.7990
10999TIP3   OH254487   2.239   4.180   5.352  0.7486  0.5789 -0.3282
10999TIP3    H154488   2.327   4.172   5.317 -0.5841 -1.4293 -3.6804
10999TIP3    H254489   2.189   4.224   5.284 -0.8380  1.9853  1.6297
11000TIP3   OH254490   1.495   5.762   0.916  0.0927 -0.0834 -0.5061
11000TIP3    H154491   1.486   5.853   0.888 -0.6487  0.3250  0.9514
11000TIP3    H254492   1.426   5.750   0.981  0.5925 -1.5038 -0.1958
11001TIP3   OH254493   2.955   5.500  11.283 -0.1122  0.7049  0.0139
11001TIP3    H154494   3.027   5.563  11.275 -0.2626  0.8091 -0.5226
11001TIP3    H254495   2.978   5.448  11.360  1.4568 -0.4146 -1.1394
11002TIP3   OH254496   6.193   4.354   5.392  0.1254  0.0123  0.2069
11002TIP3    H154497   6.242   4.322   5.317  0.6079  0.7858  0.1743
11002TIP3    H254498   6.130   4.417   5.355 -1.6378 -1.7061  0.1213
11003TIP3   OH254499   0.759   0.863  15.963 -0.1493  0.0171  0.3947
11003TIP3    H154500   0.699   0.916  16.015  0.1448 -0.5197  1.3077
11003TIP3    H254501   0.744   0.891  15.873  1.3450  3.0867  0.9602
11004TIP3   OH254502   1.199   4.020   3.714  0.2141 -0.2619  0.3921
11004TIP3    H154503   1.182   4.056   3.801 -1.0017 -0.7104  0.3591
11004TIP3    H254504   1.237   4.093   3.664 -0.4773  0.4321  0.8656
11005TIP3   OH254505   0.896   5.089  11.573 -0.3079 -0.4284  0.4027
11005TIP3    H154506   0.820   5.039  11.602 -0.3299 -0.1439  0.8450
11005TIP3    H254507   0.967   5.025  11.571  0.0303 -0.1920  2.4756
11006TIP3   OH254508   0.837   6.353   3.244  0.6283 -0.0946  0.6924
11006TIP3    H154509   0.786   6.427   3.278 -1.1016 -1.3267  0.9202
11006TIP3    H254510   0.849   6.373   3.151 -2.3253 -0.7836  0.0710
11007TIP3   OH254511   5.239   0.400  15.614 -0.0401 -0.1290  0.6470
11007TIP3    H154512   5.193   0.326  15.653 -0.9040 -0.0738 -0.2224
11007TIP3    H254513   5.327   0.397  15.652 -0.2556 -1.2291  1.0813
11008TIP3   OH254514   3.610   4.405   3.897  0.1947  0.4551 -0.1797
11008TIP3    H154515   3.610   4.475   3.962  3.4673  0.2128  0.2561
11008TIP3    H254516   3.685   4.425   3.840 -2.1477  0.3049 -3.6042
11009TIP3   OH254517   5.798   6.113  13.116 -0.4331  0.3817  0.5278
11009TIP3    H154518   5.782   6.063  13.036 -3.0700  1.6231  0.1661
11009TIP3    H254519   5.805   6.204  13.086  1.5482  0.5760  1.4436
11010TIP3   OH254520   3.057   2.904  12.393  0.0423  0.7458  0.7056
11010TIP3    H154521   3.102   2.820  12.395  0.4140  0.8260 -1.5037
11010TIP3    H254522   3.038   2.918  12.300 -0.9717  2.5991  1.1531
11011TIP3   OH254523   5.264   3.395  16.656  0.3958  0.6721  0.1937
11011TIP3    H154524   5.181   3.426  16.621 -0.1895  0.3082  1.2204
11011TIP3    H254525   5.329   3.457  16.623 -0.0634  0.2019 -1.7513
11012TIP3   OH254526   5.572   3.985   1.638  0.2005 -0.4555  0.3530
11012TIP3    H154527   5.559   3.982   1.543  0.2496  3.6087  0.0118
11012TIP3    H254528   5.652   3.935   1.653 -0.6388 -2.5020 -1.4463
11013TIP3   OH254529   2.671   2.654   5.870 -0.2783 -0.2532  0.0460
11013TIP3    H154530   2.652   2.587   5.936  0.3845 -0.5537 -0.0650
11013TIP3    H254531   2.756   2.689   5.894 -0.4432  0.2750 -0.1281
11014TIP3   OH254532   1.493   2.324  16.173  0.3621  0.1528  0.6209
11014TIP3    H154533   1.582   2.309  16.204 -0.3991 -0.8568  2.4770
11014TIP3    H254534   1.443   2.347  16.251 -1.4897 -1.6286  0.0644
11015TIP3   OH254535   2.600   0.927  17.018 -0.4572 -0.1628 -0.3438
11015TIP3    H154536   2.668   0.903  17.081 -1.1300 -0.5826  0.2372
11015TIP3    H254537   2.538   0.854  17.022 -0.9513  0.2288 -0.8491
11016TIP3   OH254538   2.108   4.666   5.205  0.1766 -0.2797 -0.4301
11016TIP3    H154539   2.124   4.727   5.132  0.9916  0.1625  0.1127
11016TIP3    H254540   2.194   4.647   5.240 -0.0829 -1.6986 -0.5342
11017TIP3   OH254541   0.789   5.956  15.774 -0.1862  0.2761  0.2346
11017TIP3    H154542   0.706   5.990  15.809  1.2757  3.3179  1.1163
11017TIP3    H254543   0.846   5.949  15.850  0.4591 -1.6157 -0.3807
11018TIP3   OH254544   2.187   0.843   1.912  0.1349  0.6948  0.5480
11018TIP3    H154545   2.208   0.888   1.830 -0.5146 -2.9048 -1.8276
11018TIP3    H254546   2.266   0.795   1.935 -1.0146 -2.0485 -0.7651
11019TIP3   OH254547   1.620   2.608  14.330 -0.0116  0.3513  0.1201
11019TIP3    H154548   1.673   2.655  14.266 -0.6626 -1.2417 -1.6862
11019TIP3    H254549   1.665   2.524  14.341 -1.0978 -0.2651  0.0340
11020TIP3   OH254550   3.067   1.001   1.172 -0.1256  0.3435 -0.4261
11020TIP3    H154551   3.042   1.090   1.148 -0.3502  0.6786  0.9745
11020TIP3    H254552   2.985   0.958   1.195  0.0820  0.0438 -0.2340
11021TIP3   OH254553   2.752   4.092  16.149 -0.3953 -1.0693  0.0023
11021TIP3    H154554   2.730   4.060  16.236 -0.7653  0.8366  0.6660
11021TIP3    H254555   2.711   4.029  16.089  2.0992 -3.9311  1.0794
11022TIP3   OH254556   0.352   3.094   1.824 -0.6073 -0.2622  0.4835
11022TIP3    H154557   0.375   3.156   1.755  1.1896 -0.1966  1.0774
11022TIP3    H254558   0.311   3.147   1.892 -1.5111 -0.1732 -0.1284
11023TIP3   OH254559   5.263   3.515  12.568  0.4321 -0.3457 -0.3497
11023TIP3    H154560   5.315   3.543  12.643 -0.4586  2.5334 -0.7236
11023TIP3    H254561   5.311   3.549  12.492  1.0542 -2.7929 -1.1592
11024TIP3   OH254562   5.435   2.192   6.894  0.3211 -0.3013  0.5999
11024TIP3    H154563   5.521   2.175   6.857 -0.2348  0.1690 -0.9670
11024TIP3    H254564   5.374   2.148   6.834 -0.8714  3.4646 -1.2387
11025TIP3   OH254565   3.166   3.411   0.828  0.0768  0.0082  0.9414
11025TIP3    H154566   3.167   3.477   0.758 -0.6084  0.2923  1.1856
11025TIP3    H254567   3.208   3.334   0.790  1.5596  0.8060  0.8866
11026TIP3   OH254568   4.671   2.582   1.473  0.2970  0.0884  0.2395
11026TIP3    H154569   4.642   2.531   1.397  1.2942 -0.5812  0.2758
11026TIP3    H254570   4.635   2.535   1.548 -1.2809  1.1475  0.1817
11027TIP3   OH254571   6.585   5.970  11.544  0.3962  0.1158  0.0350
11027TIP3    H154572   6.507   5.949  11.596 -0.5698  0.6337 -1.1450
11027TIP3    H254573   6.654   5.984  11.608  0.1839 -2.8751  1.0493
11028TIP3   OH254574   3.585   0.679   2.670 -0.3533  0.0781  0.5192
11028TIP3    H154575   3.504   0.629   2.678  0.5322 -1.8199 -1.3611
11028TIP3    H254576   3.636   0.654   2.748 -0.5644 -0.7500  0.4058
11029TIP3   OH254577   6.164   5.784   5.254  0.2241  0.5600 -0.7179
11029TIP3    H154578   6.071   5.783   5.277  0.5792 -1.2775  0.9203
11029TIP3    H254579   6.196   5.698   5.282  2.5216  1.3347 -0.8048
11030TIP3   OH254580   2.883   5.761   2.021  0.3848 -0.3816  0.1427
11030TIP3    H154581   2.795   5.724   2.022  0.8254 -1.5514 -0.6375
11030TIP3    H254582   2.937   5.695   2.065  0.9253  0.1644  0.3154
11031TIP3   OH254583   4.722   0.723   4.864  0.6076  0.2243  0.3989
11031TIP3    H154584   4.752   0.720   4.774 -0.4768 -1.5145  0.0426
11031TIP3    H254585   4.633   0.759   4.860 -0.7352 -2.7567  0.2683
11032TIP3   OH254586   2.098   3.537  12.619 -0.0263  0.2498  0.1605
11032TIP3    H154587   2.179   3.557  12.572  0.8369  0.6379  1.7377
11032TIP3    H254588   2.111   3.448  12.654 -0.6009  0.0169 -0.1906
11033TIP3   OH254589   0.622   4.310  14.969 -0.1678 -0.1129 -0.2307
11033TIP3    H154590   0.662   4.332  14.885 -0.8343 -1.6908 -1.0138
11033TIP3    H254591   0.559   4.380  14.985 -0.1837  0.1010 -1.1527
11034TIP3   OH254592   6.021   0.457   5.479 -0.1224 -0.3820 -0.5798
11034TIP3    H154593   5.991   0.501   5.400 -1.5629 -1.2532 -0.5475
11034TIP3    H254594   6.041   0.529   5.540  2.3014  0.3573 -2.1071
11035TIP3   OH254595   3.773   2.956  12.478  0.1697 -0.2515 -0.4269
11035TIP3    H154596   3.864   2.936  12.457  0.5318  0.1128  0.6915
11035TIP3    H254597   3.725   2.876  12.455  0.6661 -0.2165 -1.6171
11036TIP3   OH254598   5.443   2.116   1.528 -0.3362  0.2643  0.0547
11036TIP3    H154599   5.387   2.190   1.550 -0.1031  1.3792 -2.7916
11036TIP3    H254600   5.532   2.149   1.539 -0.1881 -0.3940  1.0536
11037TIP3   OH254601   3.141   4.752  14.416 -0.1051 -0.1810 -0.0113
11037TIP3    H154602   3.155   4.720  14.505  2.1041 -0.1339 -0.3011
11037TIP3    H254603   3.220   4.802  14.395 -1.4091  1.4517 -1.3074
11038TIP3   OH254604   5.260   1.529  14.506 -0.0203  0.3241  0.5880
11038TIP3    H154605   5.303   1.489  14.430  0.2001  0.6956  0.5142
11038TIP3    H254606   5.214   1.457  14.548 -1.6907  0.4392 -0.9484
11039TIP3   OH254607   1.719   5.909   1.430 -0.3730 -0.2638  0.2977
11039TIP3    H154608   1.793   5.875   1.379  1.0798  0.7915  1.6151
11039TIP3    H254609   1.650   5.924   1.365  0.5573 -1.2596 -0.9712
11040TIP3   OH254610   6.481   3.988   3.419  0.3237  0.4049 -0.6981
11040TIP3    H154611   6.549   3.964   3.482 -0.3862 -0.4880 -0.2689
11040TIP3    H254612   6.499   3.933   3.343  0.1872  0.2944 -0.6504
11041TIP3   OH254613   6.060   5.448   6.565 -0.2943 -0.2546 -0.1212
11041TIP3    H154614   6.079   5.500   6.487  0.2692  0.0073  0.1824
11041TIP3    H254615   6.131   5.468   6.626  0.7884 -2.4970 -0.5312
11042TIP3   OH254616   4.326   3.897  11.186 -0.2892  0.5189 -0.5638
11042TIP3    H154617   4.301   3.874  11.096  0.3633 -1.8748 -0.1996
11042TIP3    H254618   4.260   3.853  11.240 -0.5409  1.7575  0.1724
11043TIP3   OH254619   6.391   2.659   3.950  0.0299  0.2277  0.4821
11043TIP3    H154620   6.473   2.691   3.913 -0.1444  2.1951  1.6274
11043TIP3    H254621   6.354   2.601   3.883  1.4877  0.7004 -0.7726
11044TIP3   OH254622   3.902   1.705   1.193  0.3340  0.5843  0.5049
11044TIP3    H154623   3.830   1.642   1.191 -0.7208  1.7677 -0.4812
11044TIP3    H254624   3.895   1.747   1.278  0.4851  0.0297  0.8011
11045TIP3   OH254625   3.852   6.011   1.829  1.0739 -0.1897 -0.0864
11045TIP3    H154626   3.925   6.072   1.818  0.8574 -0.2541 -2.2448
11045TIP3    H254627   3.794   6.030   1.756 -2.3032  1.4376  2.7356
11046TIP3   OH254628   1.863   2.627  14.490 -0.0677  1.1976  0.1883
11046TIP3    H154629   1.882   2.666  14.405  3.5713  1.6147  1.0232
11046TIP3    H254630   1.805   2.689  14.534  2.6415  3.9741  0.1092
11047TIP3   OH254631   3.894   2.423   4.012  0.1984  0.4136  0.2986
11047TIP3    H154632   3.834   2.349   4.022  2.1785 -1.1917  1.0156
11047TIP3    H254633   3.856   2.475   3.942 -1.6909 -0.8529  0.3083
11048TIP3   OH254634   0.224   2.726  16.974 -0.0164 -0.4020 -0.3102
11048TIP3    H154635   0.158   2.658  16.988  0.7558 -0.9913  0.6021
11048TIP3    H254636   0.197   2.797  17.032 -0.1411 -0.4299 -0.3330
11049TIP3   OH254637   4.029   3.310   4.770 -0.2970  0.9140  0.1835
11049TIP3    H154638   4.049   3.387   4.718 -1.0186  1.1394  0.2253
11049TIP3    H254639   4.091   3.314   4.843  2.8948 -1.0577 -2.1399
11050TIP3   OH254640   5.115   4.988   0.854 -0.1024  0.2615  0.5409
11050TIP3    H154641   5.120   5.048   0.779 -0.8730 -0.9882 -0.5606
11050TIP3    H254642   5.185   4.925   0.839 -1.4254 -1.0993 -0.1777
11051TIP3   OH254643   1.580   3.000  12.972 -0.4223  0.4302 -0.0471
11051TIP3    H154644   1.525   2.935  12.928  0.1511 -0.4405  0.4794
11051TIP3    H254645   1.524   3.033  13.043 -1.0075  1.1301 -0.8204
11052TIP3   OH254646   2.427   3.526  14.629  0.1370  0.1855 -0.4926
11052TIP3    H154647   2.444   3.585  14.555 -0.0889  0.3467 -0.4163
11052TIP3    H254648   2.508   3.476  14.638 -0.4682 -1.1513 -2.0424
11053TIP3   OH254649   0.137   1.990   5.234  0.1950  0.3545  0.4055
11053TIP3    H154650   0.073   2.015   5.301 -2.3823  2.9651 -2.6761
11053TIP3    H254651   0.109   1.904   5.204 -0.1170  0.2414  1.0098
11054TIP3   OH254652   0.919   5.655  13.295 -0.1584  0.4980 -0.7782
11054TIP3    H154653   0.848   5.662  13.359  0.2169  0.3500 -0.3346
11054TIP3    H254654   0.997   5.637  13.348  0.0265 -0.4014 -1.3419
11055TIP3   OH254655   1.359   4.798   3.201 -0.2306  0.3044  0.0628
11055TIP3    H154656   1.355   4.894   3.198 -1.7817  0.4222  2.6151
11055TIP3    H254657   1.309   4.770   3.125  0.1395  1.5237 -0.6595
11056TIP3   OH254658   3.764   6.651  14.550 -0.0741  0.2461 -0.3787
11056TIP3    H154659   3.726   6.592  14.615  1.3276 -1.9519 -1.4133
11056TIP3    H254660   3.806   6.720  14.601  0.8475 -1.3175  1.0951
11057TIP3   OH254661   1.967   1.130   1.056 -0.7333  0.2029 -0.3443
11057TIP3    H154662   2.061   1.131   1.073 -0.6104 -2.0075 -0.6480
11057TIP3    H254663   1.956   1.182   0.977  0.4729 -0.9021 -1.2654
11058TIP3   OH254664   6.324   4.989  13.562  0.3380  0.3174 -0.1068
11058TIP3    H154665   6.353   5.076  13.592  0.9082  0.7384 -1.7491
11058TIP3    H254666   6.235   4.980  13.596  1.3864  0.1186  2.8691
11059TIP3   OH254667   0.323   1.515   6.066  0.8926 -0.1654  0.9169
11059TIP3    H154668   0.363   1.551   5.987 -0.0297 -1.1645 -0.0497
11059TIP3    H254669   0.395   1.473   6.113  1.6385  1.3086  1.1542
11060TIP3   OH254670   4.078   6.234  17.035  0.1517  0.4797 -0.8255
11060TIP3    H154671   4.083   6.289  17.112  0.5297 -0.9249  0.1907
11060TIP3    H254672   4.102   6.292  16.962 -2.1397  2.3347 -0.2031
11061TIP3   OH254673   1.480   5.970  12.163 -0.2937  0.5073  0.2341
11061TIP3    H154674   1.400   5.918  12.160  0.7701 -1.2078 -0.1744
11061TIP3    H254675   1.500   5.990  12.072 -1.2602  2.6512  0.4335
11062TIP3   OH254676   6.767   1.954   3.670 -0.2714  0.4957  0.0316
11062TIP3    H154677   6.672   1.945   3.657 -0.4286  0.7109  0.8886
11062TIP3    H254678   6.806   1.920   3.591 -0.9828 -2.0283  0.6876
11063TIP3   OH254679   3.149   2.960  13.849 -0.3130 -0.0041 -0.1200
11063TIP3    H154680   3.191   2.893  13.797 -1.0575  0.2391 -1.0630
11063TIP3    H254681   3.073   2.987  13.797 -0.8874  0.4812  0.9369
11064TIP3   OH254682   4.061   5.642   3.061  0.0983 -0.0956 -0.2031
11064TIP3    H154683   3.992   5.582   3.034  0.4047  0.1312 -1.5628
11064TIP3    H254684   4.105   5.666   2.979  0.9035  0.8397  0.4851
11065TIP3   OH254685   4.574   2.780   4.948  0.2543  0.2250  0.0068
11065TIP3    H154686   4.603   2.755   5.036 -0.4435  0.3915  0.2958
11065TIP3    H254687   4.652   2.816   4.906  0.6486 -0.0654  0.4815
11066TIP3   OH254688   3.826   6.058   1.311  0.1944 -0.6616  0.1056
11066TIP3    H154689   3.879   5.989   1.349  2.1564  1.3240  1.1849
11066TIP3    H254690   3.786   6.102   1.386 -1.0944 -0.6403 -0.5622
11067TIP3   OH254691   4.645   1.036  15.189 -0.5095  0.2941 -0.4561
11067TIP3    H154692   4.669   0.989  15.109 -1.3815  0.3825 -0.7783
11067TIP3    H254693   4.665   1.128  15.170 -0.5821  0.2957 -0.5272
11068TIP3   OH254694   5.464   1.061  13.268  0.1740 -0.4234  0.0177
11068TIP3    H154695   5.482   0.985  13.213 -0.3594 -1.4051  1.1474
11068TIP3    H254696   5.505   1.040  13.352  2.3255  1.7131 -0.3902
11069TIP3   OH254697   5.194   5.263  16.306 -0.0296 -0.2473  0.2497
11069TIP3    H154698   5.133   5.195  16.334  0.8348 -1.1299  0.0707
11069TIP3    H254699   5.269   5.252  16.364  1.5134 -1.6557 -1.8318
11070TIP3   OH254700   6.232   6.752   5.277 -0.3176 -0.3788  0.7404
11070TIP3    H154701   6.164   6.769   5.212 -0.9563 -3.5018  0.4403
11070TIP3    H254702   6.223   6.824   5.340 -3.2173 -0.0799  0.1544
11071TIP3   OH254703   2.979   6.072   0.094 -0.1226 -0.3935 -0.2035
11071TIP3    H154704   3.073   6.059   0.084  0.1232  1.0159  0.1524
11071TIP3    H254705   2.950   5.996   0.146  0.4963 -1.7286 -1.7243
11072TIP3   OH254706   2.045   4.784   2.434 -0.3440  0.0391 -0.8065
11072TIP3    H154707   1.980   4.854   2.434 -1.6580 -1.1367 -0.3576
11072TIP3    H254708   2.077   4.780   2.524  0.0746  0.3367 -0.9341
11073TIP3   OH254709   0.300   1.430  13.634  0.0008  0.3349  0.0210
11073TIP3    H154710   0.262   1.502  13.582  0.9475  0.3747 -0.6515
11073TIP3    H254711   0.236   1.360  13.628  0.4108  0.0616 -1.8849
11074TIP3   OH254712   2.141   3.144  14.255 -0.4787 -0.1725  0.2601
11074TIP3    H154713   2.199   3.181  14.189 -0.4761  0.0735  0.4008
11074TIP3    H254714   2.200   3.102  14.318 -0.5384 -1.9638 -0.8077
11075TIP3   OH254715   0.076   2.303   7.082 -0.1543  0.4665  0.9899
11075TIP3    H154716   0.055   2.224   7.032 -1.0464  2.1352 -1.4745
11075TIP3    H254717  -0.009   2.343   7.101  0.3173  1.6501  0.7178
11076TIP3   OH254718   6.290   2.894   6.403 -0.0695  0.0886 -0.2185
11076TIP3    H154719   6.298   2.801   6.424 -0.0401 -0.0131 -0.6674
11076TIP3    H254720   6.259   2.934   6.484 -0.2284 -0.3335 -0.0661
11077TIP3   OH254721   1.571   4.652   3.651 -0.4576 -0.6844  0.3163
11077TIP3    H154722   1.576   4.740   3.688 -0.9129 -0.4070 -0.2625
11077TIP3    H254723   1.658   4.637   3.615 -0.5715 -0.1969 -0.1783
11078TIP3   OH254724   1.209   4.405   4.499  0.3178  0.1058  0.3736
11078TIP3    H154725   1.275   4.439   4.438 -0.2412  2.7849  1.1235
11078TIP3    H254726   1.151   4.479   4.514 -0.8210 -1.1413  2.4967
11079TIP3   OH254727   2.382   2.314   1.554 -0.5879 -0.1476  0.9068
11079TIP3    H154728   2.433   2.237   1.578  2.0434  0.9896 -0.6300
11079TIP3    H254729   2.292   2.281   1.546  0.1195 -2.6123  2.1394
11080TIP3   OH254730   5.805   2.607  16.593 -0.0551  0.0865 -0.1581
11080TIP3    H154731   5.724   2.599  16.643 -0.6363 -1.4330 -1.3037
11080TIP3    H254732   5.788   2.563  16.511  2.1633 -0.8977 -0.1606
11081TIP3   OH254733   5.316   5.032  14.726  0.2326 -0.4628  0.3999
11081TIP3    H154734   5.387   5.016  14.664  0.2695 -0.1055  0.3507
11081TIP3    H254735   5.337   4.977  14.801  0.6037 -0.3021  0.4161
11082TIP3   OH254736   6.498   4.981  14.404  0.3996  0.9531  0.4118
11082TIP3    H154737   6.433   5.047  14.379  1.0178  1.5256  0.3175
11082TIP3    H254738   6.551   4.968  14.326  1.0960  1.3034  0.8194
11083TIP3   OH254739   3.507   2.895   1.151 -0.1885 -0.2680  0.1311
11083TIP3    H154740   3.446   2.952   1.198 -0.7460 -0.6773 -0.0754
11083TIP3    H254741   3.514   2.817   1.206  0.1189 -0.2409  0.1327
11084TIP3   OH254742   4.914   0.853   3.569  0.3443  0.9193 -0.0166
11084TIP3    H154743   4.934   0.815   3.655 -1.0599  1.6108  0.6415
11084TIP3    H254744   4.857   0.927   3.587  0.7861  1.6688 -1.4941
11085TIP3   OH254745   2.965   5.513  15.568 -0.4175 -0.4118  0.2730
11085TIP3    H154746   2.994   5.459  15.641 -0.6472 -1.2181 -0.2249
11085TIP3    H254747   3.009   5.477  15.491 -0.7650 -0.0482 -0.1065
11086TIP3   OH254748   3.574   6.732   5.550 -0.5878  0.0890 -0.1572
11086TIP3    H154749   3.588   6.790   5.624  0.5095  3.4727 -2.7326
11086TIP3    H254750   3.481   6.744   5.528 -0.2309  1.5374 -1.0537
11087TIP3   OH254751   0.070   3.142  15.810 -0.6192  0.5989  0.7284
11087TIP3    H154752   0.162   3.166  15.818 -0.1806 -0.5669 -0.4634
11087TIP3    H254753   0.023   3.213  15.853  0.8760  0.6162  2.4683
11088TIP3   OH254754   4.848   4.066  12.240  0.7276 -0.1293 -0.0015
11088TIP3    H154755   4.882   4.012  12.169  1.8454  2.6458 -1.7398
11088TIP3    H254756   4.925   4.082  12.296  0.3825 -0.4044  0.5604
11089TIP3   OH254757   0.311   0.317  17.183  0.0167  0.2470 -0.3899
11089TIP3    H154758   0.268   0.317  17.268  0.2951  0.9937 -0.2448
11089TIP3    H254759   0.287   0.401  17.143  0.9074  0.4460 -0.5224
11090TIP3   OH254760   2.651   4.983  16.720 -0.1585 -0.7758 -0.0185
11090TIP3    H154761   2.655   4.888  16.729 -0.3180 -0.6221  2.2956
11090TIP3    H254762   2.645   5.015  16.810  1.9413  1.5293 -0.6145
11091TIP3   OH254763   4.596   0.326  14.476  0.0392 -0.2057  0.2676
11091TIP3    H154764   4.503   0.336  14.455  0.2045 -0.0187 -0.3875
11091TIP3    H254765   4.611   0.231  14.476 -0.0871 -0.2247  0.1085
11092TIP3   OH254766   1.194   0.409   4.418  0.9786  0.4763 -0.5279
11092TIP3    H154767   1.218   0.338   4.359 -0.3510 -0.3942 -0.0700
11092TIP3    H254768   1.232   0.385   4.502  0.0112 -0.0294 -0.2221
11093TIP3   OH254769   6.612   5.553  10.714 -0.0483  0.5129 -0.3778
11093TIP3    H154770   6.557   5.631  10.718 -1.8206 -0.5527 -2.3294
11093TIP3    H254771   6.616   5.531  10.622  1.4731 -1.0067  0.0116
11094TIP3   OH254772   0.780   3.615  13.563  0.1971  0.4903 -0.0819
11094TIP3    H154773   0.758   3.560  13.637 -0.4595  0.2199 -0.4649
11094TIP3    H254774   0.748   3.702  13.587 -0.2601  0.3449 -0.1522
11095TIP3   OH254775   0.978   3.447  14.289  0.0689  0.3831  0.1473
11095TIP3    H154776   0.942   3.530  14.318  0.0401  0.6184 -0.5343
11095TIP3    H254777   0.975   3.452  14.193  0.8452 -0.0574  0.0927
11096TIP3   OH254778   4.314   5.401   1.593 -0.1357 -0.2754 -0.1345
11096TIP3    H154779   4.399   5.435   1.621 -0.4020  0.5696 -0.3010
11096TIP3    H254780   4.252   5.470   1.617 -0.5426 -0.1071 -1.5580
11097TIP3   OH254781   6.589   6.363   2.016 -0.0307 -0.3532  0.0030
11097TIP3    H154782   6.587   6.325   1.928  1.6938 -2.3965  0.7600
11097TIP3    H254783   6.678   6.398   2.025  0.6422 -2.3178  1.7153
11098TIP3   OH254784   4.734   0.465  14.262  0.0808 -0.0811  0.0447
11098TIP3    H154785   4.698   0.411  14.332 -0.7682  0.2576 -0.1174
11098TIP3    H254786   4.716   0.414  14.182 -0.4818  0.3134 -0.0834
11099TIP3   OH254787   4.583   3.873   1.379 -0.8227  0.2717 -0.0905
11099TIP3    H154788   4.610   3.953   1.334  0.4175  0.3392  0.7506
11099TIP3    H254789   4.615   3.802   1.322  0.2274  0.3629  0.3701
11100TIP3   OH254790   6.808   2.896   3.148  0.2588 -0.2655 -0.3355
11100TIP3    H154791   6.870   2.959   3.111 -0.8503  0.4678 -1.0001
11100TIP3    H254792   6.754   2.947   3.208 -0.5071 -0.6225 -0.7031
11101TIP3   OH254793   1.243   6.424  11.789  0.0708  0.0807  0.1749
11101TIP3    H154794   1.219   6.447  11.879 -0.8270 -2.1329  0.5803
11101TIP3    H254795   1.333   6.454  11.779  0.0523  0.7081  1.6747
11102TIP3   OH254796   0.680   5.077   3.199  0.2341 -0.3692 -0.3776
11102TIP3    H154797   0.595   5.056   3.238 -0.0201 -1.8739 -1.6446
11102TIP3    H254798   0.718   4.992   3.177  1.3010  0.3395 -1.4172
11103TIP3   OH254799   1.182   2.404  14.071 -0.6212  0.2498  0.2727
11103TIP3    H154800   1.209   2.480  14.122  2.4956 -0.5457  0.0180
11103TIP3    H254801   1.099   2.377  14.110 -0.3493  2.0456  2.2661
11104TIP3   OH254802   0.747   5.085   1.490  0.1551  0.0291 -0.1669
11104TIP3    H154803   0.827   5.119   1.448 -0.4640  2.1600  0.2595
11104TIP3    H254804   0.752   5.117   1.580 -0.5897 -0.9128  0.2243
11105TIP3   OH254805   1.607   3.104   5.996  0.0330  0.1426 -0.1533
11105TIP3    H154806   1.558   3.025   6.018  0.7522 -0.6453 -1.2797
11105TIP3    H254807   1.611   3.153   6.078 -1.1122 -0.6011  0.3713
11106TIP3   OH254808   1.756   0.544  14.781  0.7161 -0.8126  0.0740
11106TIP3    H154809   1.682   0.545  14.720  1.6338  1.3893 -1.1059
11106TIP3    H254810   1.798   0.460  14.765  0.7052 -0.4645 -2.0994
11107TIP3   OH254811   2.640   3.338   5.902 -0.6305 -0.2981  0.0933
11107TIP3    H154812   2.655   3.264   5.843 -1.0862 -0.4061  0.1110
11107TIP3    H254813   2.648   3.415   5.845 -0.9402 -0.3960 -0.0873
11108TIP3   OH254814   3.671   3.203   1.164  0.4771 -0.3495  0.7482
11108TIP3    H154815   3.620   3.283   1.172 -0.4140 -1.0480  2.5929
11108TIP3    H254816   3.629   3.154   1.094  1.9057  1.3312 -1.4512
11109TIP3   OH254817   3.503   0.599  15.264 -0.0710 -0.3044 -0.5413
11109TIP3    H154818   3.417   0.572  15.232  0.5458 -1.9712 -0.9020
11109TIP3    H254819   3.534   0.664  15.200 -1.6774  1.5387  0.4477
11110TIP3   OH254820   0.608   2.982   4.276  0.2083 -0.4815  0.6191
11110TIP3    H154821   0.693   2.966   4.316  2.0618  0.8285 -2.3784
11110TIP3    H254822   0.592   3.075   4.291 -0.3761 -0.5824  0.6288
11111TIP3   OH254823   1.745   2.517  16.595 -0.0945  0.1378  0.4862
11111TIP3    H154824   1.661   2.520  16.639 -1.0854  3.1342 -1.3478
11111TIP3    H254825   1.808   2.546  16.661 -1.0392  1.2778  0.9144
11112TIP3   OH254826   3.886   6.204   2.076 -0.1144  0.2668  0.1299
11112TIP3    H154827   3.794   6.222   2.055  0.4976  2.3691 -1.0699
11112TIP3    H254828   3.908   6.267   2.145  0.4932 -0.0834  0.2706
11113TIP3   OH254829   0.674   4.495  15.325  0.8736  0.6669  0.1518
11113TIP3    H154830   0.669   4.566  15.261  0.0515 -1.9880 -2.9805
11113TIP3    H254831   0.583   4.467  15.336  1.3250 -0.8898  0.0993
11114TIP3   OH254832   3.834   2.020  13.893  0.6135 -0.4730  0.0625
11114TIP3    H154833   3.851   2.097  13.839 -1.2143 -0.5149 -0.6388
11114TIP3    H254834   3.824   2.055  13.982  0.2087  0.0519 -0.1846
11115TIP3   OH254835   0.487   5.880   0.621  0.1586 -0.1261  0.3186
11115TIP3    H154836   0.498   5.872   0.527  0.3442 -1.0110  0.4043
11115TIP3    H254837   0.558   5.827   0.658 -0.1440 -0.0998  0.9570
11116TIP3   OH254838   1.760   4.848   5.734 -0.4841 -0.9410  0.8353
11116TIP3    H154839   1.740   4.775   5.676  0.4090 -1.8512  1.6300
11116TIP3    H254840   1.682   4.903   5.731 -0.3813 -0.8354 -1.3619
11117TIP3   OH254841   0.206   6.193   6.955  0.1051  0.1574  0.2426
11117TIP3    H154842   0.221   6.105   6.922  2.2926  0.5445  0.0396
11117TIP3    H254843   0.265   6.201   7.030  0.0695  1.4685  0.1612
11118TIP3   OH254844   6.245   1.156  16.516 -0.0706 -0.1970  0.2091
11118TIP3    H154845   6.253   1.251  16.505 -1.0433 -0.1819 -0.5323
11118TIP3    H254846   6.334   1.127  16.534  0.7116  0.5719 -1.9744
11119TIP3   OH254847   0.313   0.394  15.754  0.2479  0.0358 -0.0058
11119TIP3    H154848   0.392   0.366  15.800 -0.0057 -0.6125  0.0518
11119TIP3    H254849   0.300   0.328  15.686 -0.7886 -0.4285  0.6128
11120TIP3   OH254850   4.147   2.602  11.549 -0.1082  0.1542 -0.3427
11120TIP3    H154851   4.116   2.563  11.631 -0.2490  0.3620 -0.2978
11120TIP3    H254852   4.080   2.666  11.525 -0.7502 -0.8338 -1.3120
11121TIP3   OH254853   3.989   1.694   1.488 -0.4849 -0.3597 -0.2682
11121TIP3    H154854   4.027   1.607   1.477  1.7507  0.7747 -2.6110
11121TIP3    H254855   3.901   1.686   1.451 -0.8592 -1.8936  0.8194
11122TIP3   OH254856   5.695   1.937   2.188 -0.5344  0.4666 -0.5708
11122TIP3    H154857   5.728   1.847   2.179  2.2284  1.0911  1.6702
11122TIP3    H254858   5.613   1.927   2.237 -0.5689 -0.8641 -0.8500
11123TIP3   OH254859   0.995   4.603   4.444  0.4379  0.2532  0.1808
11123TIP3    H154860   1.010   4.674   4.382 -0.7251  0.9136  0.6219
11123TIP3    H254861   0.969   4.529   4.389 -1.2884  1.0284 -0.1092
11124TIP3   OH254862   1.225   0.177   5.406  0.1710  0.0909 -0.1301
11124TIP3    H154863   1.149   0.125   5.379 -1.7389  2.2904  0.7110
11124TIP3    H254864   1.277   0.187   5.326  0.5391 -2.8212 -0.3703
11125TIP3   OH254865   3.549   1.860  12.457 -0.2467 -0.0826  0.8607
11125TIP3    H154866   3.462   1.885  12.424  0.2734  0.6332  0.0045
11125TIP3    H254867   3.546   1.882  12.550 -0.9074  0.1289  0.7980
11126TIP3   OH254868   0.945   1.685   1.515  0.0507  0.2653 -0.0814
11126TIP3    H154869   0.903   1.694   1.600  0.2311  0.2940  0.0070
11126TIP3    H254870   0.873   1.677   1.452 -0.1384  2.0034 -0.1410
11127TIP3   OH254871   4.648   1.561  14.198 -0.2200  0.1764  0.0540
11127TIP3    H154872   4.643   1.607  14.281 -0.7431  0.0800  0.0819
11127TIP3    H254873   4.605   1.477  14.214 -0.1812  0.0924 -0.2674
11128TIP3   OH254874   5.085   2.404   1.337  0.4290 -0.3775  0.4314
11128TIP3    H154875   5.033   2.340   1.288  0.7835 -2.9092  3.0715
11128TIP3    H254876   5.158   2.426   1.278 -0.9896 -0.4920 -1.4582
11129TIP3   OH254877   4.681   1.652   5.547  0.3498  0.6452  0.2124
11129TIP3    H154878   4.631   1.682   5.471 -0.6358  1.3625  1.1106
11129TIP3    H254879   4.651   1.562   5.562  0.5806  0.4849 -0.2627
11130TIP3   OH254880   2.907   4.992   3.655 -0.7623 -0.1527 -0.0160
11130TIP3    H154881   2.883   5.080   3.626 -0.6890 -0.0754  0.1591
11130TIP3    H254882   2.826   4.956   3.691 -0.8596 -0.2576 -0.3374
11131TIP3   OH254883   3.901   1.560   5.439  0.3200  0.3450  1.0584
11131TIP3    H154884   3.887   1.473   5.477 -0.1195 -1.1050 -2.1144
11131TIP3    H254885   3.823   1.576   5.386  1.8238  1.1283 -1.0746
11132TIP3   OH254886   0.681   1.309  12.161 -0.3964  0.1105 -0.0481
11132TIP3    H154887   0.653   1.380  12.104 -0.5490 -0.5070 -0.7652
11132TIP3    H254888   0.764   1.280  12.123 -1.0965 -1.1143 -0.7323
11133TIP3   OH254889   2.663   0.212   1.183 -0.1368 -0.3286 -0.2159
11133TIP3    H154890   2.720   0.142   1.213 -1.0920 -0.5017  1.3117
11133TIP3    H254891   2.618   0.242   1.262 -1.2776  0.6032 -1.1775
11134TIP3   OH254892   0.398   2.333   3.253 -0.1638 -0.5008 -0.4939
11134TIP3    H154893   0.394   2.246   3.214  1.7448 -0.8332 -0.0152
11134TIP3    H254894   0.488   2.362   3.239 -0.6255  1.2027 -0.1948
11135TIP3   OH254895   0.684   1.321  12.993 -0.0821  0.1331  0.3689
11135TIP3    H154896   0.623   1.295  13.061 -0.1089  0.3848  0.4412
11135TIP3    H254897   0.651   1.406  12.962  0.4087  0.4259  0.6320
11136TIP3   OH254898   3.727   3.534   1.492 -0.0126 -0.2286  0.2149
11136TIP3    H154899   3.790   3.539   1.563  0.0431  0.3816  0.1319
11136TIP3    H254900   3.773   3.571   1.416 -0.2483 -0.3864 -0.0078
11137TIP3   OH254901   2.988   6.337   0.816  0.0285  0.9411 -0.3043
11137TIP3    H154902   3.011   6.317   0.906  1.8199  1.6845 -0.5633
11137TIP3    H254903   3.028   6.267   0.764 -2.0681 -0.2283 -0.5082
11138TIP3   OH254904   6.411   2.586   2.219 -0.0595  0.2779  0.0189
11138TIP3    H154905   6.440   2.661   2.166  1.5792 -1.2906 -1.4539
11138TIP3    H254906   6.334   2.553   2.173  0.6113 -0.3176 -0.7045
11139TIP3   OH254907   0.468   1.528  14.390 -0.2804 -0.3494  0.0049
11139TIP3    H154908   0.552   1.521  14.344 -1.0341 -1.8974 -1.2406
11139TIP3    H254909   0.480   1.601  14.452  2.0316 -0.6651  0.0152
11140TIP3   OH254910   1.396   2.084  14.492  0.1211 -0.2052  0.7392
11140TIP3    H154911   1.417   1.991  14.498 -0.1646 -0.2990  0.3329
11140TIP3    H254912   1.345   2.102  14.571  1.3201 -0.0728  1.5182
11141TIP3   OH254913   1.187   3.904  12.544  0.1944 -0.1691 -0.1347
11141TIP3    H154914   1.250   3.964  12.584  0.3267  1.1338 -2.1294
11141TIP3    H254915   1.224   3.886  12.457 -1.3258 -0.8010 -0.6854
11142TIP3   OH254916   5.142   5.253  11.019 -0.0503  0.2821 -0.2308
11142TIP3    H154917   5.112   5.263  11.109 -0.3156  1.0166 -0.3918
11142TIP3    H254918   5.093   5.179  10.985  0.0659 -0.0129  0.2343
11143TIP3   OH254919   0.594   0.040   2.991 -0.0858 -0.9194  0.3887
11143TIP3    H154920   0.597   0.044   2.895  1.6268 -1.5969  0.3854
11143TIP3    H254921   0.681   0.067   3.019 -0.1989 -1.8390  1.7156
11144TIP3   OH254922   6.296   6.738  12.575  0.6641  0.2368  0.4920
11144TIP3    H154923   6.329   6.822  12.542  2.2058  0.3566  2.1928
11144TIP3    H254924   6.218   6.761  12.626 -2.0559  0.0020 -3.1730
11145TIP3   OH254925   2.557   1.043   4.526 -0.4222 -0.0712  0.2464
11145TIP3    H154926   2.560   1.131   4.487 -1.4724  0.0225  0.3535
11145TIP3    H254927   2.467   1.034   4.558 -0.5015 -1.4171 -0.2986
11146TIP3   OH254928   1.312   4.195   0.132 -0.0122  0.2410  0.9562
11146TIP3    H154929   1.223   4.222   0.109  0.8168  1.6559 -0.7963
11146TIP3    H254930   1.315   4.204   0.227 -0.7091  3.7209  0.7750
11147TIP3   OH254931   2.705   2.270  12.382  0.5249 -0.2356  0.0258
11147TIP3    H154932   2.633   2.219  12.419 -1.2235  2.0015 -0.0966
11147TIP3    H254933   2.711   2.240  12.291  1.6342 -2.3395  0.7202
11148TIP3   OH254934   6.015   6.053  13.945 -0.3264 -0.0811 -0.0278
11148TIP3    H154935   5.976   6.081  14.028  2.1464  3.4058  0.1817
11148TIP3    H254936   6.091   6.002  13.970  1.5255  2.5349  0.1199
11149TIP3   OH254937   2.466   6.554   4.617 -0.6619  0.0128 -0.4548
11149TIP3    H154938   2.465   6.491   4.546 -0.2072 -2.4085  1.5683
11149TIP3    H254939   2.398   6.525   4.677 -1.9230  2.7300 -0.3933
11150TIP3   OH254940   6.613   1.130  15.975  0.3205  0.0144  0.6518
11150TIP3    H154941   6.599   1.214  16.019  0.0816  0.5867 -0.4702
11150TIP3    H254942   6.539   1.076  16.002 -0.4685  0.7546  0.0496
11151TIP3   OH254943   1.255   6.465  16.183 -0.1371  0.2224 -0.5748
11151TIP3    H154944   1.337   6.414  16.185 -0.3262 -0.3440 -3.2284
11151TIP3    H254945   1.271   6.533  16.118 -0.4782  2.6591  1.7314
11152TIP3   OH254946   2.541   0.743   5.974 -0.2767  0.5123  0.2879
11152TIP3    H154947   2.485   0.821   5.971  1.9416  2.3352  2.3095
11152TIP3    H254948   2.597   0.751   5.896 -0.3239  0.7225  0.2746
11153TIP3   OH254949   1.766   1.223  16.926  0.1186  0.0689  0.3806
11153TIP3    H154950   1.749   1.170  16.848  1.8068 -1.0762  0.7290
11153TIP3    H254951   1.824   1.293  16.895  0.9173 -0.4769  0.6076
11154TIP3   OH254952   5.363   2.328  13.331  0.0906 -0.1401  0.0685
11154TIP3    H154953   5.278   2.369  13.348  1.5053  3.2564 -0.3341
11154TIP3    H254954   5.349   2.277  13.251 -1.3076  1.4352 -0.7620
11155TIP3   OH254955   1.845   6.345   4.641 -0.2519 -0.3103  0.3364
11155TIP3    H154956   1.863   6.400   4.718  1.5529 -0.6470  0.1824
11155TIP3    H254957   1.874   6.398   4.567  0.8035 -1.1538  0.1276
11156TIP3   OH254958   5.276   3.664  13.497 -0.0936  0.4574 -0.1311
11156TIP3    H154959   5.333   3.656  13.574 -0.7235 -0.0391  0.3040
11156TIP3    H254960   5.237   3.751  13.504 -0.0789  0.4479  0.0670
11157TIP3   OH254961   1.716   4.993   5.105 -0.0817 -0.0488 -0.5460
11157TIP3    H154962   1.761   4.997   5.189 -0.2160 -2.4101 -0.3002
11157TIP3    H254963   1.769   5.048   5.047  0.3212  1.1764  0.9048
11158TIP3   OH254964   2.233   0.797  14.543 -0.6225 -0.3223  0.0882
11158TIP3    H154965   2.190   0.787  14.628  0.5709  0.0109  0.7558
11158TIP3    H254966   2.311   0.849  14.561  1.4059 -2.8779 -0.6032
11159TIP3   OH254967   4.823   5.445  15.187  0.4939 -0.2999  0.4051
11159TIP3    H154968   4.788   5.365  15.226 -0.6352  0.5354  1.1748
11159TIP3    H254969   4.884   5.479  15.252 -1.6388  1.2713  1.7150
11160TIP3   OH254970   6.125   3.594   2.166 -0.3822  0.7547 -0.0083
11160TIP3    H154971   6.116   3.667   2.105  0.7987 -0.4625 -1.7517
11160TIP3    H254972   6.103   3.517   2.114  2.1066 -0.4831  0.5954
11161TIP3   OH254973   4.815   0.573  17.157  0.3321  0.0678  0.0217
11161TIP3    H154974   4.910   0.567  17.171  0.6507 -1.4169 -2.1872
11161TIP3    H254975   4.780   0.493  17.197 -0.0180  0.6356  0.8747
11162TIP3   OH254976   1.055   2.324   1.464  0.0280 -0.3233  0.2165
11162TIP3    H154977   1.117   2.358   1.399  0.7730 -1.7457  0.1439
11162TIP3    H254978   1.022   2.402   1.508  0.5582  0.5799 -0.9315
11163TIP3   OH254979   1.754   4.669  11.417 -0.0596  0.1846  0.1710
11163TIP3    H154980   1.722   4.730  11.484 -0.6774  0.9518 -0.7886
11163TIP3    H254981   1.750   4.719  11.336  2.1649 -0.2099 -0.2383
11164TIP3   OH254982   3.747   3.195  16.268 -0.6298  0.0704 -0.2920
11164TIP3    H154983   3.756   3.195  16.363 -1.1855 -0.3867 -0.2347
11164TIP3    H254984   3.834   3.170  16.236 -0.3825  0.4293  0.0842
11165TIP3   OH254985   0.580   4.861  13.128  0.3287  0.2801  0.5981
11165TIP3    H154986   0.583   4.766  13.140  1.7256  0.2664  0.2972
11165TIP3    H254987   0.612   4.875  13.039  0.2043  1.0325  0.6667
11166TIP3   OH254988   1.322   4.189   3.494  0.3051 -0.0830 -0.1701
11166TIP3    H154989   1.374   4.245   3.552 -0.6407 -0.3689  0.9995
11166TIP3    H254990   1.277   4.250   3.435 -0.0202  0.3497  0.5106
11167TIP3   OH254991   1.448   3.601   5.433  0.1328 -0.3890 -0.0078
11167TIP3    H154992   1.385   3.631   5.498  0.2533  1.8531 -0.8490
11167TIP3    H254993   1.418   3.513   5.411 -1.0877 -0.4319  1.5890
11168TIP3   OH254994   0.350   4.717   5.401 -0.0509 -0.5452 -0.0977
11168TIP3    H154995   0.371   4.783   5.334 -0.5639  0.7035  0.9333
11168TIP3    H254996   0.435   4.682   5.428  0.5516  1.9152  1.5010
11169TIP3   OH254997   1.062   2.795  15.006  0.3102  0.1467  0.2271
11169TIP3    H154998   1.035   2.886  15.023  0.2428 -0.0157  1.0201
11169TIP3    H254999   1.067   2.755  15.093 -0.7041 -0.9070 -0.1746
11170TIP3   OH255000   0.924   4.316  14.493  0.3613 -0.4326 -0.3133
11170TIP3    H155001   0.857   4.315  14.561  0.1766 -0.9959 -0.5009
11170TIP3    H255002   0.973   4.397  14.509  0.2361 -0.4928  0.4025
11171TIP3   OH255003   0.553   2.736   4.150 -0.0907 -1.0081 -0.1516
11171TIP3    H155004   0.583   2.673   4.216  4.5162 -0.5665 -1.4473
11171TIP3    H255005   0.567   2.821   4.190  0.5525 -0.7669 -0.8696
11172TIP3   OH255006   3.151   0.799   1.031  0.1989  0.1648 -0.2310
11172TIP3    H155007   3.142   0.874   1.090  1.1780  1.1860 -1.3106
11172TIP3    H255008   3.245   0.783   1.027  0.0669 -0.5153 -0.7626
11173TIP3   OH255009   4.674   0.180  15.771  0.1088 -0.4885 -0.3337
11173TIP3    H155010   4.737   0.151  15.836  0.4827 -2.9193 -1.6538
11173TIP3    H255011   4.598   0.123  15.784  0.1106 -0.8800 -1.8344
11174TIP3   OH255012   1.015   5.814  11.246 -0.0240  0.0865 -0.3418
11174TIP3    H155013   1.092   5.835  11.300 -0.0034 -1.2504  0.1982
11174TIP3    H255014   1.049   5.759  11.176 -0.3611  0.2526 -0.6413
11175TIP3   OH255015   1.853   5.193   0.950 -0.0205  0.2149  0.5637
11175TIP3    H155016   1.894   5.127   0.894 -2.5635 -0.9498 -0.0640
11175TIP3    H255017   1.837   5.268   0.893  0.4815  0.3585  0.6091
11176TIP3   OH255018   0.233   5.990   3.980 -0.1026  0.1114 -0.4048
11176TIP3    H155019   0.299   6.049   3.945  0.2550  0.1791  0.3680
11176TIP3    H255020   0.199   5.944   3.903  1.8742 -1.0018 -0.6846
11177TIP3   OH255021   4.733   1.976   3.741 -0.0877 -0.2252  0.4073
11177TIP3    H155022   4.686   1.995   3.822 -0.1155 -0.4254  0.4398
11177TIP3    H255023   4.679   1.910   3.697 -1.4624  1.7294 -1.0358
11178TIP3   OH255024   5.313   1.229  14.119  0.2441 -0.0804  0.2850
11178TIP3    H155025   5.231   1.187  14.097 -0.2457 -0.0550  1.9438
11178TIP3    H255026   5.381   1.168  14.089 -0.2811  0.3911 -2.1029
11179TIP3   OH255027   6.298   2.038  15.846 -0.0146  0.5122  0.3486
11179TIP3    H155028   6.387   2.051  15.813  0.3608 -1.0794  0.6261
11179TIP3    H255029   6.242   2.065  15.773  0.7198  0.7858 -0.1308
11180TIP3   OH255030   0.594   1.301   0.099 -0.4633 -0.5816 -0.2592
11180TIP3    H155031   0.680   1.269   0.073  0.0113  0.3900  0.0729
11180TIP3    H255032   0.560   1.232   0.157 -0.0049 -1.0707 -0.5638
11181TIP3   OH255033   1.855   0.407  13.404  0.5630 -0.2747 -0.3141
11181TIP3    H155034   1.814   0.330  13.443  1.9149 -0.4064  0.9454
11181TIP3    H255035   1.903   0.372  13.328  2.0845 -0.9346  0.8789
11182TIP3   OH255036   4.072   3.359   1.395  0.0924  0.4367 -0.5081
11182TIP3    H155037   4.156   3.403   1.382  0.8316  0.3941  3.0050
11182TIP3    H255038   4.011   3.405   1.338  1.5339  3.7317  0.3980
11183TIP3   OH255039   3.529   5.090   6.505 -0.1442  0.3482  0.6144
11183TIP3    H155040   3.572   5.103   6.589  1.0394 -0.6569  0.1954
11183TIP3    H255041   3.437   5.114   6.521  0.0944  0.3295  2.1379
11184TIP3   OH255042   0.319   0.862  14.083 -0.0515 -0.1590  0.3115
11184TIP3    H155043   0.361   0.834  14.002 -2.6126 -2.9094 -0.2370
11184TIP3    H255044   0.357   0.805  14.151  0.6716  0.8160  0.7611
11185TIP3   OH255045   2.858   6.427  14.673  0.5281 -0.4021  0.1181
11185TIP3    H155046   2.932   6.487  14.685 -0.9104  1.3145  0.6703
11185TIP3    H255047   2.853   6.379  14.755 -0.8659  1.7287  1.3684
11186TIP3   OH255048   1.049   3.258   1.162 -0.2012  0.3304  0.4695
11186TIP3    H155049   1.063   3.172   1.122  0.0047  0.0829  1.0663
11186TIP3    H255050   0.964   3.251   1.205  0.5311 -0.1199  1.8971
11187TIP3   OH255051   1.527   2.668   2.790 -0.2798  0.1140 -0.1593
11187TIP3    H155052   1.475   2.744   2.816 -0.9352 -0.0126 -1.0569
11187TIP3    H255053   1.465   2.595   2.791  0.4351 -0.5082  1.0964
11188TIP3   OH255054   0.557   2.132   3.436  0.0322 -0.1536  0.2600
11188TIP3    H155055   0.606   2.139   3.519 -0.0572 -0.1513  0.3125
11188TIP3    H255056   0.465   2.133   3.462 -0.0603  1.9751  0.0047
11189TIP3   OH255057   2.531   4.735   4.810  0.0824  0.0328  0.1569
11189TIP3    H155058   2.495   4.660   4.763  2.4524 -1.0535 -0.0726
11189TIP3    H255059   2.613   4.754   4.764  0.2430  1.8444  1.1243
11190TIP3   OH255060   0.348   5.386   3.310 -0.3073  0.6862  0.2291
11190TIP3    H155061   0.285   5.449   3.346  0.2389  1.3503  0.0513
11190TIP3    H255062   0.294   5.320   3.266 -0.8551  1.7175 -0.6810
11191TIP3   OH255063   1.141   1.502   5.744 -0.3444 -0.2736 -0.0287
11191TIP3    H155064   1.216   1.511   5.803 -1.1627 -0.2981  1.0592
11191TIP3    H255065   1.088   1.580   5.761 -0.1041  0.2546 -1.5159
11192TIP3   OH255066   3.586   2.521  10.930  0.5106  0.2452 -0.2865
11192TIP3    H155067   3.672   2.529  10.888  0.5389 -1.2095 -0.5481
11192TIP3    H255068   3.550   2.440  10.894 -1.5615  1.5121 -1.2353
11193TIP3   OH255069   0.858   3.146   2.088  0.2865  0.1824 -0.1617
11193TIP3    H155070   0.891   3.159   2.177  1.4165  0.6245 -0.6319
11193TIP3    H255071   0.774   3.192   2.087  0.3835  0.3877  0.6031
11194TIP3   OH255072   5.674   0.553  15.654 -0.5439  0.4292  0.0080
11194TIP3    H155073   5.706   0.477  15.605 -0.0224  0.9543 -0.4961
11194TIP3    H255074   5.748   0.578  15.710 -0.4373  1.0019 -0.3729
11195TIP3   OH255075   5.178   1.251   3.428 -0.2546  0.1940 -0.4273
11195TIP3    H155076   5.207   1.169   3.468 -1.3060  0.4628  0.9648
11195TIP3    H255077   5.144   1.225   3.342  0.5350 -0.6416 -0.5034
11196TIP3   OH255078   4.520   1.928   0.299 -0.1426  0.1201  0.3181
11196TIP3    H155079   4.484   1.926   0.210  1.1895  0.8270 -0.2764
11196TIP3    H255080   4.447   1.958   0.354 -1.3962 -1.6873 -0.2890
11197TIP3   OH255081   3.054   4.040  12.285 -0.4844  0.1890 -0.2408
11197TIP3    H155082   3.106   4.119  12.271  1.3396 -1.1761 -1.7466
11197TIP3    H255083   3.064   3.990  12.204 -0.6306 -2.0907  1.0582
11198TIP3   OH255084   2.941   2.170  16.741 -0.0905  0.0599  0.0702
11198TIP3    H155085   3.034   2.195  16.744 -0.0151 -0.2472  0.6319
11198TIP3    H255086   2.943   2.074  16.741 -0.4013  0.0505 -0.4316
11199TIP3   OH255087   6.155   3.973   2.718 -0.0932 -0.0979 -0.6256
11199TIP3    H155088   6.173   3.961   2.811 -1.1395  1.4751 -0.1788
11199TIP3    H255089   6.240   3.967   2.676  0.7428  1.4518  0.7344
11200TIP3   OH255090   2.189   6.574   6.025 -0.5363  0.1862 -0.1338
11200TIP3    H155091   2.177   6.668   6.036 -0.0690  0.1265  1.0272
11200TIP3    H255092   2.272   6.565   5.978 -0.8505  0.3705 -0.7202
11201TIP3   OH255093   4.174   4.772  16.957 -0.1238 -0.4419 -0.0117
11201TIP3    H155094   4.167   4.849  16.900  0.5580  0.0925  0.6056
11201TIP3    H255095   4.268   4.753  16.958 -0.2415 -1.0272  0.1903
11202TIP3   OH255096   3.055   2.609  13.904 -0.6475 -0.6219 -0.0735
11202TIP3    H155097   3.083   2.651  13.985 -0.2959  1.3438 -1.1469
11202TIP3    H255098   2.966   2.640  13.890 -0.4332 -0.3333 -0.8274
11203TIP3   OH255099   1.700   5.163  14.088  0.0834  0.0248  0.3370
11203TIP3    H155100   1.645   5.171  14.166  0.7836  0.3734  0.8056
11203TIP3    H255101   1.724   5.071  14.085  0.3058  0.0689  0.7110
11204TIP3   OH255102   2.323   2.825   1.151  0.0325 -0.4211  0.1397
11204TIP3    H155103   2.339   2.774   1.230 -1.4821  1.8053  2.0171
11204TIP3    H255104   2.232   2.805   1.128  0.2289 -0.4854 -0.6224
11205TIP3   OH255105   3.346   0.795  15.096  0.2468 -0.2042 -0.2016
11205TIP3    H155106   3.422   0.823  15.044 -0.4606  0.6659 -0.7941
11205TIP3    H255107   3.330   0.869  15.155  0.1101 -0.5669  0.2226
11206TIP3   OH255108   3.471   4.680  13.511 -0.3859 -0.2667  0.4563
11206TIP3    H155109   3.473   4.751  13.446  1.5801 -1.3889 -0.8240
11206TIP3    H255110   3.462   4.725  13.595  1.6069  1.6018 -0.2321
11207TIP3   OH255111   2.868   0.850  16.582  0.2582  0.4943  0.1966
11207TIP3    H155112   2.841   0.922  16.524  1.0662  0.7900  0.1811
11207TIP3    H255113   2.810   0.857  16.657  1.0584  1.8733  0.7217
11208TIP3   OH255114   6.191   6.717   1.665  0.2093  0.0842 -0.4530
11208TIP3    H155115   6.282   6.744   1.678  0.4155  0.5228 -2.5152
11208TIP3    H255116   6.194   6.621   1.667  0.5627  0.1015  0.2756
11209TIP3   OH255117   1.147   5.639   0.361  0.0945  0.0076 -0.2769
11209TIP3    H155118   1.137   5.544   0.367  3.2529 -0.5458 -1.8147
11209TIP3    H255119   1.095   5.664   0.284  0.7711 -0.8096 -1.0166
11210TIP3   OH255120   5.905   6.519  13.404  0.0724  0.2946 -0.0288
11210TIP3    H155121   5.999   6.504  13.399  0.0670  0.1867  0.1694
11210TIP3    H255122   5.866   6.433  13.387  0.0407  0.0584  1.1350
11211TIP3   OH255123   0.949   4.050   5.619 -0.5584 -0.1240 -0.1820
11211TIP3    H155124   0.955   4.141   5.589  2.1341 -0.0700  0.2964
11211TIP3    H255125   1.035   4.012   5.599 -0.6280 -1.7396  2.1919
11212TIP3   OH255126   3.715   0.028   1.091 -0.0834  0.2037 -0.1873
11212TIP3    H155127   3.802   0.064   1.077 -1.0303  1.8688 -2.2720
11212TIP3    H255128   3.688   0.064   1.176  0.6698  0.9448 -0.2484
11213TIP3   OH255129   0.774   1.944   5.384 -0.4277 -0.9632  0.7861
11213TIP3    H155130   0.701   1.965   5.325 -2.3250 -5.3967  1.1059
11213TIP3    H255131   0.815   1.866   5.345  1.0870 -1.4105  3.0384
11214TIP3   OH255132   3.562   1.541   2.809  0.2784  0.3496 -0.1764
11214TIP3    H155133   3.530   1.452   2.827 -0.4385  0.5068 -0.6426
11214TIP3    H255134   3.534   1.592   2.884  0.7633  0.1614  0.1313
11215TIP3   OH255135   0.100   1.695  14.711 -0.3490 -0.2902 -0.1406
11215TIP3    H155136   0.106   1.644  14.792  0.3153 -0.1150 -0.0773
11215TIP3    H255137   0.045   1.641  14.653 -0.5238 -0.5865  0.2919
11216TIP3   OH255138   0.205   6.337   0.354 -0.0225  0.2105  0.0390
11216TIP3    H155139   0.249   6.375   0.277  1.1969  0.0186  0.6225
11216TIP3    H255140   0.249   6.253   0.368 -0.4491  0.1013  0.7641
11217TIP3   OH255141   1.318   2.853   3.689 -0.2825 -0.1885  0.2989
11217TIP3    H155142   1.364   2.866   3.606 -0.8654  0.7193  0.1066
11217TIP3    H255143   1.259   2.928   3.696 -2.8599 -2.0271 -0.1995
11218TIP3   OH255144   2.527   4.916  15.966 -0.1726  0.7603 -0.6664
11218TIP3    H155145   2.593   4.980  15.993  0.1163  0.1907  0.0097
11218TIP3    H255146   2.498   4.946  15.879 -1.1888  2.6868  0.2789
11219TIP3   OH255147   4.159   0.981  11.016  0.0253  0.7130  0.4110
11219TIP3    H155148   4.187   1.028  11.094 -0.7993 -0.5870  1.5398
11219TIP3    H255149   4.064   0.971  11.026  0.2036 -1.5795  0.5109
11220TIP3   OH255150   5.083   4.965  12.465 -0.1625 -0.2826 -0.2445
11220TIP3    H155151   5.106   4.972  12.373 -1.5644  3.2294 -0.4911
11220TIP3    H255152   5.167   4.966  12.511  0.5136 -1.1396 -1.4169
11221TIP3   OH255153   5.581   3.329  15.325  0.8031  0.1915  0.1622
11221TIP3    H155154   5.548   3.357  15.239  0.7759 -0.1699  0.0522
11221TIP3    H255155   5.646   3.394  15.349 -0.4199  1.2717  0.6639
11222TIP3   OH255156   5.380   0.033  10.864  0.4648 -0.2359  0.6881
11222TIP3    H155157   5.434  -0.009  10.797  0.3369 -0.9107  1.0036
11222TIP3    H255158   5.417   0.120  10.873  0.6694 -0.2346 -0.0511
11223TIP3   OH255159   4.889   0.275  13.076 -0.0765 -0.3684  0.3085
11223TIP3    H155160   4.922   0.286  12.987 -0.0366  0.2195  0.3947
11223TIP3    H255161   4.917   0.354  13.122 -0.3645 -0.5268  0.7621
11224TIP3   OH255162   6.677   2.457   1.032 -0.4043 -0.5872 -0.5207
11224TIP3    H155163   6.695   2.365   1.013  1.2722 -0.1608 -1.2108
11224TIP3    H255164   6.761   2.491   1.063 -0.8589  0.8238 -0.7783
11225TIP3   OH255165   5.972   1.271   3.474  0.1739 -0.0776  0.2085
11225TIP3    H155166   5.887   1.254   3.432  1.4850  0.9120 -3.2117
11225TIP3    H255167   6.033   1.215   3.427  1.7749  0.9548  0.9962
11226TIP3   OH255168   4.133   6.092   2.046 -0.8090  0.1999 -0.6243
11226TIP3    H155169   4.154   6.080   2.139 -0.7557 -3.5121 -0.9582
11226TIP3    H255170   4.040   6.111   2.044 -0.7061  0.8523  0.1716
11227TIP3   OH255171   4.285   1.278   0.251 -0.2350  0.1411  0.1070
11227TIP3    H155172   4.265   1.286   0.157 -2.5616 -0.6823  0.4655
11227TIP3    H255173   4.259   1.362   0.288  0.7565  0.4942  0.0357
11228TIP3   OH255174   0.187   0.225  12.471  0.2822 -0.4813  0.1408
11228TIP3    H155175   0.194   0.320  12.474  2.3508 -0.5805 -0.1907
11228TIP3    H255176   0.116   0.208  12.409 -1.7079  0.8109  1.9377
11229TIP3   OH255177   4.096   0.034   5.278 -0.0600 -0.4477 -0.0113
11229TIP3    H155178   4.152   0.109   5.300 -2.6678  1.3806  0.8088
11229TIP3    H255179   4.098   0.031   5.182  2.6068 -1.4915 -0.0292
11230TIP3   OH255180   5.697   5.877  11.879  1.1421  0.1079 -0.6862
11230TIP3    H155181   5.615   5.915  11.913  1.3340  1.4956 -1.6926
11230TIP3    H255182   5.672   5.837  11.796  0.8891 -2.3383  0.4872
11231TIP3   OH255183   2.999   0.504  16.272 -0.9142  0.1381 -0.1684
11231TIP3    H155184   2.948   0.544  16.342 -0.5809  0.4871 -0.1207
11231TIP3    H255185   2.949   0.426  16.247 -0.3191 -0.7881  1.4296
11232TIP3   OH255186   5.680   1.022   3.827  0.4884  0.1916 -0.0217
11232TIP3    H155187   5.647   0.978   3.906  0.5798 -1.8354 -1.0618
11232TIP3    H255188   5.664   1.115   3.843 -2.5876 -0.4116  0.9595
11233TIP3   OH255189   6.440   0.772  11.236 -0.6448 -0.2004 -0.4119
11233TIP3    H155190   6.501   0.814  11.176 -0.1002  0.4771  0.5952
11233TIP3    H255191   6.453   0.817  11.319 -2.6086  0.0428 -0.1993
11234TIP3   OH255192   2.412   1.318   5.165 -0.2913 -0.1649 -0.1185
11234TIP3    H155193   2.426   1.368   5.085 -2.9023 -1.0539 -1.2791
11234TIP3    H255194   2.431   1.379   5.236 -2.1580  2.1697 -1.4455
11235TIP3   OH255195   3.162   5.794   4.442 -0.1255  0.5539 -0.4685
11235TIP3    H155196   3.220   5.804   4.366  0.7234  0.6607  0.1666
11235TIP3    H255197   3.118   5.710   4.428  0.2155  0.4529 -0.9633
11236TIP3   OH255198   2.053   0.450  12.685  0.1327  0.5380 -0.1961
11236TIP3    H155199   2.122   0.411  12.738  0.8024  1.2702 -0.5103
11236TIP3    H255200   1.972   0.411  12.718  0.6874 -0.2856  0.2177
11237TIP3   OH255201   2.310   1.680   6.388  0.2778 -0.1499 -0.0293
11237TIP3    H155202   2.258   1.611   6.429  1.5419 -1.3549 -0.3368
11237TIP3    H255203   2.312   1.751   6.452  0.5698 -1.2019  1.1720
11238TIP3   OH255204   4.604   2.611  16.891  0.1717 -0.5629  0.2426
11238TIP3    H155205   4.545   2.571  16.827  0.7485 -0.1251 -0.5938
11238TIP3    H255206   4.561   2.598  16.975  0.1548 -2.5759 -0.0332
11239TIP3   OH255207   4.485   0.740   1.404 -0.0168 -0.3813 -0.2569
11239TIP3    H155208   4.567   0.738   1.355  0.4232  0.4102  0.4059
11239TIP3    H255209   4.512   0.730   1.496 -0.6763 -0.2978 -0.0477
11240TIP3   OH255210   1.830   0.864   3.560 -0.1862 -0.4095 -0.5843
11240TIP3    H155211   1.852   0.784   3.608 -0.1072 -0.5532 -0.8589
11240TIP3    H255212   1.833   0.839   3.468 -0.8558 -0.2690 -0.6525
11241TIP3   OH255213   4.120   0.160   2.848  0.2929  0.3954 -0.2366
11241TIP3    H155214   4.037   0.138   2.890  0.2703  0.3695 -0.2957
11241TIP3    H255215   4.108   0.250   2.818  1.4994  1.7344  2.8947
11242TIP3   OH255216   3.864   3.669  17.105 -0.3108 -0.0628 -0.6427
11242TIP3    H155217   3.771   3.653  17.091 -0.7886  1.1475  0.9287
11242TIP3    H255218   3.869   3.756  17.144  1.4434 -0.2534 -0.3300
11243TIP3   OH255219   2.061   4.349   1.011  0.6952 -0.4182 -0.1930
11243TIP3    H155220   2.048   4.347   0.916  0.9709 -1.1814 -0.2168
11243TIP3    H255221   1.980   4.313   1.048  0.7073 -0.4025 -0.1510
11244TIP3   OH255222   0.622   2.927   1.589  0.6909 -0.2154 -0.3858
11244TIP3    H155223   0.611   2.852   1.648 -1.1544  0.4758  0.2465
11244TIP3    H255224   0.676   2.989   1.638  1.9761 -0.9819 -0.7945
11245TIP3   OH255225   2.601   2.058  14.847  0.1829 -0.1121  0.8671
11245TIP3    H155226   2.615   2.125  14.914 -0.7122  1.1518 -0.1957
11245TIP3    H255227   2.523   2.085  14.800  0.6902 -1.0574 -0.6056
11246TIP3   OH255228   5.758   2.698   1.798  0.2674  0.0704  0.2828
11246TIP3    H155229   5.846   2.684   1.833 -0.4682  1.3722  2.9197
11246TIP3    H255230   5.729   2.780   1.838 -2.6137 -0.9605  0.5308
11247TIP3   OH255231   5.729   5.003   1.424 -0.2978  0.0522  0.2882
11247TIP3    H155232   5.646   4.976   1.386  0.8100 -0.8127 -1.6833
11247TIP3    H255233   5.759   5.074   1.367  0.6248 -0.1299  0.5302
11248TIP3   OH255234   6.447   3.109   0.725  0.1455 -0.8195 -0.6717
11248TIP3    H155235   6.530   3.077   0.759  0.2501 -0.1494 -0.2857
11248TIP3    H255236   6.438   3.066   0.640  0.9967 -0.7224 -0.8173
11249TIP3   OH255237   5.874   3.971   5.924  0.3490 -0.6159  0.4646
11249TIP3    H155238   5.838   3.967   6.012  3.1257  1.7806  1.8876
11249TIP3    H255239   5.936   3.898   5.920  2.0748  0.7183  1.5361
11250TIP3   OH255240   0.519   6.818  15.831 -0.0420  0.4836 -0.0912
11250TIP3    H155241   0.581   6.758  15.872  0.1669 -0.2345 -1.3975
11250TIP3    H255242   0.434   6.775  15.841 -0.1450  0.8138  0.4952
11251TIP3   OH255243   1.879   0.014   3.406  0.1643  0.7223 -0.4221
11251TIP3    H155244   1.868  -0.045   3.481 -0.0174  1.7229  0.3491
11251TIP3    H255245   1.789   0.035   3.379  0.2084  1.7700  0.2126
11252TIP3   OH255246   1.684   3.483   1.887 -0.6386 -0.6323  0.1136
11252TIP3    H155247   1.656   3.567   1.923 -2.2616 -0.9968 -0.2323
11252TIP3    H255248   1.632   3.473   1.807 -0.8951 -2.2211  0.4430
11253TIP3   OH255249   4.519   1.470   1.024 -0.3288 -0.0355 -0.6209
11253TIP3    H155250   4.576   1.394   1.018 -0.4667 -0.1680 -0.2910
11253TIP3    H255251   4.506   1.498   0.934  2.0658  1.3415 -0.6375
11254TIP3   OH255252   2.736   1.041  16.453 -0.3633  0.4175  0.0829
11254TIP3    H155253   2.718   1.096  16.377  0.3603 -1.8142 -1.8564
11254TIP3    H255254   2.653   0.996  16.471 -0.0189 -0.6369 -0.8296
11255TIP3   OH255255   2.357   3.299  15.109 -0.0556 -0.4231  0.2052
11255TIP3    H155256   2.347   3.312  15.204  0.0277 -2.4048  0.5204
11255TIP3    H255257   2.333   3.208  15.095 -0.6529  0.0124 -1.7966
11256TIP3   OH255258   4.019   5.545  11.824  0.0725  0.2045 -0.1451
11256TIP3    H155259   4.085   5.598  11.779 -0.5660  0.8733 -0.3181
11256TIP3    H255260   3.941   5.600  11.825 -0.9458 -1.1712 -1.2867
11257TIP3   OH255261   5.974   2.563  12.361  0.5795 -0.4166  0.3116
11257TIP3    H155262   5.886   2.573  12.323  0.9456 -1.8849 -1.0457
11257TIP3    H255263   6.011   2.487  12.316  1.7711 -1.1353  2.3731
11258TIP3   OH255264   2.599   5.313   0.297  0.7916 -0.0955 -0.5159
11258TIP3    H155265   2.587   5.399   0.337  1.2603 -0.4282  0.3531
11258TIP3    H255266   2.658   5.330   0.223  2.1625  0.0993  0.5879
11259TIP3   OH255267   1.881   2.728  14.240 -0.5785  0.0899  0.1993
11259TIP3    H155268   1.906   2.817  14.218 -1.6754  0.6262  1.0366
11259TIP3    H255269   1.853   2.689  14.157  2.0402 -0.2514 -0.6034
11260TIP3   OH255270   1.279   6.702   0.633 -0.3825 -0.3039 -0.1846
11260TIP3    H155271   1.200   6.746   0.601 -1.3495 -0.8293  1.3378
11260TIP3    H255272   1.246   6.621   0.673  1.0732 -1.1600 -0.6344
11261TIP3   OH255273   5.839   2.675  10.710  0.1466  0.6677 -0.4886
11261TIP3    H155274   5.909   2.615  10.736 -0.6886 -0.6339 -1.0818
11261TIP3    H255275   5.790   2.692  10.790 -0.0114 -0.0184 -0.4316
11262TIP3   OH255276   0.067   2.877   5.080  0.2758  0.0702 -0.0026
11262TIP3    H155277   0.103   2.966   5.086  0.9483 -0.2952  3.0801
11262TIP3    H255278   0.139   2.824   5.045  1.1612  0.1774  1.5755
11263TIP3   OH255279   2.268   0.575  14.028  0.2208 -0.0059  0.1496
11263TIP3    H155280   2.339   0.637  14.013  0.0798  0.5864  1.7449
11263TIP3    H255281   2.188   0.627  14.020 -0.0367 -0.5339 -0.9894
11264TIP3   OH255282   6.266   1.075   4.200  0.4276  0.5775 -0.4986
11264TIP3    H155283   6.325   1.057   4.273 -1.0501 -1.1543  0.3408
11264TIP3    H255284   6.196   1.128   4.238 -1.3551 -1.9035 -0.0856
11265TIP3   OH255285   5.123   2.572  10.978  0.0313 -0.4941  0.1283
11265TIP3    H155286   5.204   2.529  11.005 -0.0765 -0.6841  0.1568
11265TIP3    H255287   5.144   2.665  10.974  0.1367 -0.4984  0.5553
11266TIP3   OH255288   4.212   0.815  10.552 -0.0569  0.0634  0.6669
11266TIP3    H155289   4.284   0.759  10.582  1.1094 -0.2459 -2.4018
11266TIP3    H255290   4.133   0.764  10.570  0.6564 -0.7297  1.6796
11267TIP3   OH255291   4.371   6.463   2.982 -0.1495 -0.4025 -0.0266
11267TIP3    H155292   4.436   6.403   2.946  0.5397  0.5596 -0.4038
11267TIP3    H255293   4.365   6.534   2.919 -1.4119 -0.3518  0.1168
11268TIP3   OH255294   0.934   0.363   2.224 -0.0624  0.2746  0.0989
11268TIP3    H155295   0.965   0.317   2.302  1.5397  1.9925  0.5545
11268TIP3    H255296   0.922   0.454   2.253  0.4925  0.9364 -1.6002
11269TIP3   OH255297   1.483   5.260   1.086 -0.5923 -0.2310  0.0979
11269TIP3    H155298   1.573   5.292   1.075 -0.2262 -1.1185  0.4524
11269TIP3    H255299   1.493   5.171   1.118 -1.5980  0.1249  1.4901
11270TIP3   OH255300   2.558   0.024  12.489  0.0982  0.1787  0.1835
11270TIP3    H155301   2.625   0.092  12.482  2.4563 -2.1075 -1.0859
11270TIP3    H255302   2.495   0.045  12.420  0.4783  1.3418  0.1589
11271TIP3   OH255303   0.795   3.357  13.124  0.2257  0.3220 -0.2384
11271TIP3    H155304   0.865   3.330  13.183  0.1931  2.1098  0.6714
11271TIP3    H255305   0.762   3.439  13.161 -1.1371  0.4572 -1.6512
11272TIP3   OH255306   3.358   0.481  16.299  0.1969  0.0664 -1.0960
11272TIP3    H155307   3.400   0.406  16.342 -0.3475 -0.0074 -0.6829
11272TIP3    H255308   3.419   0.553  16.314 -0.4248  0.2724  0.6976
11273TIP3   OH255309   0.295   0.373   2.210  0.5306  0.0089 -0.1559
11273TIP3    H155310   0.388   0.379   2.233  0.0232  0.8188  1.9111
11273TIP3    H255311   0.276   0.456   2.167  0.9534 -0.5450 -1.4485
11274TIP3   OH255312   5.712   5.047   2.462 -0.3746  0.2470 -0.0316
11274TIP3    H155313   5.621   5.075   2.454  0.1372  1.8458 -0.5377
11274TIP3    H255314   5.738   5.022   2.374 -0.6016 -1.2292  0.2873
11275TIP3   OH255315   5.099   5.896  16.899 -0.5148 -0.2045 -0.4431
11275TIP3    H155316   5.129   5.881  16.989 -0.4059  0.1346 -0.4216
11275TIP3    H255317   5.119   5.988  16.882 -0.7396 -0.2082 -0.7380
11276TIP3   OH255318   2.646   0.974  15.560 -0.6916 -0.9803  0.4884
11276TIP3    H155319   2.687   0.891  15.535 -0.3922  0.0067 -2.7697
11276TIP3    H255320   2.718   1.030  15.588 -0.7525 -1.3715  1.4923
11277TIP3   OH255321   0.227   0.566  17.107 -0.1624 -0.5403  0.3097
11277TIP3    H155322   0.224   0.606  17.020 -2.0612 -0.2982  0.4461
11277TIP3    H255323   0.164   0.615  17.159 -0.1826 -1.6634  1.4005
11278TIP3   OH255324   4.246   1.146   3.522  0.0062 -0.4584 -0.1624
11278TIP3    H155325   4.251   1.227   3.471  0.5120  0.2393  0.9595
11278TIP3    H255326   4.160   1.148   3.563  0.2126 -0.2392  0.2631
11279TIP3   OH255327   1.822   5.074   0.480  0.3131 -0.1700 -0.6463
11279TIP3    H155328   1.899   5.052   0.427 -0.0229  1.6307 -1.9811
11279TIP3    H255329   1.765   5.122   0.420 -1.0196  0.1778  0.8270
11280TIP3   OH255330   5.899   4.485  10.968  0.1733  0.0369  0.3927
11280TIP3    H155331   5.895   4.493  10.872  2.1277 -1.4245  0.1237
11280TIP3    H255332   5.866   4.568  11.000  0.9626  1.2087 -1.6016
11281TIP3   OH255333   6.539   6.519   3.185 -0.5714  0.2065  0.5278
11281TIP3    H155334   6.613   6.531   3.126 -0.5229 -0.2261  0.4954
11281TIP3    H255335   6.536   6.599   3.237 -1.7876  1.4589 -1.3376
11282TIP3   OH255336   2.210   1.770  13.992 -0.2278 -0.5678  0.7879
11282TIP3    H155337   2.285   1.774  13.933 -0.6870  4.4211  0.0986
11282TIP3    H255338   2.134   1.765  13.934 -0.5689 -0.0391  1.1847
11283TIP3   OH255339   2.212   1.506  12.618  0.2048  0.3812 -0.1144
11283TIP3    H155340   2.255   1.421  12.605  1.1435  0.6682  0.9251
11283TIP3    H255341   2.147   1.512  12.548 -0.5297 -1.6029  0.3312
11284TIP3   OH255342   2.081   3.787  12.011 -0.4288 -0.3954 -0.1388
11284TIP3    H155343   2.054   3.808  12.101  0.3073 -1.1379  0.2758
11284TIP3    H255344   2.145   3.855  11.990  0.1552 -0.7925  0.2973
11285TIP3   OH255345   2.922   4.345   5.164  0.2408 -0.1439  0.2633
11285TIP3    H155346   3.000   4.386   5.126  1.0802  0.5430  2.5497
11285TIP3    H255347   2.895   4.405   5.233 -1.8795 -0.7818  0.0504
11286TIP3   OH255348   0.290   1.273   2.550  0.0053  0.8130 -0.5286
11286TIP3    H155349   0.284   1.316   2.465  0.5746  0.6246 -0.6677
11286TIP3    H255350   0.204   1.287   2.590 -0.2301  0.9989 -1.0865
11287TIP3   OH255351   3.737   2.851  15.057  0.1753  0.2135 -0.2775
11287TIP3    H155352   3.703   2.940  15.057 -0.0412  0.1888 -2.7001
11287TIP3    H255353   3.673   2.802  15.109 -0.1915  1.2925  0.3200
11288TIP3   OH255354   0.340   1.019   2.648  0.2119 -0.5820 -0.2335
11288TIP3    H155355   0.312   1.088   2.587  0.8953  1.1902  1.3396
11288TIP3    H255356   0.431   1.002   2.626  1.1041  1.5190  1.4273
11289TIP3   OH255357   1.816   0.209  11.605 -0.5752  0.0637 -0.3494
11289TIP3    H155358   1.770   0.177  11.683  1.3189 -1.4706  0.2057
11289TIP3    H255359   1.842   0.130  11.558 -0.7773  0.9422 -2.0381
11290TIP3   OH255360   2.419   0.305  10.365  0.1190  0.1708 -0.6617
11290TIP3    H155361   2.406   0.210  10.371 -2.9769  0.5592  1.6035
11290TIP3    H255362   2.471   0.327  10.442 -1.8011  0.5402  0.6014
11291TIP3   OH255363   2.043   1.985   2.294 -0.0861  0.0695 -0.5920
11291TIP3    H155364   1.979   1.931   2.249 -0.9212  1.4386 -1.1102
11291TIP3    H255365   2.084   2.037   2.224  1.4086 -0.5795 -0.2432
11292TIP3   OH255366   4.795   2.325  12.095  0.1612  0.3424  0.9085
11292TIP3    H155367   4.850   2.277  12.157  2.6200  1.0692 -0.5868
11292TIP3    H255368   4.853   2.391  12.057 -1.6097  0.8125 -1.1715
11293TIP3   OH255369   5.312   4.788   4.449 -0.1883 -0.7287 -0.0840
11293TIP3    H155370   5.243   4.724   4.430  0.9615 -1.6329 -1.5870
11293TIP3    H255371   5.339   4.819   4.362  0.7699  0.1519  0.5121
11294TIP3   OH255372   1.132   0.613   6.586 -0.0170 -0.5726 -0.0426
11294TIP3    H155373   1.216   0.633   6.627  0.1694 -0.1386 -0.6279
11294TIP3    H255374   1.109   0.693   6.539 -0.8683 -0.6070  0.2959
11295TIP3   OH255375   3.168   0.449   1.686  0.6537 -0.6260 -0.4627
11295TIP3    H155376   3.124   0.426   1.768  1.1485  1.0372  0.3095
11295TIP3    H255377   3.185   0.543   1.693 -0.1149 -0.2233 -2.8756
11296TIP3   OH255378   3.603   4.894  13.150  0.3776 -0.2081 -0.2616
11296TIP3    H155379   3.656   4.915  13.226  0.4576 -1.3178  0.0161
11296TIP3    H255380   3.543   4.968  13.141  1.5154  0.7549 -0.1870
11297TIP3   OH255381   2.219   3.953  14.786 -0.9580  0.1675 -0.1879
11297TIP3    H155382   2.220   3.882  14.721 -2.2828  1.0720 -1.2697
11297TIP3    H255383   2.138   3.939  14.835 -0.4992  0.1164  0.5587
11298TIP3   OH255384   0.183   3.873  11.981 -0.2425 -0.6736 -0.6399
11298TIP3    H155385   0.277   3.853  11.974 -0.6747 -2.6717 -1.5632
11298TIP3    H255386   0.164   3.924  11.902  0.2131  0.5202 -0.0015
11299TIP3   OH255387   6.067   2.639  15.420  1.1735 -0.2723 -0.2481
11299TIP3    H155388   6.021   2.703  15.474 -0.6220 -1.2924 -0.4578
11299TIP3    H255389   6.032   2.653  15.332  1.2787 -1.0574 -0.4216
11300TIP3   OH255390   1.570   0.043   4.111  0.1337 -0.1072 -0.4172
11300TIP3    H155391   1.510   0.028   4.038 -0.0931  0.1825 -0.2873
11300TIP3    H255392   1.519   0.024   4.189 -0.3013  1.7715 -0.2157
11301TIP3   OH255393   2.731   6.349  15.642  0.0306  0.4879  0.6588
11301TIP3    H155394   2.800   6.398  15.596  0.3583 -0.9428 -0.4233
11301TIP3    H255395   2.652   6.365  15.591  0.1736 -0.2259  0.2027
11302TIP3   OH255396   3.503   4.278  12.844 -0.0455  0.0241  0.6382
11302TIP3    H155397   3.531   4.367  12.866  0.7677 -0.0366 -0.1456
11302TIP3    H255398   3.523   4.227  12.923  1.0000  0.2107  0.5029
11303TIP3   OH255399   5.131   0.735   4.412  0.0005  0.3956 -0.4007
11303TIP3    H155400   5.198   0.801   4.396 -0.2895  1.3736  2.1135
11303TIP3    H255401   5.063   0.781   4.461 -2.7901 -0.4504 -3.1223
11304TIP3   OH255402   3.122   5.828   2.892 -0.1249  0.7517 -0.0013
11304TIP3    H155403   3.210   5.795   2.910  0.2292  0.4583 -2.0338
11304TIP3    H255404   3.099   5.879   2.970  0.9128 -1.0030  1.5339
11305TIP3   OH255405   5.908   4.195  13.727  0.1132 -0.6418 -0.3946
11305TIP3    H155406   5.865   4.191  13.642 -0.5284 -0.6094 -0.0754
11305TIP3    H255407   5.874   4.120  13.775 -1.2546  0.5588  0.6202
11306TIP3   OH255408   1.006   6.550  14.273  0.2900 -0.9082 -0.1996
11306TIP3    H155409   0.988   6.527  14.181 -0.0509 -0.9826 -0.1151
11306TIP3    H255410   0.945   6.496  14.323  0.6138 -1.0138  0.0829
11307TIP3   OH255411   2.811   1.486   4.056  0.6276  0.4641 -0.4760
11307TIP3    H155412   2.881   1.548   4.032  2.1820 -0.5605  1.1664
11307TIP3    H255413   2.831   1.462   4.147 -0.9762 -1.0861 -0.4947
11308TIP3   OH255414   6.081   1.889   4.488 -0.4074 -0.2336 -0.0740
11308TIP3    H155415   6.094   1.808   4.536 -0.0851  0.8069  1.6897
11308TIP3    H255416   5.986   1.895   4.475 -0.5067 -0.5175  0.4873
11309TIP3   OH255417   2.320   3.018  14.423 -0.0113 -0.2505  0.1688
11309TIP3    H155418   2.319   2.930  14.385  1.9031  0.2386 -1.1965
11309TIP3    H255419   2.316   3.003  14.518 -1.2897 -1.7070 -0.0780
11310TIP3   OH255420   6.113   3.534   4.447  0.7183 -0.0710  0.3752
11310TIP3    H155421   6.063   3.553   4.527  2.8344 -1.3924  2.1235
11310TIP3    H255422   6.089   3.444   4.426  1.2170 -0.1904  0.3260
11311TIP3   OH255423   2.466   2.778   1.457 -0.5032 -0.1297 -0.0369
11311TIP3    H155424   2.525   2.799   1.384 -0.7663 -2.4923 -1.0298
11311TIP3    H255425   2.525   2.756   1.529 -0.1084 -1.7327 -0.7995
11312TIP3   OH255426   2.753   5.382   3.000 -0.4895 -0.0259  0.5420
11312TIP3    H155427   2.719   5.306   2.954  1.0088  0.2631 -1.1492
11312TIP3    H255428   2.747   5.453   2.936 -1.6363  1.2585  1.9994
11313TIP3   OH255429   2.156   1.660  12.261  0.8401 -0.5235 -0.2130
11313TIP3    H155430   2.080   1.708  12.230  0.0189 -0.3744  1.8472
11313TIP3    H255431   2.121   1.575  12.289  1.4081 -0.4449  0.7944
11314TIP3   OH255432   0.274   1.231   2.983 -0.0007 -0.0843 -0.4403
11314TIP3    H155433   0.192   1.264   2.948  0.9849 -0.1511 -3.0356
11314TIP3    H255434   0.265   1.136   2.981 -0.6132 -0.1090  1.3741
11315TIP3   OH255435   4.674   0.523  12.119  0.4781  0.1922 -0.1855
11315TIP3    H155436   4.675   0.465  12.043 -2.8859  0.2744 -0.4336
11315TIP3    H255437   4.680   0.465  12.195  0.7167 -0.1617 -0.4761
11316TIP3   OH255438   0.801   3.140  16.972  0.6165  0.7042 -0.4735
11316TIP3    H155439   0.865   3.115  17.039 -1.8039  1.7334  2.4436
11316TIP3    H255440   0.769   3.057  16.937  0.3749  0.0226  1.2608
11317TIP3   OH255441   3.353   6.032  11.402  0.1863  0.5118 -0.8269
11317TIP3    H155442   3.335   6.091  11.475  0.5573 -0.3614 -0.0042
11317TIP3    H255443   3.413   5.966  11.439 -2.3226 -2.0093 -0.8835
11318TIP3   OH255444   4.407   3.443  15.707 -0.0394 -0.8422 -0.4648
11318TIP3    H155445   4.323   3.413  15.741  0.8756 -0.0288  2.8481
11318TIP3    H255446   4.392   3.536  15.686 -0.1173 -0.8511 -0.4483
11319TIP3   OH255447   1.524   1.717  16.013  0.0091  0.0908 -0.1720
11319TIP3    H155448   1.504   1.630  15.979 -0.5842  0.8070 -1.7897
11319TIP3    H255449   1.585   1.702  16.086 -0.1238 -1.6549 -0.3847
11320TIP3   OH255450   3.632   6.393   1.585  0.5419 -0.1379  0.2818
11320TIP3    H155451   3.539   6.371   1.578  0.6477 -1.6570  2.5808
11320TIP3    H255452   3.635   6.488   1.580 -0.6914 -0.1484 -3.3829
11321TIP3   OH255453   0.594   3.869  16.710  0.1949  0.2910 -0.1854
11321TIP3    H155454   0.639   3.921  16.644  0.8452 -0.7502 -0.5902
11321TIP3    H255455   0.507   3.854  16.675 -0.1961  1.5568  0.1895
11322TIP3   OH255456   2.978   3.572  12.208 -0.2598  0.2924  0.0757
11322TIP3    H155457   3.033   3.500  12.177  0.9244  1.1794  0.0494
11322TIP3    H255458   3.025   3.606  12.284 -1.5288  0.1504  0.9515
11323TIP3   OH255459   2.372   4.474  15.186  0.1504 -0.2751  0.1678
11323TIP3    H155460   2.386   4.513  15.272  1.9765  0.5443 -0.4516
11323TIP3    H255461   2.283   4.438  15.190  0.0192  0.1710  2.2088
11324TIP3   OH255462   0.171   5.702  17.216 -0.2105 -0.4936 -0.0412
11324TIP3    H155463   0.263   5.704  17.190 -0.1146  0.7039  0.3274
11324TIP3    H255464   0.152   5.610  17.231  0.6669 -0.8461 -1.0275
11325TIP3   OH255465   1.085   5.545   2.182  0.0563 -0.3956  0.4614
11325TIP3    H155466   1.050   5.509   2.264  0.9151  1.7758  1.8799
11325TIP3    H255467   1.062   5.638   2.185  0.6755 -0.1336 -1.4783
11326TIP3   OH255468   2.097   0.063  12.813  0.1166 -0.8339 -0.5209
11326TIP3    H155469   2.036   0.040  12.742  1.3407 -1.4632 -1.4035
11326TIP3    H255470   2.180   0.078  12.768  0.4453  0.8403  0.5642
11327TIP3   OH255471   4.273   5.242   4.031  0.5441 -0.5205  0.4767
11327TIP3    H155472   4.296   5.300   4.104  1.1302  0.1926 -0.2581
11327TIP3    H255473   4.192   5.199   4.060 -0.5575  1.4921  0.6231
11328TIP3   OH255474   5.608   2.448  14.847 -0.3934  0.2031 -0.0012
11328TIP3    H155475   5.649   2.401  14.773  0.1712  1.2107 -0.3530
11328TIP3    H255476   5.542   2.388  14.880  2.3074 -2.1583  1.5171
11329TIP3   OH255477   2.495   0.919  14.566  0.6646  0.1178 -0.3143
11329TIP3    H155478   2.521   1.011  14.564  0.7392  0.1563  1.0481
11329TIP3    H255479   2.532   0.881  14.487  0.9775  1.1704 -0.6870
11330TIP3   OH255480   4.222   4.157  16.226  0.7888  0.2139 -0.0463
11330TIP3    H155481   4.241   4.232  16.283  0.4359  0.4646 -0.2552
11330TIP3    H255482   4.258   4.182  16.141 -0.6015  0.7874 -0.5049
11331TIP3   OH255483   1.336   6.006  13.462 -0.4198  0.4231  0.1417
11331TIP3    H155484   1.263   6.026  13.404  1.3864  1.6645 -1.8558
11331TIP3    H255485   1.308   6.038  13.548 -1.9332  1.4933 -0.7120
11332TIP3   OH255486   0.492   1.807  13.607 -0.6422  0.2123 -0.3727
11332TIP3    H155487   0.587   1.808  13.597 -0.2063 -1.6042  2.3772
11332TIP3    H255488   0.463   1.733  13.553 -0.0357 -1.1424  1.0620
11333TIP3   OH255489   4.928   1.658   5.654  0.4541 -0.1259  0.4732
11333TIP3    H155490   4.960   1.591   5.714 -0.7556 -1.1092  0.0677
11333TIP3    H255491   4.844   1.625   5.624 -0.2627  1.6718  0.3806
11334TIP3   OH255492   2.023   6.219   2.682  0.2160  0.2349  0.3720
11334TIP3    H155493   1.959   6.213   2.754 -0.0062 -0.1597  0.1494
11334TIP3    H255494   2.080   6.144   2.696  1.4815  1.3400  1.3583
11335TIP3   OH255495   1.389   6.625   1.658 -0.0079 -0.4161 -0.4881
11335TIP3    H155496   1.312   6.636   1.714  0.4300  1.0471 -0.1174
11335TIP3    H255497   1.404   6.712   1.621  1.1992 -0.7838 -0.9134
11336TIP3   OH255498   1.509   4.668  10.263  0.6866 -0.3698  0.6029
11336TIP3    H155499   1.428   4.642  10.219  1.1296 -1.5167  0.4273
11336TIP3    H255500   1.568   4.594  10.249  2.1467  0.9066 -0.2285
11337TIP3   OH255501   0.832   4.783   0.221 -0.1876  0.1219  0.1426
11337TIP3    H155502   0.750   4.735   0.210 -0.3483  0.3657  0.2575
11337TIP3    H255503   0.819   4.833   0.302 -0.8386  2.0016 -1.0608
11338TIP3   OH255504   3.206   3.555  14.598 -0.7073 -0.1182 -0.0456
11338TIP3    H155505   3.277   3.518  14.651  0.5423  1.8925 -0.2181
11338TIP3    H255506   3.126   3.534  14.647  0.2520  0.1108  1.6945
11339TIP3   OH255507   0.896   1.067  13.816  0.0113 -0.3026 -0.3477
11339TIP3    H155508   0.962   1.121  13.860 -1.5577  0.2553  1.4357
11339TIP3    H255509   0.947   1.011  13.757  1.9344  1.1222 -0.1419
11340TIP3   OH255510   6.042   5.408   4.081  0.0320 -0.1728  0.4423
11340TIP3    H155511   6.071   5.376   4.167 -0.1342 -2.1378 -0.1653
11340TIP3    H255512   5.983   5.339   4.050  1.9712 -0.7690 -2.2977
11341TIP3   OH255513   1.529   0.880   3.606  0.0374  0.1031  0.3151
11341TIP3    H155514   1.545   0.909   3.696 -1.0530  0.7216  0.3334
11341TIP3    H255515   1.614   0.888   3.563  0.3195  0.9359  0.9887
11342TIP3   OH255516   5.313   0.052   5.358  0.1963 -0.1727  0.3512
11342TIP3    H155517   5.338   0.069   5.449  1.0379 -1.2593  0.3522
11342TIP3    H255518   5.240  -0.009   5.365  0.2609 -0.2559  0.3025
11343TIP3   OH255519   0.642   6.648   6.370 -0.0731 -0.1540  0.1114
11343TIP3    H155520   0.580   6.611   6.432  1.8315 -0.9793  1.6257
11343TIP3    H255521   0.669   6.574   6.316 -2.2438  0.6790 -2.3225
11344TIP3   OH255522   2.904   4.521   3.206  0.6920 -0.6904 -0.2434
11344TIP3    H155523   2.944   4.499   3.122 -0.2003 -0.7304 -0.6658
11344TIP3    H255524   2.977   4.516   3.269  1.3656 -0.6698 -0.9999
11345TIP3   OH255525   4.989   2.091   1.932  0.0906 -0.1297  0.0011
11345TIP3    H155526   5.082   2.070   1.925  0.1212 -0.0556  0.1778
11345TIP3    H255527   4.956   2.031   1.999 -0.4497 -1.6478 -1.5528
11346TIP3   OH255528   1.481   1.386   6.093 -0.3756 -0.1657 -0.0584
11346TIP3    H155529   1.515   1.473   6.111 -0.9851 -0.0026  0.3271
11346TIP3    H255530   1.403   1.401   6.040 -0.1063 -0.5131 -0.5637
11347TIP3   OH255531   3.087   6.640   3.319  0.6161  0.6974 -0.8618
11347TIP3    H155532   3.025   6.668   3.251  0.5082  0.1821 -0.9852
11347TIP3    H255533   3.070   6.698   3.393 -0.0704  0.5178 -0.8678
11348TIP3   OH255534   1.443   0.505  16.526 -0.2197 -0.5267 -0.4248
11348TIP3    H155535   1.422   0.597  16.511  2.3563  0.2488  0.2936
11348TIP3    H255536   1.395   0.483  16.605 -1.1379  0.0658 -0.7922
11349TIP3   OH255537   0.731   3.234  16.284  0.2722 -0.0471 -0.7352
11349TIP3    H155538   0.700   3.298  16.220 -0.6304  0.1979 -0.0695
11349TIP3    H255539   0.786   3.284  16.344  0.9813 -0.2451 -1.2014
11350TIP3   OH255540   3.977   4.321   0.272 -0.5083  0.1238 -0.3595
11350TIP3    H155541   3.961   4.335   0.365 -0.4044  0.5426 -0.4025
11350TIP3    H255542   4.038   4.390   0.247 -0.8036  0.2297 -0.8137
11351TIP3   OH255543   4.307   4.271   0.373 -0.3069 -0.2223 -0.3395
11351TIP3    H155544   4.272   4.183   0.387 -0.8425  0.3442  2.3505
11351TIP3    H255545   4.337   4.300   0.459  1.0122  1.7839 -1.3793
11352TIP3   OH255546   4.708   4.666  11.486  0.5055 -0.6441  0.5846
11352TIP3    H155547   4.710   4.731  11.416 -2.4167 -0.7533  0.2556
11352TIP3    H255548   4.650   4.705  11.552 -2.0880 -3.1728 -0.0163
11353TIP3   OH255549   2.800   4.120  10.537  0.7179 -0.1430 -0.1623
11353TIP3    H155550   2.733   4.125  10.468  1.0133 -0.7183 -0.4965
11353TIP3    H255551   2.760   4.163  10.612  0.4094  0.5409 -0.7119
11354TIP3   OH255552   5.827   0.389   1.851  0.2294 -0.0646  0.0131
11354TIP3    H155553   5.756   0.344   1.805  0.3622 -0.6850  0.4078
11354TIP3    H255554   5.850   0.462   1.794  1.3051 -1.5839 -1.5808
11355TIP3   OH255555   5.974   3.081   5.148  0.1435 -0.1260 -0.0292
11355TIP3    H155556   5.992   3.113   5.060  0.6177  0.1629  0.1714
11355TIP3    H255557   5.988   2.987   5.143 -0.2058 -0.1639 -0.3554
11356TIP3   OH255558   5.113   0.533  14.173 -0.0340 -0.3264 -0.2367
11356TIP3    H155559   5.071   0.599  14.229  1.5623 -0.9604  1.8524
11356TIP3    H255560   5.101   0.565  14.084 -0.7369  1.9160  0.6010
11357TIP3   OH255561   6.581   5.897  15.182  0.2193 -0.0833 -0.1245
11357TIP3    H155562   6.519   5.959  15.220 -1.0863 -2.0335  1.0843
11357TIP3    H255563   6.540   5.871  15.099  1.0646  1.0397 -0.9404
11358TIP3   OH255564   6.820   3.498   0.868 -0.1200 -1.1080  0.3050
11358TIP3    H155565   6.816   3.509   0.773 -0.6727 -0.1698  0.4304
11358TIP3    H255566   6.831   3.586   0.902  0.0666 -1.4389  1.1219
11359TIP3   OH255567   1.320   4.863   4.580 -0.5522 -0.0922  0.2191
11359TIP3    H155568   1.363   4.925   4.522  1.4553 -0.6003  1.0640
11359TIP3    H255569   1.271   4.805   4.521 -4.2404  3.3382 -0.5105
11360TIP3   OH255570   0.935   2.371   3.602  0.1961  0.1925  0.2422
11360TIP3    H155571   0.882   2.398   3.676  0.2681  1.3095 -0.0916
11360TIP3    H255572   0.918   2.278   3.592  2.3738 -0.7407  3.4780
11361TIP3   OH255573   2.829   2.971  12.996  0.1825  0.0791 -0.0531
11361TIP3    H155574   2.820   2.888  12.949  1.0704 -1.5260  2.3708
11361TIP3    H255575   2.914   2.963  13.041 -0.1941  1.8439  1.0612
11362TIP3   OH255576   5.151   1.128   1.130  0.0198 -0.0300  0.6503
11362TIP3    H155577   5.229   1.072   1.131 -0.2164 -0.4803  4.1535
11362TIP3    H255578   5.078   1.068   1.144 -0.6363  0.7685  0.7105
11363TIP3   OH255579   6.651   2.763   2.047 -0.1436  0.4778 -0.6757
11363TIP3    H155580   6.676   2.785   1.957  0.4648  0.9853 -0.3924
11363TIP3    H255581   6.562   2.796   2.056 -0.0333  0.8561 -0.9421
11364TIP3   OH255582   0.486   0.044  16.400 -0.0837  0.2191  0.2026
11364TIP3    H155583   0.521   0.008  16.481 -1.3526 -1.3102  0.1079
11364TIP3    H255584   0.444   0.126  16.427 -1.0934 -0.6047  1.2297
11365TIP3   OH255585   6.797   4.243   4.464  0.1203  0.2549 -0.3679
11365TIP3    H155586   6.880   4.284   4.442 -0.0800  0.9157  0.0739
11365TIP3    H255587   6.821   4.156   4.495  0.5112 -0.1832 -1.8095
11366TIP3   OH255588   0.232   4.129  10.328 -0.3993 -0.1458 -0.6710
11366TIP3    H155589   0.264   4.134  10.238 -1.7976  1.6921 -1.1248
11366TIP3    H255590   0.311   4.120  10.381  0.7496  1.8175 -1.9106
11367TIP3   OH255591   6.229   3.162   2.183  0.4355  0.2935 -0.0382
11367TIP3    H155592   6.197   3.071   2.185 -1.0676  0.8032  1.7432
11367TIP3    H255593   6.324   3.153   2.177  0.2180 -1.3140 -2.9242
11368TIP3   OH255594   6.108   5.960  16.270 -0.2128 -0.4587  0.1906
11368TIP3    H155595   6.156   5.878  16.267  0.9267  0.2140 -1.7024
11368TIP3    H255596   6.170   6.022  16.310 -0.1957 -0.0068 -0.5300
11369TIP3   OH255597   6.549   3.020   1.906 -0.1793 -0.5206  0.1485
11369TIP3    H155598   6.605   3.095   1.887 -0.8637  0.0514  0.3487
11369TIP3    H255599   6.581   2.950   1.849 -0.1880  0.2264 -0.7891
11370TIP3   OH255600   4.792   1.890  15.878  0.1091 -0.0984  0.8597
11370TIP3    H155601   4.825   1.921  15.793 -1.4592 -1.5147 -0.3468
11370TIP3    H255602   4.738   1.963  15.910 -0.7510 -0.2168 -0.2624
11371TIP3   OH255603   4.188   2.524   0.670 -0.6726  0.2656  0.1641
11371TIP3    H155604   4.146   2.561   0.593  0.1181  2.4313  0.6872
11371TIP3    H255605   4.273   2.568   0.674 -0.7919  0.4032  2.3714
11372TIP3   OH255606   2.622   0.167   1.443 -0.3352  0.5287  0.3415
11372TIP3    H155607   2.683   0.102   1.478 -0.6911  0.0808  0.1400
11372TIP3    H255608   2.536   0.133   1.465 -0.5226  0.9862  0.3200
11373TIP3   OH255609   1.302   3.415  14.975 -0.2317  0.1622  1.1841
11373TIP3    H155610   1.215   3.398  14.940 -0.0229  0.2044  0.6258
11373TIP3    H255611   1.351   3.334  14.960  0.8307  1.1969 -1.7034
11374TIP3   OH255612   6.170   1.587   5.289  0.0308 -0.3075 -0.0271
11374TIP3    H155613   6.244   1.580   5.229 -0.5612  1.8397 -1.1147
11374TIP3    H255614   6.138   1.677   5.278 -1.3251 -0.4488  2.0910
11375TIP3   OH255615   0.814   2.344  15.757  0.0617 -0.4093  0.1023
11375TIP3    H155616   0.746   2.388  15.706 -0.1927 -0.2789  0.5437
11375TIP3    H255617   0.840   2.410  15.822 -1.2319 -1.3095  1.6040
11376TIP3   OH255618   0.281   1.704   4.709 -0.5676  0.3501 -0.3364
11376TIP3    H155619   0.188   1.719   4.688 -0.9953  0.2244  1.3370
11376TIP3    H255620   0.281   1.678   4.801  1.1675  0.5227 -0.2560
11377TIP3   OH255621   1.779   1.266   1.467  0.0488 -0.5897 -0.5966
11377TIP3    H155622   1.847   1.330   1.445 -0.8832 -0.1750 -2.4859
11377TIP3    H255623   1.747   1.236   1.382 -0.9189 -2.0889  0.2650
11378TIP3   OH255624   1.954   0.641  12.316 -0.0192  0.4275 -0.1302
11378TIP3    H155625   1.874   0.637  12.369 -0.0998 -0.1287 -0.2844
11378TIP3    H255626   1.935   0.708  12.250 -0.6517 -0.2183 -0.6233
11379TIP3   OH255627   1.294   3.230  12.316 -0.2517  0.2198 -0.2531
11379TIP3    H155628   1.284   3.160  12.251 -1.5755  0.4722 -0.3497
11379TIP3    H255629   1.264   3.191  12.398  3.3313 -0.7661  0.7526
11380TIP3   OH255630   3.747   0.321   2.859  0.0769 -0.1314 -0.4098
11380TIP3    H155631   3.661   0.284   2.838 -1.4108  1.7785  1.8231
11380TIP3    H255632   3.741   0.413   2.833  1.9748 -0.2434 -1.4356
11381TIP3   OH255633   0.676   2.166  12.508  0.3458  0.2996 -0.3268
11381TIP3    H155634   0.611   2.208  12.565  0.3085 -1.1260  0.7467
11381TIP3    H255635   0.758   2.209  12.531  0.1384  0.5460 -0.0358
11382TIP3   OH255636   0.079   0.717  12.541 -0.3397  0.0891 -0.3279
11382TIP3    H155637   0.090   0.785  12.607 -0.6967 -0.4648  0.3205
11382TIP3    H255638   0.025   0.757  12.473 -1.2567  0.1961  0.4490
11383TIP3   OH255639   1.790   6.100  15.874  0.5659  0.4571  1.1772
11383TIP3    H155640   1.841   6.177  15.902 -0.3288  1.0835  1.1287
11383TIP3    H255641   1.844   6.025  15.899  1.6822  1.1094  0.7934
11384TIP3   OH255642   1.458   5.726   1.515 -0.2787 -0.4769  0.0746
11384TIP3    H155643   1.419   5.645   1.484  0.6192 -0.5329 -1.0052
11384TIP3    H255644   1.533   5.699   1.568 -1.2761 -0.3638  1.5789
11385TIP3   OH255645   6.044   5.960  13.202 -0.0602  1.1554 -0.3828
11385TIP3    H155646   6.012   6.046  13.228  2.0550  2.2560 -1.1539
11385TIP3    H255647   6.075   5.972  13.112 -2.2882 -1.1669 -1.5748
11386TIP3   OH255648   0.975   4.689  15.608  0.1823 -0.3952  0.3142
11386TIP3    H155649   0.897   4.674  15.555  0.2468 -0.3608  0.2096
11386TIP3    H255650   1.046   4.697  15.545  0.2725 -0.4333  0.4096
11387TIP3   OH255651   4.254   0.155   0.784  0.0871  0.0882  0.0148
11387TIP3    H155652   4.260   0.222   0.716  1.3722 -1.7614 -1.8305
11387TIP3    H255653   4.345   0.128   0.798 -0.1607  0.3284  2.4383
11388TIP3   OH255654   4.632   6.135  15.838  0.0318 -0.0032 -0.4703
11388TIP3    H155655   4.627   6.229  15.851 -0.3382 -0.2260  1.2241
11388TIP3    H255656   4.551   6.101  15.877 -0.0390 -0.9991 -1.4279
11389TIP3   OH255657   3.877   6.288   1.142 -0.4364  0.1694 -0.4729
11389TIP3    H155658   3.881   6.354   1.211 -1.9134 -1.8511  1.6994
11389TIP3    H255659   3.823   6.218   1.179  1.6107 -2.6100 -2.3398
11390TIP3   OH255660   1.636   2.967   5.740 -0.4324  0.0404  0.1460
11390TIP3    H155661   1.610   2.959   5.832 -0.9995 -1.1388 -0.0995
11390TIP3    H255662   1.730   2.948   5.741  0.1254  2.5054  0.7858
11391TIP3   OH255663   2.388   6.334   4.988  0.5783 -0.1731 -0.0294
11391TIP3    H155664   2.404   6.425   5.013  1.1493 -0.6195  1.3344
11391TIP3    H255665   2.476   6.297   4.977  0.3432 -0.4015 -1.2491
11392TIP3   OH255666   6.033   2.673   6.112  0.0720  0.7186  0.1743
11392TIP3    H155667   6.095   2.742   6.088 -0.1988 -0.0309 -3.0226
11392TIP3    H255668   6.029   2.678   6.208  2.8660  2.6552  0.3213
11393TIP3   OH255669   0.817   4.387   0.958  0.1687  0.1050  0.6236
11393TIP3    H155670   0.882   4.335   1.006  0.5854  1.6215  1.7826
11393TIP3    H255671   0.850   4.477   0.964  0.8170  0.3152 -3.4870
11394TIP3   OH255672   4.248   0.459   0.769 -0.6969 -0.8925  0.0386
11394TIP3    H155673   4.340   0.438   0.754 -0.8477 -1.0252 -0.7140
11394TIP3    H255674   4.238   0.456   0.864  0.3635  0.3433  0.2068
11395TIP3   OH255675   2.294   1.792  17.212 -0.1413  0.7161 -0.1988
11395TIP3    H155676   2.275   1.729  17.281  1.2143  1.6597  1.0753
11395TIP3    H255677   2.208   1.811  17.173 -1.1934  1.3497  2.2651
11396TIP3   OH255678   3.252   2.101   5.244 -0.3946 -0.4627  0.1375
11396TIP3    H155679   3.276   2.184   5.204 -1.8555  0.2394  0.6280
11396TIP3    H255680   3.174   2.073   5.195 -0.5855 -0.9623  0.7180
11397TIP3   OH255681   3.820   5.021  12.127 -0.0721 -0.4044 -0.3012
11397TIP3    H155682   3.745   4.986  12.080 -0.4852 -0.3312  0.2912
11397TIP3    H255683   3.886   4.951  12.122 -0.4935 -0.8276 -0.0792
11398TIP3   OH255684   4.263   5.242  10.467  0.2184  0.0096  0.0963
11398TIP3    H155685   4.219   5.238  10.552 -0.0393 -2.9202 -0.0628
11398TIP3    H255686   4.192   5.254  10.404 -0.6688 -4.5205 -0.1427
11399TIP3   OH255687   6.142   6.628   4.346 -0.0811 -0.1603  0.5527
11399TIP3    H155688   6.185   6.554   4.388  0.2766  0.3277  1.0588
11399TIP3    H255689   6.131   6.601   4.255 -0.0084 -0.8529  0.7426
11400TIP3   OH255690   2.452   3.101   4.703 -0.2068 -0.4020 -0.1977
11400TIP3    H155691   2.412   3.162   4.640 -1.2458 -0.4838  0.3566
11400TIP3    H255692   2.464   3.154   4.782  1.8110 -0.0849 -0.6589
11401TIP3   OH255693   1.151   4.040  14.770 -0.1615  0.0296 -0.4108
11401TIP3    H155694   1.241   4.033  14.802  0.7668  1.9502 -2.3385
11401TIP3    H255695   1.152   3.992  14.687 -1.3831 -1.2981  0.3116
11402TIP3   OH255696   5.709   2.613   3.033  0.1257  0.4797  0.1629
11402TIP3    H155697   5.676   2.578   3.116  1.3036 -1.9227 -0.2813
11402TIP3    H255698   5.674   2.553   2.967  2.1460  0.1284 -0.6777
11403TIP3   OH255699   1.407   1.734  15.233 -0.0053 -0.0827 -0.0658
11403TIP3    H155700   1.470   1.694  15.293  0.8994 -0.1768 -1.0393
11403TIP3    H255701   1.375   1.662  15.179 -0.0714  0.1494 -0.3390
11404TIP3   OH255702   5.417   0.734  15.914 -0.0873  0.4227  0.4253
11404TIP3    H155703   5.497   0.786  15.914 -0.7537  1.5017 -0.0228
11404TIP3    H255704   5.349   0.795  15.943 -0.9393 -0.1106 -0.3730
11405TIP3   OH255705   0.335   3.874  15.016  0.8253 -0.6615  0.1719
11405TIP3    H155706   0.410   3.932  15.000  0.2387 -0.1197 -0.7895
11405TIP3    H255707   0.308   3.893  15.105  0.2511  1.0750 -0.3249
11406TIP3   OH255708   5.825   3.737  11.193  0.1584 -0.2758 -0.1047
11406TIP3    H155709   5.750   3.776  11.147  0.7393 -1.0612 -1.7964
11406TIP3    H255710   5.891   3.725  11.125  1.2228 -1.1382  1.0360
11407TIP3   OH255711   2.296   3.961  13.971 -0.2798  0.3873 -0.2859
11407TIP3    H155712   2.220   3.934  14.024 -0.7354  0.2534 -0.9869
11407TIP3    H255713   2.293   4.057  13.973 -1.4482  0.4158 -1.6330
11408TIP3   OH255714   3.883   3.925   1.543 -0.3754  0.2496  0.5094
11408TIP3    H155715   3.949   3.860   1.519 -1.2205 -0.9235  1.1760
11408TIP3    H255716   3.933   4.001   1.571  0.6490  0.7020 -2.2396
11409TIP3   OH255717   2.885   3.684   3.479 -0.1624 -0.1530 -0.1832
11409TIP3    H155718   2.944   3.753   3.451  1.4281 -1.5222 -0.3476
11409TIP3    H255719   2.940   3.606   3.488 -1.9380 -1.5281 -0.4207
11410TIP3   OH255720   5.542   1.021  12.558 -0.0217 -0.2221  0.0275
11410TIP3    H155721   5.534   1.011  12.653  0.4175 -1.3915 -0.0376
11410TIP3    H255722   5.462   1.065  12.531  0.1486  0.7359  1.0188
11411TIP3   OH255723   3.619   4.121  15.405  0.4926 -0.8693  0.5200
11411TIP3    H155724   3.599   4.056  15.338 -0.5113  0.9389 -1.0423
11411TIP3    H255725   3.620   4.072  15.487  0.3329 -2.9218 -0.6454
11412TIP3   OH255726   2.411   4.909   5.682  0.5504  0.2509 -0.2579
11412TIP3    H155727   2.461   4.862   5.748  2.4516  1.9413 -0.3996
11412TIP3    H255728   2.394   4.995   5.721 -0.5996  0.3724 -0.9788
11413TIP3   OH255729   4.202   1.887  15.034  0.0729  0.0621 -0.0403
11413TIP3    H155730   4.109   1.907  15.033  0.1744  0.5746 -1.1153
11413TIP3    H255731   4.242   1.962  15.079  0.0468  0.2907 -0.3905
11414TIP3   OH255732   6.257   5.734   0.829 -0.5655 -0.2737  0.5692
11414TIP3    H155733   6.283   5.657   0.879 -1.5415 -0.6252  0.5635
11414TIP3    H255734   6.339   5.774   0.800 -0.0575 -1.4716  0.3274
11415TIP3   OH255735   3.148   5.109  14.808 -0.4269 -0.4171 -0.0848
11415TIP3    H155736   3.068   5.091  14.857  0.0624 -2.5428  0.0438
11415TIP3    H255737   3.206   5.036  14.829  1.4791  0.9313 -0.3654
11416TIP3   OH255738   2.621   2.390   2.820 -0.4742 -0.1846 -0.3976
11416TIP3    H155739   2.713   2.402   2.845  0.1184 -2.1051 -1.5253
11416TIP3    H255740   2.583   2.342   2.894 -0.6892  0.9033  0.2226
11417TIP3   OH255741   5.445   0.835  17.141  0.7467  0.7391 -0.2846
11417TIP3    H155742   5.537   0.807  17.149  0.6225  0.1867 -0.7678
11417TIP3    H255743   5.404   0.802  17.221  0.8152  0.3600 -0.4022
11418TIP3   OH255744   5.340   4.640   1.468  0.1824  0.1344 -0.2382
11418TIP3    H155745   5.371   4.674   1.552 -1.5900  1.3575 -0.0224
11418TIP3    H255746   5.390   4.560   1.454  0.6059 -0.0310  1.9262
11419TIP3   OH255747   3.748   5.983  13.602 -0.0215  0.1648 -0.7635
11419TIP3    H155748   3.765   5.893  13.629 -1.5117  0.1207  0.1760
11419TIP3    H255749   3.695   5.974  13.523 -0.1120  0.2054 -0.7078
11420TIP3   OH255750   0.695   0.978   0.130  0.0256 -0.3642  0.7407
11420TIP3    H155751   0.616   1.004   0.176 -0.5541 -2.7988  1.2834
11420TIP3    H255752   0.692   1.026   0.047 -1.2549  0.6638  1.3427
11421TIP3   OH255753   2.404   1.164  12.231 -0.1940 -0.0821  0.1521
11421TIP3    H155754   2.419   1.258  12.223 -4.5471  0.6864 -2.1078
11421TIP3    H255755   2.432   1.129  12.146 -1.9086 -0.1171 -0.4421
11422TIP3   OH255756   1.132   1.828  15.989 -0.0895  0.0923  0.2504
11422TIP3    H155757   1.048   1.790  16.017  0.1326 -1.6067 -1.1602
11422TIP3    H255758   1.184   1.752  15.961  0.9723  1.3113 -1.2680
11423TIP3   OH255759   3.120   5.126  13.957  0.1138  0.2119  0.2865
11423TIP3    H155760   3.048   5.108  14.016  1.6937  1.0986  2.6683
11423TIP3    H255761   3.107   5.217  13.931  0.7100  0.6073  1.3081
11424TIP3   OH255762   1.671   0.271  16.194  0.4041  0.0244  0.5191
11424TIP3    H155763   1.664   0.361  16.164  1.9212 -0.3661 -1.1505
11424TIP3    H255764   1.599   0.226  16.151 -0.6068  0.4669  1.6753
11425TIP3   OH255765   3.282   2.345   4.627 -0.3895  0.0817  0.2210
11425TIP3    H155766   3.208   2.403   4.610  0.4033  1.3058  0.7690
11425TIP3    H255767   3.314   2.372   4.713 -0.4324 -1.6854  0.8284
11426TIP3   OH255768   0.213   5.335  11.784  0.7406 -0.0491  0.1528
11426TIP3    H155769   0.202   5.296  11.698  0.1881 -0.9916  0.6350
11426TIP3    H255770   0.149   5.406  11.787  1.3071  0.5019 -0.4915
11427TIP3   OH255771   6.608   2.557  11.042  0.2151  0.0642  1.5131
11427TIP3    H155772   6.546   2.617  11.002  1.4234 -0.1463 -0.8279
11427TIP3    H255773   6.604   2.477  10.989  1.9094 -0.2183  1.7359
11428TIP3   OH255774   2.648   6.187  10.748  0.0650  0.1280  0.9028
11428TIP3    H155775   2.727   6.240  10.745 -0.0355  0.2394 -0.7494
11428TIP3    H255776   2.642   6.148  10.661 -1.4385 -0.2502  1.1487
11429TIP3   OH255777   5.497   2.814   5.886  0.2391 -0.1826 -0.0650
11429TIP3    H155778   5.568   2.876   5.874 -1.5649  1.8348 -0.9342
11429TIP3    H255779   5.511   2.747   5.820  1.5259 -0.0465  0.0516
11430TIP3   OH255780   5.275   1.760   1.894  0.2152 -0.1875  0.5400
11430TIP3    H155781   5.207   1.741   1.829 -0.3436  0.5203  0.9182
11430TIP3    H255782   5.345   1.696   1.874 -0.4736 -0.8008  0.0423
11431TIP3   OH255783   5.933   2.307  12.822 -0.3029 -0.2552  0.5337
11431TIP3    H155784   5.955   2.248  12.895 -0.1492  1.4089  1.8989
11431TIP3    H255785   5.842   2.332  12.838 -1.4212 -2.3518 -1.7205
11432TIP3   OH255786   0.445   5.766  13.005 -0.3190  0.2500 -0.2427
11432TIP3    H155787   0.510   5.722  13.060 -0.2321 -0.7656 -1.1298
11432TIP3    H255788   0.432   5.707  12.931 -1.0945  1.1733 -0.8690
11433TIP3   OH255789   2.819   1.868  12.801 -0.1337 -0.3333 -0.2302
11433TIP3    H155790   2.744   1.926  12.819 -2.3462 -2.7676 -1.0318
11433TIP3    H255791   2.890   1.928  12.777 -1.3670  2.1789  1.8190
11434TIP3   OH255792   2.369   2.753   0.199 -0.2822 -0.1281 -0.1446
11434TIP3    H155793   2.403   2.836   0.165 -1.6789  0.5408  0.0074
11434TIP3    H255794   2.389   2.755   0.292 -0.3878  0.0887 -0.1251
11435TIP3   OH255795   2.071   3.173   5.740  0.4997 -0.2569  0.5066
11435TIP3    H155796   2.010   3.159   5.813 -0.5645 -0.9019 -0.4653
11435TIP3    H255797   2.050   3.261   5.708  0.5838 -0.1951  0.6190
11436TIP3   OH255798   1.095   2.196  11.515  0.1006 -0.2836 -0.2283
11436TIP3    H155799   1.180   2.220  11.553 -0.0747 -2.3699  1.6639
11436TIP3    H255800   1.037   2.186  11.590 -1.5243 -0.0683 -1.4130
11437TIP3   OH255801   0.041   5.663  15.216  0.4909  0.2517  0.2165
11437TIP3    H155802   0.035   5.758  15.228  1.7220  0.8724 -3.1489
11437TIP3    H255803   0.134   5.646  15.204  0.1160 -1.0695 -1.1560
11438TIP3   OH255804   6.667   0.593  13.791 -0.0213  0.0859  0.2773
11438TIP3    H155805   6.642   0.609  13.882  0.1091  1.0992  0.1469
11438TIP3    H255806   6.587   0.563  13.749 -0.5038  1.1960  0.3631
11439TIP3   OH255807   4.745   4.433  14.865  0.5585 -0.1864 -0.0678
11439TIP3    H155808   4.786   4.356  14.903  0.8298 -0.2219 -0.4337
11439TIP3    H255809   4.785   4.507  14.912  1.3218 -0.2022 -0.6835
11440TIP3   OH255810   0.487   6.164  11.111 -0.1983 -0.1648  0.0617
11440TIP3    H155811   0.425   6.225  11.152  0.2832  1.3432 -1.3617
11440TIP3    H255812   0.483   6.184  11.018  1.1290 -1.2614 -0.2636
11441TIP3   OH255813   5.874   2.814  12.012 -0.4879  1.0599  0.1123
11441TIP3    H155814   5.890   2.729  12.053  0.6907  0.8071 -0.8091
11441TIP3    H255815   5.956   2.862  12.025 -1.7215  2.7917  2.2175
11442TIP3   OH255816   5.246   2.183   3.883 -0.2953 -0.1137 -0.1780
11442TIP3    H155817   5.152   2.173   3.869  0.1700 -0.2808 -4.3984
11442TIP3    H255818   5.268   2.116   3.948 -2.7937 -1.3797 -0.5182
11443TIP3   OH255819   0.540   2.082  14.710 -0.4760  0.1545 -0.7194
11443TIP3    H155820   0.452   2.115  14.692 -0.5348 -0.4724 -1.6546
11443TIP3    H255821   0.535   2.048  14.799 -1.0390  0.5687 -0.5861
11444TIP3   OH255822   1.809   1.094   3.707 -0.2637  0.2795 -0.5997
11444TIP3    H155823   1.821   1.009   3.666 -0.1725 -1.7347  3.1663
11444TIP3    H255824   1.847   1.157   3.645  1.9902 -2.6484 -2.4166
11445TIP3   OH255825   1.055   0.451   0.348  0.6970  0.1689 -0.5277
11445TIP3    H155826   1.073   0.481   0.437  0.8618 -1.2811 -0.0451
11445TIP3    H255827   0.960   0.450   0.342  0.4060 -4.2199  1.3598
11446TIP3   OH255828   3.891   4.319  12.866  0.4220  0.3510  0.2900
11446TIP3    H155829   3.837   4.357  12.796  0.0577  1.0856  0.9553
11446TIP3    H255830   3.871   4.226  12.864  0.4696  0.3503 -0.6338
11447TIP3   OH255831   2.906   3.395   1.650  0.0937  0.1136  0.4575
11447TIP3    H155832   2.844   3.334   1.611  1.0496 -1.1835  0.8658
11447TIP3    H255833   2.855   3.447   1.711 -1.1530  1.2032 -1.3957
11448TIP3   OH255834   2.080   4.828  16.798  0.1468 -0.3767 -0.1566
11448TIP3    H155835   2.127   4.784  16.869  1.2203  0.8893 -0.0413
11448TIP3    H255836   2.148   4.849  16.734 -0.5139  0.1430 -0.7023
11449TIP3   OH255837   1.390   6.131  12.788  0.1355  0.5139 -0.4029
11449TIP3    H155838   1.461   6.084  12.830 -1.9543 -1.9111  0.6860
11449TIP3    H255839   1.389   6.098  12.698 -0.0093  0.0437 -0.2321
11450TIP3   OH255840   3.114   2.991   2.287  0.0743 -0.4250 -0.1977
11450TIP3    H155841   3.147   3.063   2.233  0.2149 -0.5518 -0.2809
11450TIP3    H255842   3.040   3.029   2.334 -0.2172 -0.3847 -0.6814
11451TIP3   OH255843   3.651   2.569  15.827 -0.1522 -0.4339  0.3321
11451TIP3    H155844   3.641   2.475  15.814  1.6708 -0.7519  0.8434
11451TIP3    H255845   3.671   2.578  15.920  1.2731  0.2763 -0.0180
11452TIP3   OH255846   0.601   5.999   1.383  0.0928 -0.1849 -0.4638
11452TIP3    H155847   0.565   6.042   1.460  0.2077  0.7815 -0.9297
11452TIP3    H255848   0.526   5.960   1.339  0.0255 -0.7116  0.1205
11453TIP3   OH255849   1.078   4.225  13.343  0.4118 -0.6457 -0.3972
11453TIP3    H155850   1.173   4.238  13.335  0.6565 -2.5144 -0.8943
11453TIP3    H255851   1.043   4.258  13.260  0.2964  2.2614  0.6871
11454TIP3   OH255852   4.928   5.058  12.106 -0.1486  0.1380  0.7397
11454TIP3    H155853   5.012   5.021  12.132  0.3199  0.7228  0.0985
11454TIP3    H255854   4.888   5.086  12.189  0.2435 -0.2192  1.0576
11455TIP3   OH255855   5.780   2.715   5.430 -0.0242 -0.3030  0.7146
11455TIP3    H155856   5.733   2.646   5.383  1.2879  0.6479 -2.2608
11455TIP3    H255857   5.869   2.679   5.441 -0.3752 -0.6275  2.9016
11456TIP3   OH255858   0.174   2.141   0.848  0.2821  0.3161 -0.0190
11456TIP3    H155859   0.149   2.220   0.800 -1.0749 -0.4812 -0.6714
11456TIP3    H255860   0.120   2.071   0.811  0.5800 -0.7070  1.3699
11457TIP3   OH255861   0.443   0.096   1.439 -0.1700  0.3099 -0.1534
11457TIP3    H155862   0.519   0.153   1.452 -0.0901 -0.3833  3.3723
11457TIP3    H255863   0.371   0.143   1.481 -1.3160  0.1040 -1.8116
11458TIP3   OH255864   5.123   0.008   0.559  0.1775 -0.2938  0.4859
11458TIP3    H155865   5.122  -0.062   0.623 -2.0295 -2.0382 -1.3044
11458TIP3    H255866   5.134   0.088   0.611 -3.2449 -1.3983  3.3151
11459TIP3   OH255867   1.376   5.893  16.476  0.1438 -0.0065 -0.1647
11459TIP3    H155868   1.424   5.813  16.453  1.1422  0.5145  0.0138
11459TIP3    H255869   1.328   5.870  16.556 -1.1644 -1.0001 -1.1979
11460TIP3   OH255870   5.740   4.284   0.282 -0.1253 -0.9831  0.2907
11460TIP3    H155871   5.688   4.256   0.207  0.1914 -0.3182 -0.1858
11460TIP3    H255872   5.675   4.318   0.344 -0.2100  0.6784 -0.6680
11461TIP3   OH255873   1.248   4.954   3.964  0.0124 -0.0140 -0.1213
11461TIP3    H155874   1.330   4.966   4.011 -0.3747  0.2119  0.5082
11461TIP3    H255875   1.267   4.980   3.874  0.7384 -0.3655 -0.0749
11462TIP3   OH255876   4.359   4.084  13.233  0.4430  0.6351 -0.4054
11462TIP3    H155877   4.412   4.005  13.242  0.2470  0.6105  0.5805
11462TIP3    H255878   4.350   4.096  13.138 -0.1098 -0.9158 -0.5779
11463TIP3   OH255879   0.473   0.982   4.252  0.9765 -0.4831 -0.1523
11463TIP3    H155880   0.560   1.021   4.262  0.9083 -0.8591  2.5346
11463TIP3    H255881   0.481   0.896   4.295 -0.1431 -1.4984 -1.8714
11464TIP3   OH255882   5.804   3.452  11.602 -1.0347  0.1325 -0.1200
11464TIP3    H155883   5.854   3.382  11.560 -0.6127 -0.3511  1.1321
11464TIP3    H255884   5.763   3.499  11.529  1.7101  0.9368 -1.3236
11465TIP3   OH255885   0.897   2.037  16.071  0.4084 -0.4175 -0.2240
11465TIP3    H155886   0.878   1.948  16.101 -1.5563  0.4469  1.3552
11465TIP3    H255887   0.922   2.084  16.150  0.1794  0.7369 -0.8249
11466TIP3   OH255888   3.329   1.565   3.819 -0.3822  0.5791 -0.2763
11466TIP3    H155889   3.324   1.660   3.834  0.2527  0.7275 -0.9738
11466TIP3    H255890   3.238   1.538   3.809 -0.5056  1.3219 -1.2751
11467TIP3   OH255891   0.391   3.432   2.216 -0.5319 -0.2590 -0.1743
11467TIP3    H155892   0.382   3.404   2.307 -0.1692 -1.9505 -0.6224
11467TIP3    H255893   0.324   3.499   2.204 -3.6172 -3.0098  0.1977
11468TIP3   OH255894   1.301   2.606  14.237  0.2429  0.1931 -0.3346
11468TIP3    H155895   1.229   2.614  14.300 -0.5697  0.5063 -1.2567
11468TIP3    H255896   1.380   2.621  14.288 -0.1832 -2.0118  1.0882
11469TIP3   OH255897   0.733   5.281   3.019  0.4697 -0.1861 -0.4403
11469TIP3    H155898   0.718   5.201   3.069 -0.9182 -0.6985 -1.6249
11469TIP3    H255899   0.679   5.347   3.062 -0.6697 -0.6108 -1.1778
11470TIP3   OH255900   4.014   4.656   0.521 -0.3540 -0.0022  0.0656
11470TIP3    H155901   3.948   4.716   0.558 -0.4349 -0.3237  0.4403
11470TIP3    H255902   4.077   4.643   0.591 -0.4056 -0.4630  0.0265
11471TIP3   OH255903   2.700   1.663   5.542  0.4826 -0.3874 -0.3664
11471TIP3    H155904   2.760   1.722   5.587 -1.0064  0.3230  0.7634
11471TIP3    H255905   2.711   1.579   5.586  1.8585 -0.7316 -1.3032
11472TIP3   OH255906   0.346   4.605  15.457 -0.1856  0.0329  0.5276
11472TIP3    H155907   0.368   4.520  15.496  0.3399 -0.5282 -0.9206
11472TIP3    H255908   0.294   4.649  15.525 -1.5695 -1.9426  0.8650
11473TIP3   OH255909   2.493   5.306   2.103 -0.2456 -0.2152  0.2115
11473TIP3    H155910   2.541   5.233   2.066  0.4520  0.8303 -1.0215
11473TIP3    H255911   2.454   5.350   2.028  2.3614  2.7867  0.3850
11474TIP3   OH255912   1.415   4.055  16.850  0.8582  0.8514  0.4847
11474TIP3    H155913   1.431   4.132  16.795  1.2270  0.2954 -0.1890
11474TIP3    H255914   1.502   4.026  16.877  0.7653  0.1677  0.0515
11475TIP3   OH255915   0.549   3.210   3.835 -0.1113  0.0066 -0.5087
11475TIP3    H155916   0.498   3.235   3.911 -0.8716  0.3759 -1.1312
11475TIP3    H255917   0.625   3.269   3.837 -0.0863 -0.0385 -0.0039
11476TIP3   OH255918   2.191   0.499  11.817 -0.5999 -0.0008  0.1915
11476TIP3    H155919   2.174   0.512  11.724  2.3671  1.0210 -0.3368
11476TIP3    H255920   2.156   0.413  11.836 -2.2942  0.2331 -1.5632
11477TIP3   OH255921   3.760   1.290   5.406 -0.6841  0.3034 -0.5275
11477TIP3    H155922   3.763   1.198   5.430 -1.3152  0.4977  0.3553
11477TIP3    H255923   3.687   1.326   5.457  3.3596  2.7311  4.4639
11478TIP3   OH255924   3.319   4.928  12.131  0.0701 -0.0639 -0.1557
11478TIP3    H155925   3.299   5.021  12.140  0.6082  0.0200  0.2195
11478TIP3    H255926   3.380   4.909  12.202  0.8849 -0.4332 -0.9360
11479TIP3   OH255927   0.545   6.477   1.277 -0.2997  0.2098  0.0777
11479TIP3    H155928   0.517   6.561   1.240 -0.0451  0.3073  0.1053
11479TIP3    H255929   0.598   6.437   1.209 -1.2318 -0.3808 -0.3232
11480TIP3   OH255930   2.771   3.071   3.163 -0.1242 -0.0592 -0.1992
11480TIP3    H155931   2.797   3.088   3.073 -2.1097 -1.7639 -1.1687
11480TIP3    H255932   2.813   2.988   3.185 -0.6676 -0.2855 -0.0036
11481TIP3   OH255933   0.237   0.996   0.325  0.2741 -0.5650  0.3467
11481TIP3    H155934   0.187   0.920   0.293 -0.4148 -0.8534  2.0067
11481TIP3    H255935   0.177   1.039   0.387  1.2387  0.4417  0.6041
11482TIP3   OH255936   5.437   3.903  15.995  0.0565  0.0005 -0.4541
11482TIP3    H155937   5.426   3.986  16.042  1.5491 -1.5187  2.9335
11482TIP3    H255938   5.349   3.877  15.971 -0.8093  1.0533  1.3511
11483TIP3   OH255939   6.590   5.792   4.042  0.2700  0.0742 -0.3540
11483TIP3    H155940   6.497   5.805   4.059  0.0685 -1.7328  0.1240
11483TIP3    H255941   6.634   5.856   4.099 -0.6529  0.9502 -0.5973
11484TIP3   OH255942   1.934   1.288  12.716 -0.2304 -0.2185 -0.3387
11484TIP3    H155943   1.838   1.285  12.708 -0.3280  0.1607  0.6422
11484TIP3    H255944   1.955   1.381  12.725  0.0332 -0.4133  1.4793
11485TIP3   OH255945   3.824   6.063  16.320 -0.2181  0.0821  0.7057
11485TIP3    H155946   3.901   6.089  16.371 -0.6072 -0.1329  1.4149
11485TIP3    H255947   3.752   6.111  16.360 -0.5362 -0.1170  0.3723
11486TIP3   OH255948   0.637   0.591   2.558 -0.4227 -0.1722  0.2934
11486TIP3    H155949   0.598   0.543   2.632 -0.2330  0.2401  0.6666
11486TIP3    H255950   0.649   0.525   2.490 -2.7452 -0.1417 -0.2379
11487TIP3   OH255951   2.002   5.852  16.245  0.3907 -0.1050 -0.1784
11487TIP3    H155952   2.051   5.805  16.313  0.1104 -0.2150 -0.0469
11487TIP3    H255953   2.032   5.942  16.251  0.7553 -0.2197 -0.2648
11488TIP3   OH255954   3.288   4.198  11.852 -0.6073 -0.7529 -0.0815
11488TIP3    H155955   3.213   4.258  11.851 -0.7404 -0.8984  0.4993
11488TIP3    H255956   3.364   4.254  11.869 -0.4928 -0.5207 -1.2994
11489TIP3   OH255957   1.362   4.777   5.501 -0.2823 -0.2321  0.4445
11489TIP3    H155958   1.314   4.846   5.456 -0.9124 -0.7690  0.2665
11489TIP3    H255959   1.411   4.822   5.570  1.8137  0.7952 -1.6088
11490TIP3   OH255960   4.637   0.660   5.596  0.3505 -0.1922 -0.3013
11490TIP3    H155961   4.685   0.723   5.649  0.6014  1.3663 -2.2580
11490TIP3    H255962   4.642   0.578   5.645  2.0519  0.7362  1.1899
11491TIP3   OH255963   5.330   0.784  12.070 -0.1933  0.3315  0.6524
11491TIP3    H155964   5.414   0.773  12.025 -0.0807 -0.2589  0.9875
11491TIP3    H255965   5.353   0.800  12.162 -0.4370  0.4482  0.6949
11492TIP3   OH255966   2.828   5.175  14.642  0.3771 -0.5575 -0.2337
11492TIP3    H155967   2.807   5.134  14.558 -0.0796  0.8403 -0.8275
11492TIP3    H255968   2.921   5.196  14.636  0.2888 -0.2289 -0.5080
11493TIP3   OH255969   4.495   1.184   1.236  0.5468 -0.6190  0.0008
11493TIP3    H155970   4.423   1.143   1.189 -1.4341  2.3854  0.1534
11493TIP3    H255971   4.567   1.184   1.172  0.4914 -3.5682 -0.1972
11494TIP3   OH255972   4.514   0.851  16.070  0.0635 -0.2409 -0.1400
11494TIP3    H155973   4.454   0.910  16.026  0.7970  0.1931 -0.5791
11494TIP3    H255974   4.549   0.902  16.143 -0.7433 -0.7810  0.6497
11495TIP3   OH255975   2.934   0.120   5.795  0.2182 -0.1573 -0.6436
11495TIP3    H155976   2.989   0.171   5.854 -0.2097  0.1490 -0.5082
11495TIP3    H255977   2.973   0.032   5.796  0.3002 -0.1170 -0.0265
11496TIP3   OH255978   0.995   0.023   5.414  0.0340 -0.5063 -0.3797
11496TIP3    H155979   0.967   0.086   5.481 -0.5274 -0.9029 -0.2407
11496TIP3    H255980   0.989  -0.062   5.457  0.9079 -0.6502 -0.5352
11497TIP3   OH255981   6.201   1.136   3.061 -0.3890  0.5518 -0.4489
11497TIP3    H155982   6.152   1.207   3.018  1.4388  3.3330  1.6704
11497TIP3    H255983   6.279   1.125   3.008 -0.5972  0.2164 -0.6892
11498TIP3   OH255984   6.337   4.544  15.658  0.4726  0.3551  0.6171
11498TIP3    H155985   6.315   4.542  15.565  0.4119  2.5958  0.5130
11498TIP3    H255986   6.352   4.453  15.682 -0.3518 -0.3518 -1.3782
11499TIP3   OH255987   3.019   0.274   2.910  0.2239  0.0529 -0.1897
11499TIP3    H155988   3.040   0.206   2.846  0.0693 -0.4832  0.3167
11499TIP3    H255989   3.093   0.275   2.970 -1.1919 -2.0675  1.7877
11500TIP3   OH255990   5.450   6.643   3.964 -0.4821 -0.9992 -0.0476
11500TIP3    H155991   5.387   6.636   3.892 -0.6072 -1.8264  0.1412
11500TIP3    H255992   5.399   6.679   4.037 -0.4184 -0.4143 -0.2871
11501TIP3   OH255993   2.813   4.839  12.235  0.6445  0.5613  0.1633
11501TIP3    H155994   2.725   4.821  12.269  0.7905  0.7338  0.6515
11501TIP3    H255995   2.865   4.762  12.261  0.0715 -0.7683 -2.3616
11502TIP3   OH255996   2.864   4.553  15.945 -0.2297 -0.5432 -0.0515
11502TIP3    H155997   2.945   4.549  15.894 -1.2383  0.8993 -1.8814
11502TIP3    H255998   2.851   4.463  15.975  1.9173 -0.8557  0.1451
11503TIP3   OH255999   0.359   5.826  15.310 -0.4456 -0.0626  0.3920
11503TIP3    H156000   0.424   5.769  15.268  1.4336  2.3912 -0.3394
11503TIP3    H256001   0.327   5.881  15.238 -3.7831 -1.4714  0.6629
11504TIP3   OH256002   3.365   3.591  13.255  0.4995  0.3403  0.6927
11504TIP3    H156003   3.387   3.629  13.341  0.5583 -0.9478  1.2676
11504TIP3    H256004   3.352   3.498  13.273 -0.0967  0.1601 -0.6041
11505TIP3   OH256005   0.632   5.366  12.482  0.7096 -0.1278  0.6985
11505TIP3    H156006   0.600   5.398  12.397  0.5995 -0.2474  0.6946
11505TIP3    H256007   0.568   5.300  12.508 -0.2557  1.1479  1.7235
11506TIP3   OH256008   6.276   5.964   0.593 -0.2195  0.0272 -0.7333
11506TIP3    H156009   6.285   5.960   0.498  0.5234 -0.1976 -0.6616
11506TIP3    H256010   6.188   5.932   0.611  0.1324 -1.2614 -1.2458
11507TIP3   OH256011   3.810   2.686   4.708 -0.7229 -0.3508  0.0716
11507TIP3    H156012   3.815   2.770   4.755  0.0974 -1.2989  1.7962
11507TIP3    H256013   3.902   2.663   4.691 -0.9776 -0.4805 -1.2139
11508TIP3   OH256014   3.243   6.208  10.247  0.0301  0.0938 -0.1127
11508TIP3    H156015   3.227   6.199  10.340  0.1995 -0.4501 -0.1324
11508TIP3    H256016   3.241   6.303  10.231  1.0740  0.2597  0.6320
11509TIP3   OH256017   1.113   6.673  16.349 -0.2963  0.3908 -0.3423
11509TIP3    H156018   1.160   6.599  16.311  1.0513  0.0132  1.8689
11509TIP3    H256019   1.139   6.748  16.296  3.1064  0.2204  0.8541
11510TIP3   OH256020   3.933   2.821   2.707 -0.3592 -0.7428 -0.1848
11510TIP3    H156021   3.958   2.912   2.688  0.8727 -0.6035  1.8332
11510TIP3    H256022   3.841   2.827   2.731 -0.4502 -0.1052 -0.6606
11511TIP3   OH256023   3.640   4.710  12.827  0.3351 -0.2944  0.0702
11511TIP3    H156024   3.631   4.791  12.776  1.7613  1.0420  1.8111
11511TIP3    H256025   3.656   4.642  12.761  1.8393  1.3000 -1.2920
11512TIP3   OH256026   3.003   0.109   0.329  0.5500 -0.3901 -0.6455
11512TIP3    H156027   2.939   0.040   0.315  0.9685 -0.7595 -0.7678
11512TIP3    H256028   2.975   0.153   0.409  0.5464 -0.9956 -0.3150
11513TIP3   OH256029   6.535   2.158  14.129 -0.3474  0.1152 -0.0384
11513TIP3    H156030   6.619   2.203  14.124  0.1401 -0.8133 -0.3754
11513TIP3    H256031   6.498   2.165  14.041 -2.5542  4.0143  0.9197
11514TIP3   OH256032   2.112   3.523  12.237 -0.0557 -0.0323  0.1120
11514TIP3    H156033   2.053   3.564  12.173  1.2702  1.9206  0.0509
11514TIP3    H256034   2.199   3.552  12.211  0.9004 -2.1481  0.7093
11515TIP3   OH256035   1.725   5.828  16.281 -0.2679  0.4790  0.0310
11515TIP3    H156036   1.692   5.812  16.192 -1.5624  3.4790 -0.1468
11515TIP3    H256037   1.820   5.819  16.274 -0.4626 -0.9932 -1.2323
11516TIP3   OH256038   4.087   6.191   0.524  0.1533  0.8912  0.2121
11516TIP3    H156039   4.081   6.131   0.598  1.9687  0.9967  0.4989
11516TIP3    H256040   4.103   6.277   0.564  0.6169  1.0360 -0.2704
11517TIP3   OH256041   2.126   5.084   0.498 -0.1794 -0.4761  0.0320
11517TIP3    H156042   2.164   5.161   0.455  0.3142 -0.7140  0.0246
11517TIP3    H256043   2.097   5.029   0.426 -3.0046  0.8626  0.0448
11518TIP3   OH256044   4.919   1.720   1.510 -0.2674 -0.0812 -0.0881
11518TIP3    H156045   4.846   1.658   1.513 -0.4565  0.0852 -1.1564
11518TIP3    H256046   4.877   1.806   1.505 -0.0167  0.2075  1.9277
11519TIP3   OH256047   5.948   2.931   5.740  0.8037 -0.3255  0.4606
11519TIP3    H156048   5.954   2.987   5.663  1.1411 -1.2682 -0.2179
11519TIP3    H256049   5.954   2.841   5.706  4.5208 -0.7644  1.8085
11520TIP3   OH256050   2.403   4.123  12.084  0.3904 -0.0693 -0.1602
11520TIP3    H156051   2.352   4.105  12.164  0.6414  1.3434  0.3406
11520TIP3    H256052   2.337   4.129  12.015  0.0371 -0.0068  0.1779
11521TIP3   OH256053   1.876   6.619   1.462 -0.3799 -0.4771  0.4901
11521TIP3    H156054   1.847   6.530   1.481  0.8598 -0.8708  0.5975
11521TIP3    H256055   1.804   6.675   1.491 -0.9653 -1.4134  0.8617
11522TIP3   OH256056   4.922   5.462   3.457 -0.1972  0.9964 -0.1605
11522TIP3    H156057   4.855   5.460   3.526  1.2936  0.4235  1.3390
11522TIP3    H256058   4.872   5.455   3.376 -2.0066  1.3307  0.8574
11523TIP3   OH256059   5.717   1.699   5.512  0.5993 -0.0806 -0.0032
11523TIP3    H156060   5.755   1.787   5.503 -2.5978  1.3284 -1.3981
11523TIP3    H256061   5.738   1.656   5.429 -0.3423  0.5368 -0.5902
11524TIP3   OH256062   2.134   2.969  15.395 -0.4745  0.3070 -0.9831
11524TIP3    H156063   2.094   2.951  15.480  1.9198  1.4841  0.4947
11524TIP3    H256064   2.199   2.899  15.384  0.1365  0.9040 -1.2154
11525TIP3   OH256065   6.020   1.465   6.142 -0.4288 -0.4228  0.0090
11525TIP3    H156066   6.087   1.521   6.102 -0.4370 -0.4808 -0.0871
11525TIP3    H256067   6.069   1.391   6.176 -0.5481 -0.9370 -0.9035
11526TIP3   OH256068   3.624   1.512  13.367  0.1025  0.9927  0.5096
11526TIP3    H156069   3.643   1.420  13.385  1.1577  1.0031 -0.4799
11526TIP3    H256070   3.663   1.559  13.440 -0.2666  0.6872  0.9159
11527TIP3   OH256071   2.421   0.883  13.783  0.4092 -0.0820  0.2552
11527TIP3    H156072   2.349   0.836  13.742  0.2908 -2.1078  2.5538
11527TIP3    H256073   2.378   0.952  13.835  0.0485 -1.3271  1.6741
11528TIP3   OH256074   2.580   1.478   5.928 -0.1158  0.0513  0.2628
11528TIP3    H156075   2.623   1.450   6.009 -0.2580  0.5946  0.5329
11528TIP3    H256076   2.637   1.446   5.858 -0.6899 -1.6037  0.5281
11529TIP3   OH256077   0.194   0.859  14.547  0.7562  0.0264  0.4208
11529TIP3    H156078   0.211   0.857  14.453  0.2326  0.7386  0.3089
11529TIP3    H256079   0.208   0.950  14.573 -1.4682  0.3856  0.5688
11530TIP3   OH256080   3.850   3.728   2.729 -0.2154 -0.4729 -0.2761
11530TIP3    H156081   3.755   3.719   2.733 -0.2755 -0.6256 -1.5452
11530TIP3    H256082   3.870   3.723   2.635  1.0290 -0.3107 -0.0301
11531TIP3   OH256083   1.442   0.506  16.168  0.7220  0.4154  0.2552
11531TIP3    H156084   1.370   0.490  16.229 -2.4943 -0.5495 -3.4025
11531TIP3    H256085   1.453   0.601  16.168  0.7151  0.4548  2.0998
11532TIP3   OH256086   1.285   3.128   5.746  0.1341 -0.4082  0.2830
11532TIP3    H156087   1.310   3.138   5.655  1.3799 -0.1165  0.6379
11532TIP3    H256088   1.215   3.062   5.745  0.3339 -0.6206 -0.8426
11533TIP3   OH256089   0.094   2.091   2.039 -0.9970 -0.2848 -0.2487
11533TIP3    H156090   0.151   2.128   1.972  0.2850 -2.0625 -0.1882
11533TIP3    H256091   0.011   2.139   2.029  0.1364  1.6099 -1.0337
11534TIP3   OH256092   2.740   5.530  10.932  0.4859  0.2093  0.6221
11534TIP3    H156093   2.764   5.574  11.014  2.4083 -1.7472  1.2181
11534TIP3    H256094   2.654   5.491  10.951  0.4236  0.6559  1.3268
11535TIP3   OH256095   6.502   1.097   3.528 -0.2711  0.6192  0.6959
11535TIP3    H156096   6.597   1.088   3.533 -0.2350  1.1491  1.0948
11535TIP3    H256097   6.480   1.071   3.439  0.4624  2.1668  0.0265
11536TIP3   OH256098   1.360   2.931   5.030 -0.6661 -0.3696 -0.4261
11536TIP3    H156099   1.300   2.874   4.983 -0.1245 -1.6644  0.3849
11536TIP3    H256100   1.423   2.871   5.071  0.3798  0.8601 -0.1555
11537TIP3   OH256101   4.475   6.602  11.318 -0.0472 -0.0266  0.1206
11537TIP3    H156102   4.434   6.672  11.266 -0.5319 -1.8048 -2.0572
11537TIP3    H256103   4.523   6.550  11.254  1.2320 -1.0785  1.8530
11538TIP3   OH256104   4.082   5.159  16.961 -0.5589  0.1430 -0.2506
11538TIP3    H156105   4.038   5.240  16.938 -0.3638  0.1068 -0.7456
11538TIP3    H256106   4.054   5.142  17.052 -0.2877  0.9602 -0.0130
11539TIP3   OH256107   0.800   0.452   4.861 -0.4012  0.0436 -0.3358
11539TIP3    H156108   0.706   0.459   4.849 -0.5347 -0.7947  0.1603
11539TIP3    H256109   0.820   0.360   4.845  0.4844  0.3993 -1.4071
11540TIP3   OH256110   3.224   3.442   0.371  0.1441  0.1554  0.4758
11540TIP3    H156111   3.228   3.375   0.439  1.1068  0.3598  0.6408
11540TIP3    H256112   3.140   3.427   0.327  0.4743 -1.3853  0.2829
11541TIP3   OH256113   3.105   3.310   2.601 -0.1566  0.2714 -0.4919
11541TIP3    H156114   3.047   3.235   2.616  0.3266  0.1253  0.7928
11541TIP3    H256115   3.131   3.302   2.509  0.6547 -1.7132 -0.1441
11542TIP3   OH256116   1.754   4.048  16.967  0.4260 -0.4467  0.0184
11542TIP3    H156117   1.838   4.016  16.999  1.2479  0.6434 -1.0135
11542TIP3    H256118   1.758   4.143  16.977 -1.5462 -0.4728  1.9993
11543TIP3   OH256119   0.503   4.220   3.582  0.4434 -0.3100 -0.0341
11543TIP3    H156120   0.547   4.148   3.626 -2.1111 -1.9563  0.0205
11543TIP3    H256121   0.481   4.282   3.651  0.5451 -0.6502  0.3024
11544TIP3   OH256122   5.682   3.460   4.256  0.9572  0.3475 -0.2267
11544TIP3    H156123   5.710   3.551   4.259  1.8963  0.0850 -0.4084
11544TIP3    H256124   5.625   3.449   4.332 -0.6994  1.5390 -1.2311
11545TIP3   OH256125   6.094   4.579   0.650 -0.2706 -0.2041 -0.0557
11545TIP3    H156126   6.159   4.539   0.591 -0.5553  0.4727 -0.8502
11545TIP3    H256127   6.139   4.585   0.734  1.3335  1.7523 -0.9590
11546TIP3   OH256128   3.673   1.775  15.808  0.4593  0.3568  0.6540
11546TIP3    H156129   3.769   1.780  15.802  0.3621  1.0880 -0.5503
11546TIP3    H256130   3.649   1.849  15.864  0.5658  0.3718  0.6802
11547TIP3   OH256131   1.781   1.935  13.680  0.0708  0.4535  0.0419
11547TIP3    H156132   1.745   1.859  13.726 -1.4024  0.3163 -1.2532
11547TIP3    H256133   1.815   1.899  13.598 -0.8295  1.1919 -0.6778
11548TIP3   OH256134   6.566   0.947   1.190  0.5371  0.5171  0.2981
11548TIP3    H156135   6.474   0.929   1.206 -0.0545  3.5441  0.8794
11548TIP3    H256136   6.579   0.930   1.097 -0.6746  0.3424  0.1556
11549TIP3   OH256137   4.174   0.737  12.837  0.2810  0.4201  0.2279
11549TIP3    H156138   4.086   0.744  12.801  0.3441 -0.5104 -0.1196
11549TIP3    H256139   4.228   0.708  12.764  1.1976  2.4462  0.0256
11550TIP3   OH256140   3.768   2.496  11.920 -0.1653 -0.5118 -0.0360
11550TIP3    H156141   3.752   2.408  11.886  0.1337  0.9464 -4.5675
11550TIP3    H256142   3.858   2.516  11.893  0.4994  0.5782  2.6502
11551TIP3   OH256143   6.511   0.098  12.104  0.4392 -0.0485 -0.8670
11551TIP3    H156144   6.433   0.152  12.116  1.5174  1.2436  0.9196
11551TIP3    H256145   6.510   0.037  12.178  0.5626 -0.7687 -1.4478
11552TIP3   OH256146   6.413   1.324  10.625  0.1260 -0.4721 -0.0716
11552TIP3    H156147   6.485   1.378  10.591 -0.0838  1.0131  1.6493
11552TIP3    H256148   6.436   1.310  10.717 -1.6842 -0.1005  0.4774
11553TIP3   OH256149   6.556   1.694   5.837  0.2073 -0.3259  0.8904
11553TIP3    H156150   6.598   1.688   5.750  0.5681  0.0748  1.0335
11553TIP3    H256151   6.557   1.604   5.869 -1.1988 -0.7260 -0.1011
11554TIP3   OH256152   0.188   0.562  11.753  0.4332  0.0907  0.6283
11554TIP3    H156153   0.239   0.481  11.762  0.5884 -0.1162 -1.4689
11554TIP3    H256154   0.130   0.545  11.679  0.2595  1.8060  0.3378
11555TIP3   OH256155   5.714   1.881   4.874  0.0905 -0.1255 -0.2850
11555TIP3    H156156   5.781   1.936   4.834  1.9149 -0.4295  2.1197
11555TIP3    H256157   5.652   1.943   4.912  0.1865  0.1970 -0.6434
11556TIP3   OH256158   4.289   6.093  16.827 -0.2454  0.5685  0.1232
11556TIP3    H156159   4.290   6.025  16.760  3.6142  0.3449  0.1790
11556TIP3    H256160   4.220   6.066  16.888 -0.3342 -2.0448 -1.0272
11557TIP3   OH256161   1.545   5.330   3.622  0.0994 -0.0796  0.1704
11557TIP3    H156162   1.547   5.235   3.631 -0.7254 -0.1891 -0.6530
11557TIP3    H256163   1.625   5.351   3.574  0.5542 -0.2918  0.8180
11558TIP3   OH256164   2.488   5.097  15.762 -0.1770 -0.2972 -0.3663
11558TIP3    H156165   2.566   5.147  15.738  0.5973 -0.9145  0.7868
11558TIP3    H256166   2.421   5.163  15.778  0.9741  0.4567  1.6835
11559TIP3   OH256167   2.011   2.596   1.801  0.3381 -0.0837  0.3417
11559TIP3    H156168   1.947   2.666   1.786  0.2026 -0.2622  0.0648
11559TIP3    H256169   2.085   2.640   1.843 -0.1885  0.0203  1.1864
11560TIP3   OH256170   5.985   3.461   2.648  0.5631 -0.0336 -0.4111
11560TIP3    H156171   5.915   3.431   2.705  0.5668 -1.5014 -1.1501
11560TIP3    H256172   5.946   3.534   2.599 -0.8382 -1.5015 -1.5828
11561TIP3   OH256173   5.093   0.718  15.242 -0.6229 -0.4135  0.0081
11561TIP3    H156174   5.146   0.784  15.199 -1.7491  0.3610 -0.2256
11561TIP3    H256175   5.141   0.698  15.323  0.1504  0.0693 -0.3236
11562TIP3   OH256176   0.050   3.045  16.712 -0.0296 -0.2729  0.0964
11562TIP3    H156177   0.080   2.954  16.714 -0.2174 -0.3271  0.4345
11562TIP3    H256178  -0.035   3.041  16.668 -0.4507 -0.3831  0.9020
11563TIP3   OH256179   6.500   6.032   4.485  0.2844  0.0925  0.1401
11563TIP3    H156180   6.447   6.111   4.479  0.3696  0.1753  0.4766
11563TIP3    H256181   6.556   6.046   4.561  0.1023 -0.4122  0.3717
11564TIP3   OH256182   3.409   1.195   6.569  0.8631 -0.8194 -0.0892
11564TIP3    H156183   3.504   1.200   6.559  0.8857 -1.9325 -0.5576
11564TIP3    H256184   3.394   1.118   6.623  0.2812  0.3058  1.4249
11565TIP3   OH256185   0.770   4.001  13.911  0.2590 -0.3265 -0.9516
11565TIP3    H156186   0.832   3.961  13.850  0.2394  1.2951 -2.0792
11565TIP3    H256187   0.685   3.994  13.868 -0.1454 -1.2269 -0.0554
11566TIP3   OH256188   5.963   2.781  14.276  0.1173  0.3040 -0.1228
11566TIP3    H156189   5.973   2.687  14.290 -1.5322 -0.0130 -0.7977
11566TIP3    H256190   5.932   2.815  14.361  1.1174  0.3360  0.2467
11567TIP3   OH256191   4.301   5.968  15.794 -0.2892  0.5085 -0.1059
11567TIP3    H156192   4.305   6.025  15.871  0.0267  0.5624 -0.1597
11567TIP3    H256193   4.284   6.028  15.721  0.5982  0.6112 -0.2406
11568TIP3   OH256194   4.543   5.733  12.540  0.1243 -0.0928 -0.6801
11568TIP3    H156195   4.607   5.804  12.551 -0.4187  0.3203 -0.1138
11568TIP3    H256196   4.536   5.693  12.627  1.9229 -2.1894 -1.4102
11569TIP3   OH256197   6.583   5.737   5.552  0.3227 -0.0302 -0.3548
11569TIP3    H156198   6.566   5.715   5.460 -1.0546 -1.9145  0.2954
11569TIP3    H256199   6.525   5.811   5.570  0.9617  0.6718 -1.1137
11570TIP3   OH256200   6.506   2.199   5.093  0.1217 -0.1845 -0.2290
11570TIP3    H156201   6.553   2.271   5.136 -0.8693  0.8307 -0.7881
11570TIP3    H256202   6.445   2.242   5.033 -0.8182 -1.4758 -0.2610
11571TIP3   OH256203   2.704   2.507  17.004 -0.3844  0.2417 -0.7345
11571TIP3    H156204   2.619   2.548  17.024 -0.2453 -0.1929  0.9111
11571TIP3    H256205   2.683   2.437  16.943 -1.4275 -0.6897  0.6328
11572TIP3   OH256206   3.209   2.952   0.931 -0.1727  0.0646 -0.0677
11572TIP3    H156207   3.116   2.960   0.911 -0.1682  0.8581  0.2324
11572TIP3    H256208   3.253   2.974   0.849 -0.2525 -0.9423 -0.3974
11573TIP3   OH256209   0.197   0.864  13.514 -0.2626 -0.2563 -0.0099
11573TIP3    H156210   0.153   0.822  13.588 -0.7446  1.8073  0.9460
11573TIP3    H256211   0.129   0.869  13.446 -1.4277  2.3136  1.2253
11574TIP3   OH256212   2.716   6.364  13.719  0.1809  0.2549  0.5297
11574TIP3    H156213   2.740   6.454  13.740 -1.0500  1.1016 -1.3459
11574TIP3    H256214   2.722   6.359  13.623 -1.2525 -1.1784  0.4582
11575TIP3   OH256215   4.031   0.888   3.460 -0.2086  0.5630  0.2501
11575TIP3    H156216   3.999   0.911   3.548 -2.3869  0.5358 -0.4902
11575TIP3    H256217   3.975   0.817   3.432  1.5414 -0.5521 -0.5625
11576TIP3   OH256218   3.387   4.337   3.033 -0.0676  0.1869 -0.4353
11576TIP3    H156219   3.363   4.427   3.053 -0.6739 -0.0266 -0.1599
11576TIP3    H256220   3.327   4.312   2.962  0.5513  0.2147 -0.9729
11577TIP3   OH256221   0.633   1.513  11.948 -0.0391  0.3528 -0.3035
11577TIP3    H156222   0.661   1.462  11.872 -0.8084 -1.1760  0.3931
11577TIP3    H256223   0.714   1.549  11.984  0.6194 -0.8524 -0.5165
11578TIP3   OH256224   6.039   0.458   2.406 -0.5838 -0.0501 -0.2184
11578TIP3    H156225   5.988   0.536   2.430  1.0997  0.7162  1.1517
11578TIP3    H256226   5.992   0.386   2.448 -1.4755  0.3917 -0.4232
11579TIP3   OH256227   4.644   0.593   3.537 -0.2261  0.5485 -0.0911
11579TIP3    H156228   4.683   0.582   3.624 -0.7186  2.2360  0.3873
11579TIP3    H256229   4.718   0.610   3.479  0.1988 -1.5465 -0.2170
11580TIP3   OH256230   2.350   3.474  12.085 -0.3833 -1.1554  0.3977
11580TIP3    H156231   2.429   3.472  12.139  1.2488 -4.4428 -1.7821
11580TIP3    H256232   2.370   3.537  12.016  0.5040 -2.1088 -0.2500
11581TIP3   OH256233   0.267   0.345   3.497  0.2482  0.9830 -0.9591
11581TIP3    H156234   0.359   0.325   3.480  0.4531 -1.1092  1.9222
11581TIP3    H256235   0.238   0.276   3.557 -2.2735  3.3992  0.8580
11582TIP3   OH256236   1.667   6.455   2.118 -0.0625 -0.1727 -0.0232
11582TIP3    H156237   1.710   6.473   2.201  0.2235 -0.8467 -0.0227
11582TIP3    H256238   1.583   6.416   2.143  0.1983 -0.7611 -0.0513
11583TIP3   OH256239   5.809   1.466  15.311 -0.0425 -0.3734  0.1806
11583TIP3    H156240   5.830   1.524  15.384 -1.2401 -0.8762  0.9494
11583TIP3    H256241   5.867   1.390  15.323  0.8168  0.1934 -0.2632
11584TIP3   OH256242   4.287   1.840   4.541 -0.0976 -0.1766 -0.3232
11584TIP3    H156243   4.224   1.793   4.596  0.1858 -2.3604 -1.7175
11584TIP3    H256244   4.372   1.823   4.583 -0.1469  0.3670 -0.0027
11585TIP3   OH256245   4.741   5.451   6.547  0.4104  0.2912 -0.2906
11585TIP3    H156246   4.812   5.511   6.568  0.4861  0.2207 -0.3417
11585TIP3    H256247   4.785   5.368   6.525  0.2742  0.0199  0.4474
11586TIP3   OH256248   0.854   2.758   3.844  0.2693  0.3939  0.4662
11586TIP3    H156249   0.804   2.680   3.820  0.1446  0.5346  0.2539
11586TIP3    H256250   0.789   2.816   3.884 -0.2960  1.5276 -1.8875
11587TIP3   OH256251   3.100   3.847  16.756  0.3859 -0.2631  0.5343
11587TIP3    H156252   3.058   3.902  16.822 -0.6977  0.2675 -0.5461
11587TIP3    H256253   3.170   3.902  16.720 -0.4975  0.3331 -0.3282
11588TIP3   OH256254   5.089   6.430   2.656 -0.0492  0.3991  0.3610
11588TIP3    H156255   5.095   6.360   2.721 -1.4227  0.0866  0.1869
11588TIP3    H256256   5.110   6.387   2.573 -2.2043 -0.1695  0.0595
11589TIP3   OH256257   2.183   3.631  16.691 -0.1527  0.3305 -0.0591
11589TIP3    H156258   2.185   3.614  16.597 -0.2604  1.6144 -0.3146
11589TIP3    H256259   2.237   3.710  16.702 -1.5904  1.2519  0.6987
11590TIP3   OH256260   1.275   4.492  12.683  0.6690  0.2831  0.1283
11590TIP3    H156261   1.347   4.553  12.698  0.3294  0.0663  3.2692
11590TIP3    H256262   1.307   4.407  12.714 -0.9415  0.2485  1.9329
11591TIP3   OH256263   2.300   5.563   5.252  0.5585  0.0477 -0.3422
11591TIP3    H156264   2.246   5.605   5.185  0.5125 -0.0755 -0.3825
11591TIP3    H256265   2.239   5.512   5.304  0.6620 -0.2535 -0.5121
11592TIP3   OH256266   5.393   0.497   0.505  0.2788 -0.3591 -0.0587
11592TIP3    H156267   5.298   0.511   0.507  0.5811  2.2597 -0.4746
11592TIP3    H256268   5.403   0.402   0.505 -2.2923 -0.7337  1.5427
11593TIP3   OH256269   3.138   1.691  14.641  0.1792 -0.6712 -0.2408
11593TIP3    H156270   3.145   1.637  14.562 -0.3587  1.6233 -1.9672
11593TIP3    H256271   3.133   1.781  14.608 -0.5107  0.3511  2.4126
11594TIP3   OH256272   6.123   6.005   5.443 -0.4417 -0.2165 -0.3372
11594TIP3    H156273   6.051   5.953   5.479 -1.3903  0.6140 -0.9617
11594TIP3    H256274   6.164   5.947   5.378 -0.9207 -0.5005 -0.3953
11595TIP3   OH256275   2.269   1.358  17.045 -0.4561  0.3813  0.1794
11595TIP3    H156276   2.315   1.282  17.008 -0.3194  0.3459  0.4206
11595TIP3    H256277   2.189   1.365  16.993 -0.8515 -0.4073  0.6491
11596TIP3   OH256278   5.560   6.105  17.107  0.3088 -0.5484  0.2533
11596TIP3    H156279   5.555   6.199  17.090  1.3133 -0.8137 -1.6849
11596TIP3    H256280   5.567   6.099  17.203 -0.3222  1.2982  0.4569
11597TIP3   OH256281   1.207   5.411   0.063  0.0307 -0.1481  0.2628
11597TIP3    H156282   1.129   5.457   0.030 -0.1347  0.0360  0.9055
11597TIP3    H256283   1.234   5.356  -0.010 -0.1568  0.4784 -0.2929
11598TIP3   OH256284   1.828   4.490  14.507  0.0878  0.3372 -0.4421
11598TIP3    H156285   1.906   4.450  14.546 -0.9626  0.0262  1.5092
11598TIP3    H256286   1.860   4.568  14.462  1.4513  0.6709  1.0102
11599TIP3   OH256287   6.043   2.636   5.445  0.4012 -0.3067 -0.3783
11599TIP3    H156288   6.121   2.692   5.439  0.5332 -0.3677  0.6194
11599TIP3    H256289   6.062   2.562   5.387  1.9475 -1.3238  1.3180
11600TIP3   OH256290   5.052   0.958   4.121  0.3585 -0.1700 -0.0308
11600TIP3    H156291   5.030   0.934   4.030 -0.9674  3.0953 -0.6963
11600TIP3    H256292   4.974   0.936   4.171  0.6006 -0.7484  0.1044
11601TIP3   OH256293   1.567   6.576  12.431 -0.3660 -0.3484  0.6467
11601TIP3    H156294   1.500   6.510  12.449  0.7320 -1.6486  0.1302
11601TIP3    H256295   1.599   6.554  12.343  0.3305  0.6018  0.6578
11602TIP3   OH256296   3.435   0.431  16.823 -0.6151  0.1430 -0.8287
11602TIP3    H156297   3.466   0.423  16.913 -1.0358  1.6351 -0.5305
11602TIP3    H256298   3.448   0.344  16.786  2.4216  0.2320 -0.2418
11603TIP3   OH256299   0.679   0.862   1.625 -0.5289  0.3490 -0.2111
11603TIP3    H156300   0.721   0.943   1.595  0.5006 -0.5785 -1.3894
11603TIP3    H256301   0.591   0.866   1.588  0.0255  0.2383 -1.6200
11604TIP3   OH256302   6.461   6.283   5.025  0.1134 -0.4665 -0.5622
11604TIP3    H156303   6.493   6.205   4.979 -1.5218  0.0087 -2.7281
11604TIP3    H256304   6.487   6.356   4.968  2.4798  0.7675  1.9083
11605TIP3   OH256305   2.313   6.332  13.522  0.3656  0.2659  0.1197
11605TIP3    H156306   2.338   6.422  13.499  1.0239  0.5813  1.9370
11605TIP3    H256307   2.237   6.342  13.579  0.2745 -0.3422  0.1115
11606TIP3   OH256308   0.857   2.792   5.642  0.0890 -0.5474 -0.5029
11606TIP3    H156309   0.859   2.843   5.723 -1.6287  0.0694 -0.8055
11606TIP3    H256310   0.911   2.715   5.661 -0.6303 -0.6436  1.4103
11607TIP3   OH256311   4.179   2.071  12.794 -0.1990  0.3622 -0.3215
11607TIP3    H156312   4.084   2.061  12.790 -0.3282  1.8856 -1.3741
11607TIP3    H256313   4.211   2.027  12.715 -0.2679  2.2060 -1.4196
11608TIP3   OH256314   0.404   0.083  12.452 -0.4396  0.5917  0.4508
11608TIP3    H156315   0.335   0.137  12.491 -0.4574  1.1932 -0.4004
11608TIP3    H256316   0.365   0.047  12.373 -0.1181  0.0836  0.5204
11609TIP3   OH256317   4.615   3.091  16.056  0.2757 -0.4576 -0.4059
11609TIP3    H156318   4.622   2.996  16.056  2.3693 -0.3370 -0.6715
11609TIP3    H256319   4.537   3.109  16.110  2.1435 -2.1958  3.2433
11610TIP3   OH256320   0.865   4.707  14.055 -0.2729  0.1839  0.3674
11610TIP3    H156321   0.881   4.748  13.970  0.1105  0.9294  0.7884
11610TIP3    H256322   0.900   4.619  14.046 -1.1270 -0.0839 -0.5616
11611TIP3   OH256323   3.277   1.885   4.263  0.0637 -0.4986  0.0492
11611TIP3    H156324   3.217   1.949   4.298  0.2998 -0.6136  0.6786
11611TIP3    H256325   3.334   1.935   4.204 -0.3676 -0.3166 -0.2200
11612TIP3   OH256326   3.503   4.655  16.628 -0.0752  0.3382  0.1823
11612TIP3    H156327   3.486   4.748  16.618 -1.7840  0.0064 -0.3698
11612TIP3    H256328   3.566   4.649  16.700  3.6353  2.1364 -2.6067
11613TIP3   OH256329   6.001   1.291  11.647 -0.5115 -0.1458 -0.2024
11613TIP3    H156330   5.980   1.323  11.734 -1.4754 -0.4817 -0.3010
11613TIP3    H256331   5.930   1.230  11.625 -0.7342  0.5607 -1.5575
11614TIP3   OH256332   4.690   0.208  12.254 -0.2733 -0.4786  0.1135
11614TIP3    H156333   4.727   0.144  12.315 -1.3949 -1.3642 -0.0948
11614TIP3    H256334   4.647   0.272  12.310 -1.6207 -1.4913  0.2925
11615TIP3   OH256335   0.940   2.360  14.134  0.5807 -0.8373  0.5486
11615TIP3    H156336   0.889   2.339  14.212  1.0832  4.3876  2.6827
11615TIP3    H256337   0.880   2.411  14.079  1.3880 -1.0768 -0.5897
11616TIP3   OH256338   2.012   1.446  12.411  0.1975  0.3383 -0.3245
11616TIP3    H156339   1.926   1.488  12.412  0.2623  0.5427 -1.4953
11616TIP3    H256340   2.000   1.368  12.358  1.1250  1.3374 -2.1101
11617TIP3   OH256341   1.638   1.035   3.201 -0.2549 -0.2896 -0.3756
11617TIP3    H156342   1.639   1.099   3.131  1.5274  1.0329  0.7697
11617TIP3    H256343   1.612   1.084   3.279  1.6121 -0.7838  0.6208
11618TIP3   OH256344   2.220   0.324  13.917 -0.6397  0.4781  0.2997
11618TIP3    H156345   2.299   0.318  13.864 -1.8197 -0.0217 -1.5200
11618TIP3    H256346   2.217   0.415  13.947 -0.1899  0.9319 -0.9721
11619TIP3   OH256347   3.574   0.819   4.454  0.3437 -0.2400 -0.2533
11619TIP3    H156348   3.568   0.799   4.547 -0.0738  0.4517 -0.1234
11619TIP3    H256349   3.635   0.893   4.449 -0.6268  0.5668 -0.3923
11620TIP3   OH256350   6.251   4.381   1.118  0.0277 -1.0699 -0.0363
11620TIP3    H156351   6.226   4.297   1.078  0.2716 -0.9934 -0.3552
11620TIP3    H256352   6.210   4.379   1.204  0.8666 -1.9584  0.3588
11621TIP3   OH256353   0.021   1.943   0.411 -0.2471 -0.9549 -0.3249
11621TIP3    H156354   0.033   1.975   0.321  1.0787  0.4121  0.2795
11621TIP3    H256355   0.022   1.848   0.403 -0.6011 -0.8614 -1.8098
11622TIP3   OH256356   2.670   2.674   0.094 -0.1657 -0.5127 -0.1603
11622TIP3    H156357   2.740   2.727   0.056 -0.2990  0.9891  1.5816
11622TIP3    H256358   2.713   2.592   0.120  0.0129 -1.4435 -3.0293
11623TIP3   OH256359   0.506   2.362  14.022  0.1581 -0.8125 -0.1051
11623TIP3    H156360   0.512   2.292  14.086  1.5751 -0.0146  0.6973
11623TIP3    H256361   0.413   2.381  14.015 -0.1203 -1.8232  0.7208
11624TIP3   OH256362   6.672   1.700   5.601 -0.5324 -0.3076 -0.1318
11624TIP3    H156363   6.731   1.625   5.606  0.8579  0.8378  1.5625
11624TIP3    H256364   6.613   1.678   5.529  0.2832 -2.6798 -0.1784
11625TIP3   OH256365   1.569   6.597   3.563 -0.3077 -0.0937 -0.2305
11625TIP3    H156366   1.493   6.549   3.531 -0.4239 -0.7736  0.9811
11625TIP3    H256367   1.592   6.657   3.492 -0.8491 -1.1631 -1.3520
11626TIP3   OH256368   1.664   4.747  14.295 -0.5102 -0.0930  0.7324
11626TIP3    H156369   1.668   4.724  14.388 -1.0863  0.5010  0.9170
11626TIP3    H256370   1.751   4.728  14.262 -0.5178 -1.0227  1.2192
11627TIP3   OH256371   6.158   5.751   4.463 -0.6903  0.5761  0.2170
11627TIP3    H156372   6.111   5.789   4.389  0.2673 -0.1575 -0.7871
11627TIP3    H256373   6.122   5.662   4.471 -0.5531  0.5382  0.4275
11628TIP3   OH256374   3.019   0.451  11.646 -0.1191 -0.7898  0.0998
11628TIP3    H156375   3.013   0.528  11.589  0.2135 -1.2047 -0.5005
11628TIP3    H256376   2.927   0.427  11.661 -0.2232 -0.3517  0.1873
11629TIP3   OH256377   2.692   5.839  16.551  0.1891  0.0157 -0.4645
11629TIP3    H156378   2.715   5.899  16.622 -0.9684  1.3272 -1.1533
11629TIP3    H256379   2.647   5.767  16.594  4.5430 -2.2746  0.8595
11630TIP3   OH256380   1.191   5.834  11.865  0.5070  0.3254 -0.7366
11630TIP3    H156381   1.169   5.926  11.850 -1.5548  0.0218  0.1128
11630TIP3    H256382   1.130   5.785  11.810 -1.3597 -0.5810  1.9264
11631TIP3   OH256383   0.968   2.731   5.346  0.7170  0.0915  0.0320
11631TIP3    H156384   0.878   2.755   5.323 -0.3775 -2.3778  1.3422
11631TIP3    H256385   1.011   2.814   5.364 -1.4821  1.3187  0.0293
11632TIP3   OH256386   5.221   5.155   1.859  0.0074 -0.6390  0.2311
11632TIP3    H156387   5.166   5.088   1.818 -1.6213  0.1660  0.9816
11632TIP3    H256388   5.282   5.181   1.791 -0.7174 -1.3913 -0.7459
11633TIP3   OH256389   0.744   1.824  15.362 -0.0494  0.8032  0.2823
11633TIP3    H156390   0.655   1.804  15.389  0.0120  1.1163  0.7308
11633TIP3    H256391   0.776   1.885  15.429 -0.0808  2.0432 -0.8032
11634TIP3   OH256392   2.035   6.281   5.050 -1.0953 -0.4209 -0.4788
11634TIP3    H156393   2.040   6.348   4.982  1.8996 -0.2596 -0.2183
11634TIP3    H256394   2.043   6.198   5.002  0.8561 -0.3128 -0.4171
11635TIP3   OH256395   3.358   4.920  14.524 -0.5601 -0.2584  0.0471
11635TIP3    H156396   3.326   5.010  14.533 -2.9224 -1.1861  1.9688
11635TIP3    H256397   3.437   4.918  14.578 -1.9845  0.0807  2.2919
11636TIP3   OH256398   3.441   0.151   1.996  0.3490 -0.0267 -0.3841
11636TIP3    H156399   3.510   0.189   1.942  1.5819 -2.7233 -0.8459
11636TIP3    H256400   3.425   0.065   1.958 -3.9020  0.7366 -0.7679
11637TIP3   OH256401   5.192   4.943  16.552 -0.3260  0.3621  0.0523
11637TIP3    H156402   5.176   4.857  16.514  0.8528  0.5842 -1.0070
11637TIP3    H256403   5.133   4.947  16.627  0.5107 -1.8552  0.8948
11638TIP3   OH256404   6.372   5.991   5.552 -0.4379 -0.4977  0.5150
11638TIP3    H156405   6.439   6.028   5.495  1.5937 -2.1092  1.7227
11638TIP3    H256406   6.302   5.964   5.492  0.2516  0.6501 -0.8624
11639TIP3   OH256407   3.456   4.792  15.835 -0.7597 -0.2655 -0.0976
11639TIP3    H156408   3.534   4.831  15.874 -1.1995  0.0295  0.5090
11639TIP3    H256409   3.383   4.826  15.887 -1.5097  1.1827 -1.9426
11640TIP3   OH256410   2.893   5.593  13.742  0.6326  0.5298  0.5482
11640TIP3    H156411   2.811   5.611  13.788 -0.3818 -0.9397 -0.5777
11640TIP3    H256412   2.886   5.641  13.660  0.7185  0.1153  0.2931
11641TIP3   OH256413   0.021   3.403   5.870  0.1132 -0.1914  0.1895
11641TIP3    H156414  -0.049   3.467   5.858  0.5292 -0.2102 -3.2487
11641TIP3    H256415  -0.019   3.335   5.925 -1.6688  1.0099  0.4981
11642TIP3   OH256416   2.832   5.818   0.872  0.2558 -0.1612 -0.2536
11642TIP3    H156417   2.798   5.882   0.809  0.5191 -0.5950 -0.8487
11642TIP3    H256418   2.757   5.796   0.926  0.3767  1.3635  0.5979
11643TIP3   OH256419   4.010   2.785   0.036  0.0191 -0.2837 -0.1013
11643TIP3    H156420   4.058   2.704   0.049  0.0864 -0.2970 -0.4440
11643TIP3    H256421   3.978   2.808   0.124 -0.5088 -0.9906 -0.1020
11644TIP3   OH256422   2.009   1.011  14.064 -0.0256  0.4326 -0.2682
11644TIP3    H156423   1.957   1.085  14.032  0.3898  0.6131 -0.5282
11644TIP3    H256424   1.944   0.942  14.079 -0.6133  1.2923  1.3408
11645TIP3   OH256425   2.790   0.686   1.481 -0.7882 -0.0952 -0.1803
11645TIP3    H156426   2.748   0.732   1.554  0.3263 -0.1273  0.5048
11645TIP3    H256427   2.883   0.706   1.491 -0.5799 -0.4115 -1.3859
11646TIP3   OH256428   3.410   6.611  12.350  0.1230 -0.0863 -0.2528
11646TIP3    H156429   3.354   6.627  12.426  0.3777 -2.1082  0.4170
11646TIP3    H256430   3.448   6.697  12.330 -0.8785  0.7258  1.1480
11647TIP3   OH256431   1.042   1.335  14.503  0.2037 -0.4531 -0.1463
11647TIP3    H156432   1.134   1.338  14.477  1.0756  0.6614  2.7281
11647TIP3    H256433   1.015   1.426  14.508 -2.1990 -0.7072 -4.0786
11648TIP3   OH256434   0.834   5.685   0.434  0.4129 -0.1964  0.8148
11648TIP3    H156435   0.905   5.742   0.403  0.8115  0.3189  2.5504
11648TIP3    H256436   0.804   5.639   0.355  0.4704  1.9616 -0.5723
11649TIP3   OH256437   6.634   1.226  13.460 -0.7305 -0.8360  0.2972
11649TIP3    H156438   6.608   1.143  13.420 -0.7622 -1.3261  1.3160
11649TIP3    H256439   6.585   1.231  13.542 -2.1193  1.0539 -0.5645
11650TIP3   OH256440   5.524   5.288   5.936  0.4099 -0.1552  0.3653
11650TIP3    H156441   5.435   5.279   5.903 -0.5666  1.6315  2.2963
11650TIP3    H256442   5.559   5.199   5.936 -1.1401 -0.8034 -1.0000
11651TIP3   OH256443   0.404   0.072  13.139  0.3099  0.7218  0.3812
11651TIP3    H156444   0.486   0.061  13.187  0.7452 -1.7794 -0.8031
11651TIP3    H256445   0.388   0.166  13.141  1.7568  1.0105  2.9608
11652TIP3   OH256446   3.888   0.238   2.158 -0.1967  0.1178  0.0406
11652TIP3    H156447   3.970   0.195   2.130 -1.1279 -0.8063 -1.4096
11652TIP3    H256448   3.828   0.165   2.175 -0.9657  0.8009  0.2844
11653TIP3   OH256449   3.271   5.003   4.198  0.2681  0.3797  0.3331
11653TIP3    H156450   3.355   5.000   4.153  0.0420 -2.4347 -0.0784
11653TIP3    H256451   3.253   4.913   4.222 -1.9211  1.1259  1.8100
11654TIP3   OH256452   6.025   0.313   2.723 -0.3290 -0.3594  0.2355
11654TIP3    H156453   6.107   0.300   2.677  0.0204 -0.6953  0.9415
11654TIP3    H256454   6.020   0.408   2.739 -0.0679 -0.3448  0.2222
11655TIP3   OH256455   5.404   6.073   1.123 -0.1261  0.7529 -0.0998
11655TIP3    H156456   5.340   6.061   1.053  0.4040 -0.8653 -0.3549
11655TIP3    H256457   5.372   6.017   1.194  1.0630 -0.2536 -0.3096
11656TIP3   OH256458   5.153   3.167   5.249 -0.1864 -0.1031 -0.2133
11656TIP3    H156459   5.163   3.262   5.244  1.8315 -0.3198 -1.0394
11656TIP3    H256460   5.228   3.137   5.299 -0.2068 -1.3541 -0.8924
11657TIP3   OH256461   6.235   3.913  10.812 -0.6603  0.1287  0.7835
11657TIP3    H156462   6.250   3.836  10.867 -2.0187 -1.3430 -0.7654
11657TIP3    H256463   6.289   3.897  10.734 -1.7713  0.1622 -0.0225
11658TIP3   OH256464   2.870   3.499   5.649  0.2559 -0.2844 -0.8858
11658TIP3    H156465   2.882   3.504   5.744  1.0279  1.6995 -1.0369
11658TIP3    H256466   2.778   3.475   5.638 -0.5854  2.0680  0.4033
11659TIP3   OH256467   5.796   3.024   6.164  0.2181 -0.4087  0.0318
11659TIP3    H156468   5.766   2.985   6.082 -2.3564  0.6255  0.4086
11659TIP3    H256469   5.770   2.960   6.231 -0.2880  0.0454  0.2757
11660TIP3   OH256470   4.246   4.648  13.616  0.0323 -0.4637  0.3310
11660TIP3    H156471   4.163   4.607  13.590 -0.0591 -0.0965  0.0315
11660TIP3    H256472   4.277   4.596  13.690 -2.1852  1.4036  2.7626
11661TIP3   OH256473   3.475   3.050   3.919 -0.0457  0.2378  0.2903
11661TIP3    H156474   3.535   2.979   3.943  0.4760  0.9691  1.2214
11661TIP3    H256475   3.438   3.079   4.002 -1.6500 -0.1358 -0.2643
11662TIP3   OH256476   3.762   0.076   4.309 -0.2807  0.5801 -0.0969
11662TIP3    H156477   3.805   0.024   4.240 -1.4243  0.5499 -0.8070
11662TIP3    H256478   3.690   0.120   4.264  0.8549  3.0850  0.3971
11663TIP3   OH256479   2.446   3.682   0.158 -0.0616  0.3094 -0.0883
11663TIP3    H156480   2.398   3.678   0.076 -0.7430 -1.0662  0.3389
11663TIP3    H256481   2.539   3.683   0.132 -0.2831  1.0221 -0.8809
11664TIP3   OH256482   6.817   1.408  13.397  0.4342 -0.3048  0.1175
11664TIP3    H156483   6.742   1.349  13.407  1.4012 -1.4153  1.1305
11664TIP3    H256484   6.811   1.468  13.471 -1.6893  2.3273 -1.9729
11665TIP3   OH256485   3.329   4.029   0.129  0.4912 -0.1983  0.1617
11665TIP3    H156486   3.349   4.005   0.038  0.7780 -0.5092  0.3022
11665TIP3    H256487   3.259   4.094   0.122  0.4377 -0.2978 -0.2773
11666TIP3   OH256488   3.976   5.984   5.519 -0.4316 -0.9967 -0.0219
11666TIP3    H156489   3.898   5.954   5.565 -0.7801 -0.0542  0.0259
11666TIP3    H256490   4.011   6.054   5.574 -0.2190 -0.6076 -0.6401
11667TIP3   OH256491   3.129   2.476  14.274  0.2005  0.2823  0.2797
11667TIP3    H156492   3.179   2.492  14.354  0.6177 -0.7755  0.2473
11667TIP3    H256493   3.094   2.562  14.250  2.6701  1.2483 -0.1372
11668TIP3   OH256494   2.784   6.125   4.025 -0.1329  0.2275 -0.2844
11668TIP3    H156495   2.749   6.081   4.102 -1.3079 -0.1631 -1.0164
11668TIP3    H256496   2.860   6.173   4.058 -0.3873 -0.2243  1.0389
11669TIP3   OH256497   1.608   5.992   3.629 -0.2231  0.0550 -0.5193
11669TIP3    H156498   1.516   5.997   3.601 -0.1314 -2.3338 -1.4766
11669TIP3    H256499   1.624   5.899   3.642  1.4655  0.5768  1.8696
11670TIP3   OH256500   3.597   4.266  13.487 -0.3518  0.0675  0.4281
11670TIP3    H156501   3.633   4.227  13.567 -0.1972 -0.6741  0.0063
11670TIP3    H256502   3.518   4.215  13.469  0.9028 -1.4366 -1.2308
11671TIP3   OH256503   5.042   0.681   0.218 -0.5470  0.5303 -0.3651
11671TIP3    H156504   5.001   0.707   0.300 -1.2902  1.1635 -0.9209
11671TIP3    H256505   5.044   0.585   0.221 -0.5163  0.5479  0.4087
11672TIP3   OH256506   5.850   6.236  11.184 -0.2720 -0.7278 -0.0641
11672TIP3    H156507   5.893   6.319  11.205 -0.0347 -0.9558  0.3703
11672TIP3    H256508   5.921   6.171  11.187 -0.7418 -1.2178  1.3184
11673TIP3   OH256509   4.309   5.404   5.208  0.3928 -0.0385  0.3929
11673TIP3    H156510   4.279   5.486   5.247  2.6149  0.6314  0.8044
11673TIP3    H256511   4.344   5.429   5.123 -0.3887 -0.8388 -0.1845
11674TIP3   OH256512   6.022   2.980   1.193  0.1508 -0.0905 -0.0914
11674TIP3    H156513   5.951   3.014   1.247 -0.9689  1.6273 -2.4943
11674TIP3    H256514   6.049   3.054   1.138  0.9216 -1.8147 -2.1973
11675TIP3   OH256515   5.611   6.129  14.867 -0.0176 -0.1433  0.0359
11675TIP3    H156516   5.548   6.175  14.812 -0.3097 -1.0920 -0.4575
11675TIP3    H256517   5.556   6.079  14.928  0.2707 -0.2538  0.2042
11676TIP3   OH256518   0.187   0.239   1.572  0.0391 -0.0537 -0.0588
11676TIP3    H156519   0.103   0.241   1.527 -1.0418  1.6119  1.8748
11676TIP3    H256520   0.166   0.210   1.661  1.5627  0.0220  0.3586
11677TIP3   OH256521   2.022   5.371   3.190 -0.0350 -0.0312 -0.1499
11677TIP3    H156522   2.074   5.359   3.269  0.5337  1.0029 -0.3499
11677TIP3    H256523   2.033   5.289   3.142 -0.2375 -0.6013  0.7423
11678TIP3   OH256524   4.155   6.663  13.045  0.1256 -0.7357 -0.2661
11678TIP3    H156525   4.164   6.649  12.951  0.5752 -1.4404 -0.1248
11678TIP3    H256526   4.061   6.660  13.061  0.0828 -1.2991 -0.5975
11679TIP3   OH256527   2.929   1.809   2.738 -0.0665 -0.6541 -0.0653
11679TIP3    H156528   2.906   1.720   2.766 -1.9642  0.2948  1.5883
11679TIP3    H256529   2.859   1.864   2.772  2.4893  1.9227  1.4698
11680TIP3   OH256530   3.273   5.695   2.414 -0.1692 -0.5676  0.1228
11680TIP3    H156531   3.267   5.766   2.477 -0.9671 -1.3052  0.9030
11680TIP3    H256532   3.361   5.702   2.378 -0.6572  1.6082 -0.7925
11681TIP3   OH256533   2.342   1.926  16.872 -0.6018 -0.1614 -0.3155
11681TIP3    H156534   2.279   1.949  16.804  0.0873  0.6232 -0.7099
11681TIP3    H256535   2.338   2.000  16.933 -2.1782 -1.4397  1.2533
11682TIP3   OH256536   6.782   0.321   1.040 -0.0663 -0.1909  0.0615
11682TIP3    H156537   6.741   0.383   1.101 -1.5853  0.3222 -1.4147
11682TIP3    H256538   6.757   0.352   0.953 -0.3239 -2.4851 -0.7538
11683TIP3   OH256539   6.567   6.401  11.820  0.9158 -0.5062 -0.2970
11683TIP3    H156540   6.659   6.392  11.844 -0.0518 -0.4638  4.2834
11683TIP3    H256541   6.541   6.485  11.857 -0.9524 -0.3141 -1.8593
11684TIP3   OH256542   6.644   5.409  16.173 -0.0784 -0.1155  0.2557
11684TIP3    H156543   6.689   5.340  16.223 -1.1832 -2.6548 -2.0181
11684TIP3    H256544   6.662   5.388  16.082 -1.9822  1.5909 -0.5810
11685TIP3   OH256545   4.682   1.185  14.845 -0.0499 -0.5411  0.0724
11685TIP3    H156546   4.595   1.144  14.847 -1.1413  1.6403  0.3566
11685TIP3    H256547   4.723   1.150  14.766 -2.5551  0.8924 -2.0390
11686TIP3   OH256548   6.695   6.222  14.779  0.0281 -0.1007 -0.0431
11686TIP3    H156549   6.627   6.289  14.779 -1.7028 -1.7702  0.4125
11686TIP3    H256550   6.675   6.168  14.703  0.9664 -0.5047 -0.0089
11687TIP3   OH256551   5.029   6.609   1.486 -0.3782  0.0439  0.6450
11687TIP3    H156552   5.050   6.522   1.519  0.0452  0.5534  1.7777
11687TIP3    H256553   4.957   6.639   1.541  0.2191  0.8398  1.0199
11688TIP3   OH256554   2.642   3.160   0.358 -0.4540  0.7652  0.4157
11688TIP3    H156555   2.735   3.143   0.375 -0.5765  0.0098  0.3955
11688TIP3    H256556   2.597   3.128   0.436 -0.6129  2.3698  1.0118
11689TIP3   OH256557   2.715   1.435   1.346  0.2780 -0.3963  0.1124
11689TIP3    H156558   2.733   1.508   1.287 -1.2751  1.0418  1.3093
11689TIP3    H256559   2.669   1.371   1.292  0.1907  0.2440 -0.5845
11690TIP3   OH256560   4.106   0.065  16.820  0.7848  0.2868  0.4485
11690TIP3    H156561   4.195   0.035  16.837  0.3261 -0.7309  1.1078
11690TIP3    H256562   4.072   0.089  16.906  0.1308 -0.1440  0.3110
11691TIP3   OH256563   6.513   2.078  13.164  0.0602  0.2741 -0.0970
11691TIP3    H156564   6.597   2.041  13.192 -0.2698  0.2373  0.8871
11691TIP3    H256565   6.530   2.171  13.151  0.1520  0.3434  0.5216
11692TIP3   OH256566   0.505   3.481  14.970  0.1135  0.0330  0.5992
11692TIP3    H156567   0.570   3.547  14.944  0.1963  0.3121  1.4893
11692TIP3    H256568   0.528   3.458  15.060 -0.3057 -0.7468  0.5154
11693TIP3   OH256569   5.496   6.186   1.367  0.2704 -0.0931 -0.2578
11693TIP3    H156570   5.577   6.231   1.345 -0.0193  0.5378 -0.0572
11693TIP3    H256571   5.482   6.124   1.295 -0.0409  1.1011 -1.2531
11694TIP3   OH256572   3.548   4.374  12.060 -0.2165  0.1465  0.3013
11694TIP3    H156573   3.546   4.330  12.145  1.0252 -0.7354 -0.0956
11694TIP3    H256574   3.535   4.466  12.081  0.2046 -0.0360  1.4694
11695TIP3   OH256575   1.420   5.280   3.983  0.5850 -0.3273  0.1009
11695TIP3    H156576   1.481   5.309   3.915 -0.1200 -0.7474 -0.7354
11695TIP3    H256577   1.466   5.210   4.029  0.2573 -1.6287 -1.4409
11696TIP3   OH256578   0.410   3.051   6.890 -0.2918 -0.4133  0.0455
11696TIP3    H156579   0.385   2.974   6.840 -0.7732 -0.4580  0.3535
11696TIP3    H256580   0.502   3.035   6.913 -0.2196 -0.6257 -0.3857
11697TIP3   OH256581   5.065   0.008  16.685  0.3816 -0.0896 -0.6719
11697TIP3    H156582   5.102   0.001  16.773 -0.0803 -2.5591 -0.6081
11697TIP3    H256583   5.007   0.084  16.689  1.4355  0.6779  0.7301
11698TIP3   OH256584   4.788   4.532   3.835  0.1393 -0.2595  0.1280
11698TIP3    H156585   4.738   4.452   3.821 -0.5265  0.0108  0.8720
11698TIP3    H256586   4.725   4.592   3.876  1.0199  0.1484  0.9069
11699TIP3   OH256587   4.984   0.267  16.993 -0.2593 -0.4428 -0.8765
11699TIP3    H156588   4.907   0.282  16.938 -0.0793  2.7426 -0.4494
11699TIP3    H256589   5.056   0.305  16.944  0.4670 -0.4585  0.1571
11700TIP3   OH256590   3.931   6.346  13.051  0.4755 -0.1507  0.5862
11700TIP3    H156591   3.942   6.341  12.956 -0.3245  1.3624  0.3764
11700TIP3    H256592   3.848   6.392  13.063  1.0619  0.5993  2.0116
11701TIP3   OH256593   4.870   2.396  15.289  0.6165 -0.1101  0.3485
11701TIP3    H156594   4.836   2.308  15.275 -0.3573  0.2710  0.2610
11701TIP3    H256595   4.793   2.449  15.307  1.3325  0.4392  1.9638
11702TIP3   OH256596   5.746   6.686  12.667  0.5930 -0.0671  0.0365
11702TIP3    H156597   5.833   6.646  12.675  0.2141 -0.7414  0.9115
11702TIP3    H256598   5.686   6.611  12.660  0.1760  0.3852 -1.9348
11703TIP3   OH256599   6.579   2.821  12.772  0.5961 -0.6206  0.0815
11703TIP3    H156600   6.550   2.803  12.862  0.1455  1.6659  0.4523
11703TIP3    H256601   6.528   2.762  12.718 -1.9481  0.5278  1.0634
11704TIP3   OH256602   3.196   1.822  12.714 -0.0217 -0.4127 -0.3768
11704TIP3    H156603   3.146   1.900  12.691 -0.9857 -0.6938  0.6712
11704TIP3    H256604   3.250   1.804  12.637  0.3143  1.3465 -0.5965
11705TIP3   OH256605   1.576   3.343  14.011 -0.0188 -0.1524 -0.5001
11705TIP3    H156606   1.623   3.339  13.927  0.2903 -0.2152 -0.3236
11705TIP3    H256607   1.506   3.279  14.003 -1.2928  1.3019 -1.5160
11706TIP3   OH256608   1.427   1.906  11.984 -0.7462 -0.3993 -0.4687
11706TIP3    H156609   1.344   1.945  12.013  0.3756  0.1913  2.2451
11706TIP3    H256610   1.412   1.812  11.990 -1.5059 -0.3112 -0.8696
11707TIP3   OH256611   3.511   3.002   6.105  0.3774 -0.7624  0.4136
11707TIP3    H156612   3.486   2.919   6.065  0.5581 -0.6456  0.0522
11707TIP3    H256613   3.454   3.010   6.182 -0.6435 -0.5278 -0.3579
11708TIP3   OH256614   1.512   0.166  13.967 -0.4521  0.0246 -0.0853
11708TIP3    H156615   1.457   0.141  14.041  0.2304 -0.7867  0.1621
11708TIP3    H256616   1.537   0.257  13.984 -1.3913  0.2822 -0.0138
11709TIP3   OH256617   1.512   1.659   4.022  0.6394  0.1622  0.3661
11709TIP3    H156618   1.538   1.706   3.943  0.0862  0.3192  0.2727
11709TIP3    H256619   1.417   1.651   4.015  0.5661  0.3125  1.0868
11710TIP3   OH256620   4.306   1.900  16.655  0.2863  0.1703  0.3335
11710TIP3    H156621   4.270   1.939  16.734 -2.2857 -0.5073 -0.4273
11710TIP3    H256622   4.337   1.814  16.682 -2.2429 -0.8073  0.3396
11711TIP3   OH256623   4.750   5.958  11.583  0.1668  0.2263 -0.0496
11711TIP3    H156624   4.664   5.999  11.593 -0.3925 -0.5065 -1.4993
11711TIP3    H256625   4.757   5.898  11.657 -1.1339 -0.6244 -0.5774
11712TIP3   OH256626   3.183   3.348   2.283  0.0053 -0.0898  0.0961
11712TIP3    H156627   3.184   3.302   2.199 -0.9580 -1.4847  0.8169
11712TIP3    H256628   3.091   3.352   2.308  0.3730 -1.2533  1.8709
11713TIP3   OH256629   2.612   6.375  14.516  1.2318 -0.6083 -0.0983
11713TIP3    H156630   2.679   6.411  14.574  1.2335  1.1475 -1.1172
11713TIP3    H256631   2.640   6.400  14.428  0.7344 -2.3933 -0.8066
11714TIP3   OH256632   5.522   2.111  16.877  0.2805  0.3104  0.4705
11714TIP3    H156633   5.560   2.060  16.949  1.5664 -0.9381 -1.0217
11714TIP3    H256634   5.581   2.096  16.803 -1.3567  1.0025 -1.0482
11715TIP3   OH256635   5.217   6.445  11.376 -0.4128  0.1308  0.3634
11715TIP3    H156636   5.144   6.427  11.435 -0.8727 -1.8983 -0.7600
11715TIP3    H256637   5.181   6.506  11.311 -1.3247 -1.3161 -0.5284
11716TIP3   OH256638   3.781   0.328  10.895 -0.1925  0.0870  0.0471
11716TIP3    H156639   3.793   0.398  10.830 -0.1908 -1.0824 -1.2510
11716TIP3    H256640   3.852   0.341  10.957  1.5680 -0.4232 -1.7454
11717TIP3   OH256641   5.894   2.950  14.071 -0.0599 -0.4789  0.0711
11717TIP3    H156642   5.807   2.985  14.091  0.9975  1.8194  1.0681
11717TIP3    H256643   5.911   2.887  14.141 -0.0230  0.8482  1.3207
11718TIP3   OH256644   4.806   1.472   3.289 -0.5309 -0.4293 -0.1481
11718TIP3    H156645   4.741   1.533   3.252 -1.5546 -1.0085  0.6569
11718TIP3    H256646   4.881   1.528   3.310 -1.0085  0.3636 -0.4797
11719TIP3   OH256647   2.599   1.013   3.919 -0.3782 -0.1597 -0.0953
11719TIP3    H156648   2.617   1.047   4.007 -0.0700  0.9182 -0.5528
11719TIP3    H256649   2.513   1.048   3.897 -1.3716 -2.0883  0.5486
11720TIP3   OH256650   6.363   2.064   0.523  0.1003 -0.3938  0.4413
11720TIP3    H156651   6.448   2.090   0.489  0.1700 -1.1136  0.0362
11720TIP3    H256652   6.307   2.060   0.445  1.1487 -5.7841 -0.4566
11721TIP3   OH256653   3.071   5.416  12.163  0.1215 -0.3692  0.4188
11721TIP3    H156654   3.130   5.428  12.088  1.8011 -1.8765  1.4175
11721TIP3    H256655   3.074   5.500  12.209 -1.1710  0.6831 -1.2939
11722TIP3   OH256656   1.883   5.428   0.047 -0.3912 -0.4677  0.4178
11722TIP3    H156657   1.916   5.439  -0.042  1.8606 -0.5371  1.1902
11722TIP3    H256658   1.928   5.350   0.080 -0.1304  0.3353  2.0728
11723TIP3   OH256659   2.191   1.738   2.529 -0.4333 -0.4774 -0.1130
11723TIP3    H156660   2.159   1.686   2.456 -1.6118 -1.2474  0.9085
11723TIP3    H256661   2.112   1.770   2.572  0.2538  0.9289  0.1635
11724TIP3   OH256662   2.701   5.640   4.625  0.6650  0.9010 -0.0890
11724TIP3    H156663   2.723   5.713   4.682 -0.5921  1.0718  0.2053
11724TIP3    H256664   2.761   5.650   4.550  1.2396  1.5953  0.4445
11725TIP3   OH256665   6.478   1.244  14.201  0.0722 -0.1410  0.2229
11725TIP3    H156666   6.463   1.221  14.293 -0.4542  3.4347  1.1618
11725TIP3    H256667   6.421   1.184  14.152 -0.2645 -1.5838  2.2387
11726TIP3   OH256668   6.212   1.650   6.019  0.1375 -0.3504 -0.4019
11726TIP3    H156669   6.296   1.636   6.064 -0.2551  1.4422  1.0278
11726TIP3    H256670   6.208   1.581   5.953  1.5093 -2.0956  1.2466
11727TIP3   OH256671   2.465   1.462   4.664 -0.6442 -0.0356 -0.1141
11727TIP3    H156672   2.535   1.499   4.611 -0.1933 -2.6567 -1.5285
11727TIP3    H256673   2.390   1.519   4.648  0.2772  0.9040 -1.2829
11728TIP3   OH256674   1.395   6.204  14.277  0.2232  0.1978 -0.3117
11728TIP3    H156675   1.427   6.281  14.229 -0.1268  1.2403  1.0395
11728TIP3    H256676   1.300   6.219  14.287  0.2459 -0.0925  0.4773
11729TIP3   OH256677   4.518   0.108  17.129 -0.3837 -0.1437 -0.6762
11729TIP3    H156678   4.602   0.147  17.106 -0.1988 -0.5628 -0.7332
11729TIP3    H256679   4.504   0.131  17.221  1.1597 -2.4012  0.2023
11730TIP3   OH256680   5.876   3.950   4.814  0.4192  0.3078  0.7787
11730TIP3    H156681   5.795   3.902   4.795  1.2519 -0.0960 -2.3707
11730TIP3    H256682   5.946   3.889   4.790  1.6271  1.3074  1.6364
11731TIP3   OH256683   5.917   0.299   2.150  0.6254 -0.3260  0.6424
11731TIP3    H156684   5.935   0.281   2.058  0.7630 -1.2293  0.8328
11731TIP3    H256685   5.993   0.347   2.181  1.1689 -1.1464  0.6005
11732TIP3   OH256686   5.453   6.576  11.320  0.0405 -0.3164  0.1289
11732TIP3    H156687   5.410   6.635  11.258  1.0818  1.3608  0.9723
11732TIP3    H256688   5.383   6.516  11.347 -1.2847  1.1082 -0.0218
11733TIP3   OH256689   6.716   3.646  13.964  0.1832 -0.1791  0.3250
11733TIP3    H156690   6.656   3.589  14.011  0.4659  1.1440  2.4630
11733TIP3    H256691   6.660   3.710  13.920 -0.0430 -0.2065  0.5724
11734TIP3   OH256692   5.641   5.424   1.060 -0.0120  0.7326  0.3899
11734TIP3    H156693   5.652   5.329   1.059  0.6808  0.8008  0.7927
11734TIP3    H256694   5.579   5.442   0.989  0.1302  0.0180  0.0769
11735TIP3   OH256695   3.882   3.895  15.346 -0.3457 -0.9343 -0.4379
11735TIP3    H156696   3.850   3.897  15.255  0.4456  0.2913 -0.7124
11735TIP3    H256697   3.903   3.986  15.366  1.3463 -1.4434  0.3046
11736TIP3   OH256698   0.413   3.905   4.106 -0.1312 -0.6770  0.4311
11736TIP3    H156699   0.446   3.819   4.129  2.4027  0.3673  0.9971
11736TIP3    H256700   0.477   3.966   4.142 -0.3117  1.3626 -2.3556
11737TIP3   OH256701   4.249   3.517   2.693 -0.5183  0.4295 -0.3334
11737TIP3    H156702   4.337   3.521   2.654 -1.4180 -0.0650 -2.5688
11737TIP3    H256703   4.250   3.437   2.745 -0.0528 -0.3569 -1.5033
11738TIP3   OH256704   3.893   2.966   6.056 -0.5971 -0.2121 -0.2155
11738TIP3    H156705   3.849   2.887   6.024 -0.6196 -0.3989  0.2619
11738TIP3    H256706   3.975   2.933   6.095 -0.6351 -0.0086  0.0393
11739TIP3   OH256707   6.690   5.466   1.988 -0.0328 -0.2545 -0.2220
11739TIP3    H156708   6.632   5.393   1.967 -1.8255  1.6590 -2.5356
11739TIP3    H256709   6.779   5.431   1.977 -0.8391 -1.8228 -2.4370
11740TIP3   OH256710   2.973   0.938   2.033  0.0782 -0.1757 -0.4148
11740TIP3    H156711   2.996   1.030   2.046 -0.4847 -0.0664 -0.1240
11740TIP3    H256712   3.037   0.889   2.083  0.9215  0.0086 -1.2850
11741TIP3   OH256713   1.330   4.181  16.115 -0.7453  0.0223 -0.4183
11741TIP3    H156714   1.364   4.092  16.115 -0.3890  0.1361 -1.7659
11741TIP3    H256715   1.391   4.230  16.059 -1.9460  0.6872 -1.1953
11742TIP3   OH256716   0.941   3.464   6.157 -0.3131 -0.5617 -0.0811
11742TIP3    H156717   0.898   3.433   6.077 -0.9010 -1.4754  0.5659
11742TIP3    H256718   0.935   3.560   6.152 -1.3900 -0.6373 -0.5867
11743TIP3   OH256719   2.513   6.648  15.365  0.1416  0.3575 -0.5401
11743TIP3    H156720   2.576   6.713  15.337  0.4675 -0.2553 -1.2601
11743TIP3    H256721   2.549   6.565  15.335 -0.1166 -0.2011  0.6221
11744TIP3   OH256722   2.221   3.401   1.856  0.0550 -0.1453 -0.1639
11744TIP3    H156723   2.217   3.319   1.807  1.8194 -0.8175  0.7370
11744TIP3    H256724   2.144   3.398   1.913 -0.7065 -0.4600 -1.1808
11745TIP3   OH256725   5.731   5.781   5.681  0.1001  0.7482 -0.4833
11745TIP3    H156726   5.667   5.716   5.711 -1.5297  0.7056 -3.6417
11745TIP3    H256727   5.689   5.866   5.699  0.4490  0.8226  0.0026
11746TIP3   OH256728   0.459   1.712  12.005  0.4291 -0.9370 -0.5504
11746TIP3    H156729   0.537   1.759  12.033 -0.0173 -0.7002  0.3324
11746TIP3    H256730   0.492   1.629  11.971  1.3096  0.2900 -2.9579
11747TIP3   OH256731   5.989   3.380   0.939  0.1056 -0.7729 -0.0433
11747TIP3    H156732   6.060   3.332   0.897  1.0479  0.5681 -0.0377
11747TIP3    H256733   5.948   3.317   0.998  0.6310 -1.8512 -0.8158
11748TIP3   OH256734   0.303   2.125   0.133 -0.3951  0.4233 -0.5245
11748TIP3    H156735   0.337   2.165   0.214 -1.8261  2.0836 -0.6862
11748TIP3    H256736   0.334   2.034   0.136  0.8236  0.8473  1.1495
11749TIP3   OH256737   6.229   1.251   1.726  0.1197  0.2614 -0.0680
11749TIP3    H156738   6.135   1.268   1.725 -0.1147 -0.8639  0.8947
11749TIP3    H256739   6.253   1.258   1.819  0.6527 -1.1120 -0.0779
11750TIP3   OH256740   4.347   6.557   1.982 -0.1899  0.4032  0.1164
11750TIP3    H156741   4.419   6.498   1.962  0.2579  1.4246 -1.5011
11750TIP3    H256742   4.348   6.565   2.078  0.6941 -0.9718  0.2506
11751TIP3   OH256743   6.290   2.172   0.803 -0.1132 -0.3565  0.1288
11751TIP3    H156744   6.326   2.145   0.719  0.9887  1.1015  0.1028
11751TIP3    H256745   6.276   2.090   0.851  0.2389 -1.1353 -1.0686
11752TIP3   OH256746   5.461   4.934  16.633 -0.6967  0.2205 -0.4480
11752TIP3    H156747   5.487   4.847  16.665  1.5631  0.5648 -1.1737
11752TIP3    H256748   5.366   4.931  16.632 -0.8317 -1.0159  2.8825
11753TIP3   OH256749   4.734   2.506   2.704  0.0328 -0.2223  0.2845
11753TIP3    H156750   4.735   2.508   2.608 -0.7691  0.7473  0.2816
11753TIP3    H256751   4.658   2.559   2.729  1.7355  1.7762  1.5105
11754TIP3   OH256752   2.879   4.997  15.896 -0.1056 -0.3469 -0.1055
11754TIP3    H156753   2.840   5.017  15.812  0.7919 -0.6673 -0.6113
11754TIP3    H256754   2.806   5.000  15.958 -0.9946 -1.3197 -1.0701
11755TIP3   OH256755   5.212   2.178  15.929  0.2242  0.0586 -0.6930
11755TIP3    H156756   5.152   2.227  15.873 -1.2583  0.0978  0.8276
11755TIP3    H256757   5.290   2.233  15.935  0.4107  0.0550 -2.6503
11756TIP3   OH256758   3.414   2.704   2.623  0.2656 -0.1953  0.8276
11756TIP3    H156759   3.343   2.698   2.686  0.0048  0.8415  0.6592
11756TIP3    H256760   3.376   2.752   2.549  0.9084 -0.3365  0.3945
11757TIP3   OH256761   5.851   2.983  17.003  0.6206 -0.2963  0.3920
11757TIP3    H156762   5.834   3.044  17.075 -0.6486  0.3601 -0.4302
11757TIP3    H256763   5.804   3.020  16.929  0.6698 -1.7525 -0.3942
11758TIP3   OH256764   0.060   1.223   2.224 -0.6702 -0.4242  0.8323
11758TIP3    H156765   0.041   1.147   2.278 -0.5804 -0.9673  0.1211
11758TIP3    H256766   0.066   1.188   2.135 -1.7049  0.5798  0.3397
11759TIP3   OH256767   2.972   4.082  11.723 -0.3848 -0.6741 -0.7168
11759TIP3    H156768   3.051   4.105  11.772 -0.0643  0.9990 -1.9359
11759TIP3    H256769   2.960   3.989  11.739  2.9121 -1.4420 -1.9293
11760TIP3   OH256770   3.512   2.822  17.038 -0.0020 -0.2345  0.0251
11760TIP3    H156771   3.601   2.787  17.035  0.1434  0.0628  0.6752
11760TIP3    H256772   3.523   2.916  17.047 -0.3739  0.2422 -3.3279
11761TIP3   OH256773   4.198   3.021  14.320 -0.8172 -0.4045  0.3111
11761TIP3    H156774   4.163   2.963  14.253 -0.1820  0.3086 -0.6723
11761TIP3    H256775   4.263   3.074  14.274 -0.1873 -0.0664  1.5561
11762TIP3   OH256776   5.521   0.843   2.067 -0.3613  0.4814 -0.4157
11762TIP3    H156777   5.605   0.860   2.110 -0.2959 -0.5319 -0.0993
11762TIP3    H256778   5.455   0.858   2.134 -0.3219 -0.1721 -0.2197
11763TIP3   OH256779   0.593   3.303   2.101  0.4084 -0.4392 -0.2890
11763TIP3    H156780   0.531   3.368   2.134  0.9420 -0.5189  0.9386
11763TIP3    H256781   0.561   3.220   2.136 -0.9213 -1.0723 -2.7754
11764TIP3   OH256782   2.419   2.903  13.128 -0.3742 -0.7368  0.3015
11764TIP3    H156783   2.402   2.966  13.198  0.3685  0.1841 -0.3239
11764TIP3    H256784   2.339   2.903  13.075 -0.3763 -0.3265  0.3063
11765TIP3   OH256785   6.191   6.276  13.974  0.4298  0.4331 -0.3875
11765TIP3    H156786   6.149   6.207  13.923 -1.0848  0.4418  0.7679
11765TIP3    H256787   6.273   6.237  14.005  0.2773 -0.3425 -0.9230
11766TIP3   OH256788   1.462   0.473  14.718  0.8685  0.2761 -0.1689
11766TIP3    H156789   1.415   0.496  14.637  1.4538  2.0337 -0.0533
11766TIP3    H256790   1.485   0.381  14.706 -0.3062  0.0938 -1.3677
11767TIP3   OH256791   0.922   5.485   5.186 -0.4604  0.0072  0.0296
11767TIP3    H156792   1.001   5.539   5.195 -0.4225 -0.2036  1.1471
11767TIP3    H256793   0.922   5.458   5.095  0.5896  0.2872 -0.0712
11768TIP3   OH256794   4.410   3.865  14.116  0.3664 -0.5813 -0.0933
11768TIP3    H156795   4.465   3.824  14.049  0.5722 -1.3702  0.5387
11768TIP3    H256796   4.342   3.800  14.134  1.5168 -1.2969  1.9549
11769TIP3   OH256797   3.903   6.394  12.260  0.3416 -0.1020  0.0444
11769TIP3    H156798   3.877   6.456  12.328 -1.3725  1.3844 -1.8492
11769TIP3    H256799   3.848   6.317  12.276 -1.1500  0.8222 -0.5211
11770TIP3   OH256800   2.405   6.266   4.511  0.3131 -0.1617 -0.4082
11770TIP3    H156801   2.310   6.264   4.525  0.3497  0.3221 -0.0543
11770TIP3    H256802   2.427   6.177   4.482 -0.1197 -0.5516  0.4023
11771TIP3   OH256803   2.695   1.522   2.238 -0.0308  0.0514 -0.3797
11771TIP3    H156804   2.616   1.538   2.186 -0.6454  0.5460  0.6854
11771TIP3    H256805   2.708   1.603   2.288  1.2600  0.0486 -0.6579
11772TIP3   OH256806   5.958   2.555  16.943  0.4081 -0.8043 -0.0055
11772TIP3    H156807   6.028   2.493  16.962  1.7892  0.0194 -2.0608
11772TIP3    H256808   5.992   2.609  16.872 -2.3405 -0.3777 -1.1238
11773TIP3   OH256809   0.046   1.606   1.484  0.0823  0.1924  0.0580
11773TIP3    H156810   0.078   1.691   1.454  2.4885 -0.3298  0.9178
11773TIP3    H256811   0.079   1.598   1.573 -0.1658 -1.6214  0.0240
11774TIP3   OH256812   5.337   2.235   5.170  0.2525  0.2736 -0.3723
11774TIP3    H156813   5.338   2.243   5.266  0.9120  0.2927 -0.3783
11774TIP3    H256814   5.319   2.142   5.155  1.2421  0.0388 -0.2065
11775TIP3   OH256815   6.172   2.813  16.047 -0.1299 -0.4176 -0.1298
11775TIP3    H156816   6.201   2.832  15.958 -0.7213 -1.4043 -0.5451
11775TIP3    H256817   6.126   2.729  16.040 -0.2343 -0.4752  1.0919
11776TIP3   OH256818   1.326   5.446   4.174 -0.8902 -0.7191  0.1815
11776TIP3    H156819   1.373   5.398   4.106 -2.3728 -0.2860 -1.2130
11776TIP3    H256820   1.255   5.388   4.201 -0.9168 -0.4848  0.6471
11777TIP3   OH256821   0.992   3.915   4.541  0.3297  0.0045  0.2203
11777TIP3    H156822   1.014   3.849   4.475 -1.8939  1.1880 -1.8513
11777TIP3    H256823   1.042   3.992   4.514  0.3555  0.1478  0.6686
11778TIP3   OH256824   1.719   4.717   5.050  0.5708 -0.5054 -0.4654
11778TIP3    H156825   1.724   4.812   5.064  1.2634 -0.4551 -0.9858
11778TIP3    H256826   1.752   4.679   5.131  1.3849 -0.2769 -0.6775
11779TIP3   OH256827   5.102   2.087   4.260  0.0291  0.3781  0.1385
11779TIP3    H156828   5.073   2.075   4.351 -1.5923 -0.5723 -0.4618
11779TIP3    H256829   5.196   2.072   4.263 -0.1774 -0.9245  1.4747
11780TIP3   OH256830   3.891   2.464   0.961  0.0424  0.4999 -0.0447
11780TIP3    H156831   3.916   2.536   0.903  0.9116 -0.6305 -1.1252
11780TIP3    H256832   3.833   2.505   1.026  0.3881  2.1306 -0.7040
11781TIP3   OH256833   4.742   0.813   1.917 -0.0350  0.1846  0.5134
11781TIP3    H156834   4.752   0.906   1.938 -0.9958  0.7497 -1.3667
11781TIP3    H256835   4.831   0.777   1.925  0.1706  0.9827  2.3280
11782TIP3   OH256836   4.689   2.424  11.398  0.0472  0.1163 -0.0481
11782TIP3    H156837   4.688   2.330  11.380 -2.9416  0.2311 -0.9021
11782TIP3    H256838   4.651   2.464  11.320  2.6234  2.2758 -0.3733
11783TIP3   OH256839   6.548   1.269   3.873 -0.2369 -0.1769  0.9407
11783TIP3    H156840   6.516   1.359   3.870 -0.3738 -0.2460  0.2379
11783TIP3    H256841   6.469   1.217   3.889  0.1516 -0.0077  3.8588
11784TIP3   OH256842   4.849   1.745  17.056 -0.5259  0.0923 -0.2127
11784TIP3    H156843   4.900   1.664  17.053 -0.1822  0.3047 -0.2471
11784TIP3    H256844   4.910   1.809  17.094 -0.7451  0.3687 -0.3310
11785TIP3   OH256845   0.376   1.906   5.891  0.9877 -0.1575  0.3487
11785TIP3    H156846   0.336   1.879   5.973 -2.3772  0.1029 -1.0166
11785TIP3    H256847   0.367   1.830   5.833  0.3659  0.6513 -0.6648
11786TIP3   OH256848   0.529   3.341  13.246  0.7082  0.1199  0.0531
11786TIP3    H156849   0.613   3.315  13.208 -0.2232 -0.0799 -2.0083
11786TIP3    H256850   0.473   3.358  13.170 -1.4540 -0.7916  1.3708
11787TIP3   OH256851   3.178   6.744  14.424 -0.8422  0.1638  0.5327
11787TIP3    H156852   3.140   6.691  14.354  1.4313  0.2813 -0.9085
11787TIP3    H256853   3.123   6.822  14.428 -1.4434 -0.1698 -0.6537
11788TIP3   OH256854   2.931   0.574   0.008  0.1520  0.1948  0.5235
11788TIP3    H156855   2.851   0.565   0.059  0.1503  0.5468  0.5887
11788TIP3    H256856   2.986   0.633   0.059  0.0309  0.7858 -0.0184
11789TIP3   OH256857   3.031   5.664   1.758 -0.2830 -0.5248  0.0551
11789TIP3    H156858   2.960   5.719   1.725  0.0892  0.0713  0.2175
11789TIP3    H256859   3.044   5.693   1.848  0.7164 -0.0280 -0.2258
11790TIP3   OH256860   1.961   4.825   3.772 -0.8828 -0.5630  0.3895
11790TIP3    H156861   2.003   4.747   3.811  2.0732  0.6161 -0.1572
11790TIP3    H256862   1.934   4.877   3.848  0.3721 -0.5255  0.8343
11791TIP3   OH256863   2.385   4.828   4.413 -0.0220  0.5863 -0.0777
11791TIP3    H156864   2.348   4.866   4.492 -0.1183 -0.3614  0.3488
11791TIP3    H256865   2.430   4.749   4.442 -1.6461 -0.8201 -1.1491
11792TIP3   OH256866   0.953   0.753   2.824  0.4127 -0.0464  0.0645
11792TIP3    H156867   0.996   0.838   2.819  0.4421  0.0381  1.4983
11792TIP3    H256868   0.998   0.700   2.758  0.2056  1.1090 -1.0554
11793TIP3   OH256869   5.393   0.513  14.259  0.1555  1.0033  0.6075
11793TIP3    H156870   5.343   0.431  14.261  0.0060  0.9756 -1.6647
11793TIP3    H256871   5.332   0.580  14.290 -0.6734  0.6728 -0.2821
11794TIP3   OH256872   4.248   4.771   3.052 -0.1629 -0.1759 -0.1289
11794TIP3    H156873   4.334   4.808   3.070 -1.2576  1.4881  2.1844
11794TIP3    H256874   4.256   4.678   3.075  0.4591  0.4276  2.3137
11795TIP3   OH256875   0.512   2.436   1.571 -0.3728 -0.1034  0.2173
11795TIP3    H156876   0.513   2.342   1.556  0.3340 -0.1437  0.4682
11795TIP3    H256877   0.500   2.474   1.484  0.4827 -0.4080 -0.0478
11796TIP3   OH256878   4.197   0.899   4.879 -0.0657  0.1232 -0.1292
11796TIP3    H156879   4.122   0.873   4.933  0.2258 -2.1961 -0.7187
11796TIP3    H256880   4.222   0.986   4.911 -2.9880  0.9730  0.0582
11797TIP3   OH256881   0.700   1.302  16.963  0.0482 -0.0969 -0.2223
11797TIP3    H156882   0.656   1.218  16.979  1.5956 -0.8487  0.2293
11797TIP3    H256883   0.678   1.355  17.039 -0.2421 -0.3817 -0.1036
11798TIP3   OH256884   3.124   0.613  14.723 -0.0564  0.1835  0.0821
11798TIP3    H156885   3.187   0.557  14.768 -1.0833  0.1921  1.5989
11798TIP3    H256886   3.176   0.660  14.658  1.4324 -0.0927  1.0234
11799TIP3   OH256887   3.930   5.117   1.842  0.3000  0.1515  0.6109
11799TIP3    H156888   3.883   5.093   1.922 -1.8263 -1.0208 -0.8859
11799TIP3    H256889   3.996   5.048   1.832  0.4922  0.2308  1.2640
11800TIP3   OH256890   4.885   4.950  12.651 -0.0212 -0.2099 -0.1555
11800TIP3    H156891   4.942   4.942  12.574 -0.0853 -0.5004 -0.1752
11800TIP3    H256892   4.864   4.860  12.674  1.0577 -0.1947  0.9918
11801TIP3   OH256893   3.216   5.856   3.825  0.4799  0.4848  0.1668
11801TIP3    H156894   3.275   5.814   3.888 -1.3844 -0.2489  1.4963
11801TIP3    H256895   3.268   5.860   3.744  2.2474 -0.3696  1.1879
11802TIP3   OH256896   4.951   0.948   1.285  0.5847  0.5659  0.2214
11802TIP3    H156897   5.032   0.911   1.321  1.4132  0.1937 -1.8427
11802TIP3    H256898   4.935   1.026   1.338  1.0241 -0.5742  2.1106
11803TIP3   OH256899   2.050   5.422  11.948  0.2705 -0.0090 -0.0151
11803TIP3    H156900   1.964   5.381  11.959 -0.5691  1.8343  0.7895
11803TIP3    H256901   2.056   5.438  11.854  0.6654 -1.9642 -0.3686
11804TIP3   OH256902   0.107   3.699  16.579  0.1360 -0.1351  0.7550
11804TIP3    H156903   0.028   3.753  16.591  0.4055  0.1776  1.1561
11804TIP3    H256904   0.074   3.611  16.560 -0.3111  0.1730  0.0613
11805TIP3   OH256905   0.612   3.089  10.751  0.2476  0.5025  0.5647
11805TIP3    H156906   0.596   3.176  10.716  1.3639  0.3780 -0.2918
11805TIP3    H256907   0.677   3.050  10.693  1.7712  0.0802  2.4328
11806TIP3   OH256908   0.977   5.396   4.924 -0.0732  0.2874  0.3232
11806TIP3    H156909   1.000   5.445   4.845 -1.0359  3.3913  1.8125
11806TIP3    H256910   0.901   5.344   4.900 -0.8493  1.8187 -0.6104
11807TIP3   OH256911   6.747   5.540  14.384  0.5584 -0.1101 -0.1378
11807TIP3    H156912   6.655   5.549  14.359  0.2674 -1.4653  0.3726
11807TIP3    H256913   6.746   5.545  14.480  1.4146  2.9736 -0.1797
11808TIP3   OH256914   2.727   4.425  15.641 -0.5849 -0.0649  0.1442
11808TIP3    H156915   2.674   4.377  15.577 -1.0000  0.3643  0.1700
11808TIP3    H256916   2.672   4.431  15.719 -0.2664 -0.1512  0.3813
11809TIP3   OH256917   4.776   5.672  16.012 -0.1601  0.4592 -0.3534
11809TIP3    H156918   4.720   5.715  15.948 -0.6762  0.7891  0.3095
11809TIP3    H256919   4.857   5.651  15.964 -0.8441 -0.0296 -1.3220
11810TIP3   OH256920   2.657   2.793   1.264  0.5590 -0.3936 -0.1469
11810TIP3    H156921   2.645   2.736   1.188  1.6204  1.8901 -2.1581
11810TIP3    H256922   2.729   2.753   1.313  1.2537 -0.7983 -1.4709
11811TIP3   OH256923   3.540   2.000  10.298 -0.2797 -0.4962 -0.3371
11811TIP3    H156924   3.579   2.070  10.245 -0.3954 -0.4133 -0.3131
11811TIP3    H256925   3.614   1.944  10.321  0.2013  0.7850  1.4651
11812TIP3   OH256926   0.719   6.719  15.994  0.0934 -0.6759 -0.6517
11812TIP3    H156927   0.798   6.739  15.945 -0.2965 -0.2569 -1.1164
11812TIP3    H256928   0.749   6.708  16.084  0.8819 -1.8796 -1.0290
11813TIP3   OH256929   3.577   6.259  13.352 -0.3869  0.2451 -0.5262
11813TIP3    H156930   3.521   6.241  13.427  1.8583 -2.6654  0.6545
11813TIP3    H256931   3.622   6.340  13.373 -0.5966  0.0377  0.7905
11814TIP3   OH256932   5.370   5.588   5.592  0.5159  0.2971  0.3821
11814TIP3    H156933   5.325   5.522   5.539 -0.0871  1.2124 -0.2907
11814TIP3    H256934   5.346   5.568   5.682 -0.7185  0.3570  0.0878
11815TIP3   OH256935   1.398   3.311   1.527 -0.3682 -0.3096 -0.2979
11815TIP3    H156936   1.323   3.356   1.486  0.0720  0.2330 -0.5315
11815TIP3    H256937   1.399   3.224   1.487  0.3239  0.3583 -1.8227
11816TIP3   OH256938   2.583   0.003  11.118  0.1329  0.9588  0.4658
11816TIP3    H156939   2.538   0.012  11.034 -1.1824  0.1103  1.0267
11816TIP3    H256940   2.577  -0.091  11.138 -0.7264  1.3213  2.0795
11817TIP3   OH256941   6.409   5.892   4.720  0.0698 -0.3640  0.1483
11817TIP3    H156942   6.464   5.917   4.646  0.2343 -2.4149 -0.4916
11817TIP3    H256943   6.471   5.869   4.789  0.0084 -1.5278 -0.1716
11818TIP3   OH256944   6.658   0.241  13.803 -0.2169 -0.0500  0.3917
11818TIP3    H156945   6.648   0.318  13.860 -0.2738 -0.3512  0.7927
11818TIP3    H256946   6.577   0.192  13.815  0.4101 -0.9014  1.2405
11819TIP3   OH256947   0.201   5.550   4.428  0.5089  0.1204 -0.2147
11819TIP3    H156948   0.157   5.519   4.507  1.0102 -3.2008 -1.0695
11819TIP3    H256949   0.281   5.593   4.460  0.0368  0.0519  1.1066
11820TIP3   OH256950   0.660   5.112  13.219 -0.4459 -0.1543  0.4564
11820TIP3    H156951   0.688   5.116  13.310 -0.9034  1.4742  0.5587
11820TIP3    H256952   0.619   5.026  13.210 -0.6709 -0.2141  1.8704
11821TIP3   OH256953   6.275   0.335   1.351 -0.1649  0.8498  0.0257
11821TIP3    H156954   6.185   0.361   1.371 -0.8441 -0.2311 -1.4067
11821TIP3    H256955   6.292   0.369   1.263 -0.2029 -1.2324 -0.8590
11822TIP3   OH256956   2.032   0.945  11.000 -0.1703 -0.2232  0.0763
11822TIP3    H156957   2.092   0.930  11.074  0.5870  0.3081 -0.4122
11822TIP3    H256958   2.034   0.863  10.951  0.6408 -0.0088 -0.2680
11823TIP3   OH256959   0.083   4.431  16.006  0.2287  0.1746  0.1708
11823TIP3    H156960  -0.012   4.429  15.993  0.3246 -0.4247 -0.5068
11823TIP3    H256961   0.093   4.425  16.101 -0.4305  2.0782  0.4038
11824TIP3   OH256962   0.117   2.944   4.277 -0.3449 -0.3567 -0.5356
11824TIP3    H156963   0.202   2.941   4.233  0.4143  1.4030  0.6690
11824TIP3    H256964   0.132   3.000   4.354 -2.6810  0.3288 -0.5030
11825TIP3   OH256965   4.405   2.316   3.630 -0.0716  0.0831 -0.1509
11825TIP3    H156966   4.335   2.321   3.564 -1.1443  1.4983  1.0257
11825TIP3    H256967   4.363   2.346   3.710  1.5363 -0.4516  0.9221
11826TIP3   OH256968   3.566   4.339  14.902 -0.4467  0.5343  0.2258
11826TIP3    H156969   3.538   4.319  14.812  0.0052  1.1489 -0.0615
11826TIP3    H256970   3.494   4.308  14.957 -0.5311 -0.2671 -0.3161
11827TIP3   OH256971   2.687   4.434   2.454 -0.2533  0.0852  0.0922
11827TIP3    H156972   2.694   4.502   2.522  1.0678 -1.6372  1.7745
11827TIP3    H256973   2.610   4.460   2.402  0.3095  2.9352  0.5267
11828TIP3   OH256974   1.158   1.092  13.229  0.0240 -0.7118 -0.2695
11828TIP3    H156975   1.227   1.052  13.177 -1.0640 -1.4070 -1.2258
11828TIP3    H256976   1.130   1.023  13.289 -3.6703 -2.5782 -3.6567
11829TIP3   OH256977   0.786   3.841   2.066 -0.2346  0.0893  0.1161
11829TIP3    H156978   0.744   3.774   2.013 -0.6230  0.1827  0.3033
11829TIP3    H256979   0.777   3.921   2.014  0.3283 -0.0175 -0.1592
11830TIP3   OH256980   0.219   5.926   1.363  0.4674  0.5523  0.6234
11830TIP3    H156981   0.260   5.920   1.449 -1.1515 -1.0823  1.3500
11830TIP3    H256982   0.131   5.961   1.380  0.4007  0.9487 -0.4644
11831TIP3   OH256983   2.745   0.188   2.536 -0.0379 -0.1431 -0.1876
11831TIP3    H156984   2.814   0.254   2.544 -0.2471  0.1543 -0.8273
11831TIP3    H256985   2.758   0.132   2.613  0.0071  0.7564  0.4824
11832TIP3   OH256986   0.675   3.478   3.523  0.4147  0.2632  0.2966
11832TIP3    H156987   0.612   3.540   3.486  0.1668 -0.6466 -0.8624
11832TIP3    H256988   0.666   3.487   3.618  0.0267  1.6217  0.1466
11833TIP3   OH256989   1.162   4.417  10.893 -0.2290  0.0057 -0.0032
11833TIP3    H156990   1.156   4.442  10.985 -0.4709 -1.8945  0.5250
11833TIP3    H256991   1.073   4.391  10.869  0.0776 -0.6893 -0.4126
11834TIP3   OH256992   1.767   4.401   1.563 -0.3054 -0.0399  0.0653
11834TIP3    H156993   1.724   4.330   1.611  1.7373 -1.3600  0.0770
11834TIP3    H256994   1.816   4.357   1.494 -0.0667  1.4917 -0.7811
11835TIP3   OH256995   6.008   5.062  17.203 -0.3930  0.0791 -0.3005
11835TIP3    H156996   6.008   5.019  17.118 -0.7087 -0.2536 -0.1377
11835TIP3    H256997   5.924   5.038  17.242  0.0030 -0.2919  0.3613
11836TIP3   OH256998   1.079   0.904   3.362 -0.2109 -0.0973 -0.1272
11836TIP3    H156999   1.062   0.987   3.407 -1.9834 -0.6084  0.2285
11836TIP3    H257000   1.170   0.883   3.384 -0.8618 -0.1632  3.0760
11837TIP3   OH257001   3.360   4.942   0.940 -0.4130  0.1712  0.3420
11837TIP3    H157002   3.328   5.028   0.914  0.2815  0.3987  0.2011
11837TIP3    H257003   3.449   4.938   0.903 -0.0425 -0.1799  1.2458
11838TIP3   OH257004   1.294   5.412   2.470 -0.2507  0.4290  0.4581
11838TIP3    H157005   1.219   5.469   2.454 -0.5713 -0.3585 -1.0004
11838TIP3    H257006   1.264   5.351   2.537 -0.1711  1.4329  1.4446
11839TIP3   OH257007   2.185   5.733  16.483  0.4454  0.4473  0.5877
11839TIP3    H157008   2.183   5.664  16.549  1.9227  0.9394  1.1981
11839TIP3    H257009   2.183   5.814  16.533  2.5889  0.8289  0.1379
11840TIP3   OH257010   0.866   6.401  15.604  0.5570 -0.3065 -0.4453
11840TIP3    H157011   0.924   6.340  15.558  1.8856  0.9313 -0.5055
11840TIP3    H257012   0.787   6.350  15.623  1.6620 -2.0748 -0.3544
11841TIP3   OH257013   5.822   4.222   6.173 -0.1552  0.0143  0.0093
11841TIP3    H157014   5.818   4.129   6.193  1.2549 -0.0476  0.0509
11841TIP3    H257015   5.901   4.253   6.216 -0.3212  1.1275 -0.4551
11842TIP3   OH257016   3.118   0.178   4.717 -0.1375 -0.1632  0.2915
11842TIP3    H157017   3.112   0.121   4.793 -0.0758  0.5041  0.8009
11842TIP3    H257018   3.145   0.263   4.752  1.2896 -0.2022 -0.6177
11843TIP3   OH257019   6.660   4.192  13.434  0.6218 -0.2782  0.1864
11843TIP3    H157020   6.750   4.167  13.412  0.1437 -2.5321  0.4736
11843TIP3    H257021   6.607   4.154  13.364 -0.1994  0.0081  0.6436
11844TIP3   OH257022   2.504   3.135  13.683 -0.2143  0.1805 -0.1934
11844TIP3    H157023   2.437   3.080  13.725 -0.6985  0.9124  0.0148
11844TIP3    H257024   2.486   3.223  13.715  1.9788  0.1529  1.3270
11845TIP3   OH257025   6.292   0.961   1.571 -0.2273  0.1981 -0.5197
11845TIP3    H157026   6.343   0.942   1.492  1.0935  1.2566  0.0469
11845TIP3    H257027   6.344   1.026   1.619 -1.1209 -0.2067  1.0921
11846TIP3   OH257028   5.895   5.616  11.384 -0.3841 -0.8785  0.3113
11846TIP3    H157029   5.984   5.590  11.404 -0.3114 -1.0864 -0.2525
11846TIP3    H257030   5.848   5.610  11.467  0.2905 -0.0501  0.7677
11847TIP3   OH257031   3.918   1.811   6.672  0.1308  0.1660 -0.1574
11847TIP3    H157032   3.878   1.802   6.585 -0.5376  1.4528 -0.0212
11847TIP3    H257033   3.985   1.878   6.661  0.5846 -0.2287  0.1600
11848TIP3   OH257034   2.267   5.624   5.907  0.3391  0.3887 -0.3973
11848TIP3    H157035   2.185   5.673   5.903  0.5659  0.7242 -1.0063
11848TIP3    H257036   2.322   5.675   5.967  0.0719  0.1127  0.0853
11849TIP3   OH257037   5.223   2.777  15.334  0.1277  0.1302 -0.2123
11849TIP3    H157038   5.185   2.865  15.328  1.0796  0.7163  1.4995
11849TIP3    H257039   5.151   2.721  15.361  0.1848  1.0617  2.1194
11850TIP3   OH257040   2.468   5.513   2.304  0.2354 -0.1997  0.0331
11850TIP3    H157041   2.383   5.530   2.264 -0.5370  0.6254  1.9215
11850TIP3    H257042   2.484   5.420   2.288 -0.1974 -0.0040 -1.7957
11851TIP3   OH257043   0.097   3.130  14.392 -0.3917 -0.3629 -0.2079
11851TIP3    H157044   0.178   3.093  14.427 -0.4015 -0.6686 -0.4960
11851TIP3    H257045   0.070   3.195  14.457  0.1662 -0.1440 -0.1844
11852TIP3   OH257046   4.140   4.231   6.021  0.3323 -0.1865 -0.1508
11852TIP3    H157047   4.115   4.180   6.098  1.9904  1.4810  1.5943
11852TIP3    H257048   4.180   4.168   5.962 -0.8747 -1.4882  0.3574
11853TIP3   OH257049   2.211   0.315  12.912  0.0749 -0.1506 -0.4095
11853TIP3    H157050   2.190   0.221  12.912  1.8433 -0.6323 -1.8081
11853TIP3    H257051   2.300   0.319  12.947  0.2691  0.9230 -0.9805
11854TIP3   OH257052   1.901   1.464  13.090 -0.5081  0.3425  0.1369
11854TIP3    H157053   1.983   1.510  13.077  2.2411 -3.8120  0.8857
11854TIP3    H257054   1.893   1.454  13.184  0.1832 -2.3778 -0.0200
11855TIP3   OH257055   5.830   4.662  13.731  0.0591  0.1896 -0.2714
11855TIP3    H157056   5.844   4.607  13.655  1.4906 -0.1764  0.2407
11855TIP3    H257057   5.873   4.617  13.803 -3.0573 -0.5914  1.3010
11856TIP3   OH257058   4.208   1.441   6.027 -0.0724 -0.1108  0.3904
11856TIP3    H157059   4.226   1.366   5.971  2.1612  0.8119 -0.2370
11856TIP3    H257060   4.141   1.490   5.980  1.8116  0.6812 -1.6317
11857TIP3   OH257061   4.574   4.423   1.186  0.8162  0.1422  0.1602
11857TIP3    H157062   4.587   4.389   1.097  2.1665  1.2744 -0.1305
11857TIP3    H257063   4.515   4.498   1.174  0.4904 -0.0926  0.3079
11858TIP3   OH257064   5.404   0.882  12.306 -0.2722 -0.3527 -0.2835
11858TIP3    H157065   5.363   0.943  12.368  2.1936  0.3472  0.8068
11858TIP3    H257066   5.484   0.854  12.350  1.9030  0.5653 -3.3144
11859TIP3   OH257067   0.839   1.592   4.223 -0.6303 -0.1062  0.1858
11859TIP3    H157068   0.786   1.537   4.280 -0.8548 -1.8059 -1.5704
11859TIP3    H257069   0.895   1.641   4.283 -2.8787  0.4214  2.0031
11860TIP3   OH257070   2.346   1.424   0.865 -0.0868  0.0482 -0.5668
11860TIP3    H157071   2.313   1.439   0.777  1.9530 -0.4426 -1.4666
11860TIP3    H257072   2.288   1.476   0.921 -0.6013  1.4750 -2.3244
11861TIP3   OH257073   1.453   5.291   6.363  0.1189  0.4875  0.1478
11861TIP3    H157074   1.499   5.207   6.359  0.0628  0.4960 -0.9096
11861TIP3    H257075   1.513   5.349   6.410  0.9527  0.3458 -0.7146
11862TIP3   OH257076   0.854   3.483   5.059 -0.0025 -0.0335  0.3783
11862TIP3    H157077   0.819   3.483   5.149 -0.2656  1.2883  0.2994
11862TIP3    H257078   0.847   3.574   5.031  0.0775 -0.4293 -0.9983
11863TIP3   OH257079   4.903   2.316  16.495 -0.3474 -0.3130 -0.2061
11863TIP3    H157080   4.891   2.376  16.570 -0.5213 -0.8628  0.2128
11863TIP3    H257081   4.990   2.336  16.462 -0.2941 -0.0173  0.1048
11864TIP3   OH257082   0.080   5.322  13.153 -0.4317 -0.1064 -0.1636
11864TIP3    H157083   0.001   5.285  13.115 -0.1619  0.4262 -1.2751
11864TIP3    H257084   0.056   5.411  13.177  0.0557  0.3560 -1.3237
11865TIP3   OH257085   5.730   4.625   5.056  0.0239 -0.4074 -0.0170
11865TIP3    H157086   5.818   4.657   5.040  0.3630  0.1808  2.6228
11865TIP3    H257087   5.742   4.549   5.112 -1.1351 -0.7943 -0.2583
11866TIP3   OH257088   3.648   1.785  16.129  0.4652 -0.9695 -0.0281
11866TIP3    H157089   3.594   1.774  16.051 -1.6634  2.1699  0.7961
11866TIP3    H257090   3.696   1.866  16.115  0.2942 -0.5095  1.7239
11867TIP3   OH257091   5.273   3.442  15.368  0.2803 -0.4375 -0.2115
11867TIP3    H157092   5.319   3.376  15.421  1.6856  0.3540 -0.3787
11867TIP3    H257093   5.186   3.405  15.353  0.2214 -1.1862  1.6854
11868TIP3   OH257094   4.437   6.719  16.308  0.2272 -0.1028  0.0959
11868TIP3    H157095   4.519   6.690  16.267  0.1963 -1.8010  1.1485
11868TIP3    H257096   4.381   6.641  16.306 -0.9966  0.7425  0.3513
11869TIP3   OH257097   5.173   5.006   5.883  0.0456 -0.3988  0.2318
11869TIP3    H157098   5.180   4.984   5.976 -0.2405  1.4198  0.7199
11869TIP3    H257099   5.079   4.999   5.864  0.0348 -0.2326  0.2228
11870TIP3   OH257100   4.844   6.022  13.918  0.1431 -0.1262 -0.3997
11870TIP3    H157101   4.866   6.005  13.826  2.0271  0.7969 -0.1572
11870TIP3    H257102   4.900   5.961  13.967  2.6913  2.5599  0.2578
11871TIP3   OH257103   5.995   3.790   1.704  0.3764  0.3951 -0.6465
11871TIP3    H157104   5.912   3.746   1.688  1.2699 -0.8295 -2.1754
11871TIP3    H257105   5.981   3.880   1.673 -0.3858  0.2229 -0.8125
11872TIP3   OH257106   3.788   0.898  16.278 -0.0259  0.2889  0.3749
11872TIP3    H157107   3.808   0.812  16.242 -1.5897 -0.1246  0.4086
11872TIP3    H257108   3.821   0.895  16.368  1.0379  0.1909 -0.0037
11873TIP3   OH257109   2.428   6.206  14.629 -0.1866  0.0865 -0.5390
11873TIP3    H157110   2.397   6.145  14.563 -0.3906 -0.5752  0.1450
11873TIP3    H257111   2.485   6.267  14.582 -1.8401  0.8236 -1.6610
11874TIP3   OH257112   2.512   4.158   5.105  0.2576  0.4600 -1.0753
11874TIP3    H157113   2.529   4.249   5.082  1.6175 -0.2191 -2.9967
11874TIP3    H257114   2.437   4.133   5.052 -0.2414  0.4856 -0.4025
11875TIP3   OH257115   3.307   1.597  14.821 -0.5029  0.0497  0.4602
11875TIP3    H157116   3.273   1.587  14.910 -1.2747 -0.1754  0.1390
11875TIP3    H257117   3.271   1.680  14.791  2.8433  2.1726  1.7339
11876TIP3   OH257118   3.677   2.222   4.933 -0.3138  0.2406 -0.1527
11876TIP3    H157119   3.655   2.316   4.929 -0.3458  0.3811  2.1092
11876TIP3    H257120   3.727   2.206   4.853 -0.6750  2.0775 -0.8099
11877TIP3   OH257121   2.682   1.449   0.242  0.7490  0.1568 -0.3049
11877TIP3    H157122   2.760   1.401   0.214 -0.0867 -1.3220 -0.1889
11877TIP3    H257123   2.705   1.484   0.328  0.9383 -1.1487  0.1905
11878TIP3   OH257124   4.570   1.888   4.387 -0.2411 -0.2456  0.4040
11878TIP3    H157125   4.530   1.811   4.427 -0.0612 -1.7402 -2.0867
11878TIP3    H257126   4.547   1.882   4.294  2.9702  0.5919 -0.5867
11879TIP3   OH257127   5.565   1.483  15.765  0.2334 -0.0649 -0.0367
11879TIP3    H157128   5.488   1.513  15.718  0.7670 -0.7213 -1.3668
11879TIP3    H257129   5.638   1.495  15.704  0.9449 -1.0055  0.5857
11880TIP3   OH257130   0.191   1.980  13.004  0.1213 -0.3513 -0.0488
11880TIP3    H157131   0.106   1.959  12.964 -0.4463  0.4418  0.7024
11880TIP3    H257132   0.254   1.970  12.932 -0.8633  0.9744 -1.1719
11881TIP3   OH257133   3.299   3.297   1.878  0.2386 -0.0147  0.1470
11881TIP3    H157134   3.227   3.306   1.816  0.1786 -0.4586  0.1516
11881TIP3    H257135   3.367   3.248   1.831  1.4727  2.2851 -0.6326
11882TIP3   OH257136   4.174   0.757  11.871 -0.8472  0.2410 -0.8370
11882TIP3    H157137   4.180   0.670  11.833 -2.3865 -1.5605  2.5844
11882TIP3    H257138   4.084   0.785  11.853 -1.5660 -0.5969  1.1874
11883TIP3   OH257139   4.366   6.285   0.532 -0.3720  0.4158 -0.0606
11883TIP3    H157140   4.334   6.217   0.473  0.6366  0.1619 -0.3350
11883TIP3    H257141   4.297   6.352   0.531 -1.7303 -0.8968  0.7839
11884TIP3   OH257142   4.572   1.704  16.236 -0.2560 -0.2559  0.0151
11884TIP3    H157143   4.497   1.700  16.295  0.0729  0.2729  0.4785
11884TIP3    H257144   4.646   1.726  16.293  0.1521 -0.2222 -0.5203
11885TIP3   OH257145   3.760   2.042   3.303 -0.2512 -0.4468  0.3175
11885TIP3    H157146   3.688   2.105   3.301 -0.7955 -1.0580  0.0462
11885TIP3    H257147   3.822   2.078   3.365  1.7166  2.7395 -3.0931
11886TIP3   OH257148   1.677   6.321   3.772  0.0667 -0.4258 -0.4797
11886TIP3    H157149   1.634   6.395   3.815  0.9641 -0.1465 -0.0273
11886TIP3    H257150   1.620   6.246   3.789 -1.1260  0.2449 -1.3883
11887TIP3   OH257151   3.901   5.889   6.206  0.3494 -0.1403  0.0973
11887TIP3    H157152   3.827   5.945   6.229  0.0578 -0.4208 -0.1427
11887TIP3    H257153   3.926   5.918   6.119  1.4649  0.9346  0.7471
11888TIP3   OH257154   4.404   1.535   0.179 -0.7669  1.1258 -0.4213
11888TIP3    H157155   4.336   1.574   0.234 -0.3903 -0.8975  1.6515
11888TIP3    H257156   4.356   1.485   0.113 -1.5713 -1.9879  2.2406
11889TIP3   OH257157   2.950   0.666  11.470  0.1584  0.1669 -0.5406
11889TIP3    H157158   2.886   0.607  11.430 -0.9788  0.6373  0.5294
11889TIP3    H257159   2.942   0.747  11.419 -0.1146  0.2219 -0.4161
11890TIP3   OH257160   4.383   0.234   4.894 -0.4843 -0.6214  0.5769
11890TIP3    H157161   4.372   0.185   4.976 -2.4109 -0.4207  0.4736
11890TIP3    H257162   4.297   0.270   4.875  0.2077  0.3609 -0.9223
11891TIP3   OH257163   0.953   6.395   4.881  0.6120  0.4325  0.1669
11891TIP3    H157164   0.960   6.381   4.787 -0.1712  0.1351  0.1469
11891TIP3    H257165   1.042   6.417   4.909  0.6296  1.6695 -0.8134
11892TIP3   OH257166   5.662   4.320  14.697 -0.2183  0.1334  0.5103
11892TIP3    H157167   5.568   4.337  14.688 -0.0369  0.0534 -2.7698
11892TIP3    H257168   5.675   4.236  14.652  1.5964  0.8934 -0.5033
11893TIP3   OH257169   5.007   4.764  12.967 -0.6154 -0.1313  0.6015
11893TIP3    H157170   5.084   4.793  12.918 -1.3008 -1.3744 -1.3658
11893TIP3    H257171   5.042   4.711  13.038  0.3718 -1.3095 -0.7104
11894TIP3   OH257172   1.406   0.534   5.949  0.0665  0.1965  0.7875
11894TIP3    H157173   1.481   0.580   5.988  0.6514 -0.1325  0.0744
11894TIP3    H257174   1.335   0.547   6.012  0.3035  1.7893  0.7784
11895TIP3   OH257175   3.700   3.968   5.255 -0.1213  0.7846  0.2113
11895TIP3    H157176   3.709   3.906   5.183 -0.4474  1.1528 -0.1521
11895TIP3    H257177   3.634   3.929   5.312 -0.1244  0.6692  0.1293
11896TIP3   OH257178   1.489   4.639  12.681  0.6381 -0.2279 -0.4026
11896TIP3    H157179   1.514   4.560  12.635 -1.2640 -0.2622 -1.4437
11896TIP3    H257180   1.562   4.699  12.667  0.5761 -0.5958 -2.6200
11897TIP3   OH257181   6.029   1.817   5.164  0.2702 -0.2538 -0.7779
11897TIP3    H157182   6.015   1.910   5.148 -0.2844  0.0676  1.2531
11897TIP3    H257183   6.005   1.774   5.082  0.0072  1.3309 -1.5705
11898TIP3   OH257184   4.032   3.454  14.362 -0.1443  0.3884 -0.1094
11898TIP3    H157185   4.012   3.417  14.276 -0.0471  1.8861 -0.8187
11898TIP3    H257186   4.123   3.481  14.356 -1.0628  3.8978 -0.9538
11899TIP3   OH257187   2.325   3.098  13.324 -0.2004 -0.3427 -0.5602
11899TIP3    H157188   2.396   3.153  13.354  0.0988 -0.4349 -1.0950
11899TIP3    H257189   2.318   3.029  13.390  0.6571 -0.7176 -0.8450
11900TIP3   OH257190   5.237   6.070  14.868  0.5839 -0.0077  0.1103
11900TIP3    H157191   5.156   6.122  14.872  0.2643 -0.5768  1.2578
11900TIP3    H257192   5.285   6.108  14.794  1.2093  3.1246  1.9337
11901TIP3   OH257193   3.810   0.836  15.304  0.0634 -0.0665 -0.2859
11901TIP3    H157194   3.770   0.787  15.232 -0.0055 -0.8797  0.3007
11901TIP3    H257195   3.737   0.886  15.342 -0.3901 -1.3818  0.6439
11902TIP3   OH257196   2.846   4.976   5.429  0.3900  0.1338  0.6334
11902TIP3    H157197   2.803   4.995   5.513 -0.3125  1.3610  0.0242
11902TIP3    H257198   2.854   5.061   5.387 -2.7257 -0.7479 -2.1754
11903TIP3   OH257199   4.591   5.948   5.152 -0.2836 -0.5736  0.0374
11903TIP3    H157200   4.658   6.014   5.136 -0.9115 -0.1466 -0.8818
11903TIP3    H257201   4.606   5.920   5.242  1.3554 -0.7504 -0.2558
11904TIP3   OH257202   1.917   5.655   1.354 -0.4423 -0.1386  0.3028
11904TIP3    H157203   1.947   5.700   1.433  1.1717 -1.8176  0.7070
11904TIP3    H257204   1.966   5.696   1.283 -2.1699  1.6347  0.0292
11905TIP3   OH257205   0.941   5.937  13.296 -0.2855  0.5384  0.1324
11905TIP3    H157206   0.875   5.966  13.359  0.3173  0.7436  0.6942
11905TIP3    H257207   0.965   5.849  13.325 -0.2963  0.4779 -0.0450
11906TIP3   OH257208   6.224   4.300   0.015  0.0450 -0.1397 -0.0366
11906TIP3    H157209   6.134   4.269   0.002  0.1609 -0.0501 -1.1774
11906TIP3    H257210   6.278   4.232  -0.026  0.7979 -2.1679  3.8561
11907TIP3   OH257211   2.873   4.797   3.113 -0.2099  0.0256  0.1383
11907TIP3    H157212   2.894   4.715   3.157  0.1727 -0.1950 -0.4526
11907TIP3    H257213   2.843   4.855   3.184 -0.1888 -0.5176  0.5979
11908TIP3   OH257214   4.318   5.445  15.211 -0.5489 -0.5424  0.0825
11908TIP3    H157215   4.394   5.483  15.167  0.1921 -0.4286  1.4065
11908TIP3    H257216   4.278   5.519  15.257 -0.1352 -1.0028  1.2185
11909TIP3   OH257217   2.720   4.636   5.002 -0.5005 -0.0719  0.2373
11909TIP3    H157218   2.685   4.662   4.917  0.0831 -0.6393 -0.1796
11909TIP3    H257219   2.759   4.716   5.037  0.0110 -0.0368 -0.4012
11910TIP3   OH257220   6.814   0.408  13.255 -0.4044 -0.1095  0.1593
11910TIP3    H157221   6.741   0.461  13.287  0.7372  0.6183  1.6881
11910TIP3    H257222   6.810   0.328  13.307  0.3020  0.2525  0.7930
11911TIP3   OH257223   6.565   6.544   4.601 -0.2381  0.8222  0.0113
11911TIP3    H157224   6.594   6.635   4.597 -0.1022  0.8166  0.7516
11911TIP3    H257225   6.593   6.507   4.517  0.3618  1.2678  0.0055
11912TIP3   OH257226   5.358   2.742  12.222  0.2056 -0.1891  0.0470
11912TIP3    H157227   5.319   2.707  12.142  1.0575 -1.0851 -0.0024
11912TIP3    H257228   5.397   2.825  12.195  0.7842 -0.6426 -0.5747
11913TIP3   OH257229   4.657   1.985   0.966  0.6731 -0.7085 -0.3368
11913TIP3    H157230   4.730   1.998   0.906  0.2451 -2.1122 -1.2044
11913TIP3    H257231   4.696   1.948   1.045  1.2009  0.8771  0.1734
11914TIP3   OH257232   5.270   2.886   0.750  0.4816  0.0144 -0.2708
11914TIP3    H157233   5.252   2.977   0.724 -1.2882 -0.1235  0.3684
11914TIP3    H257234   5.232   2.834   0.679 -0.4132 -0.2531  0.3844
11915TIP3   OH257235   3.476   0.620   5.829 -0.1278 -0.0893  0.0128
11915TIP3    H157236   3.420   0.693   5.802  1.5710  1.7529  1.2357
11915TIP3    H257237   3.524   0.653   5.905  0.0095 -2.8468  1.2545
11916TIP3   OH257238   0.473   6.822   6.225 -0.0281 -0.0480 -0.2757
11916TIP3    H157239   0.406   6.753   6.219  0.2473 -0.2526 -1.1749
11916TIP3    H257240   0.537   6.787   6.288 -0.1568 -0.3812 -0.3247
11917TIP3   OH257241   3.866   6.773  14.334 -0.2472  0.4773  0.0761
11917TIP3    H157242   3.880   6.860  14.370  1.5577 -0.1806  1.1017
11917TIP3    H257243   3.820   6.725  14.403  0.1149  0.2034  0.1322
11918TIP3   OH257244   5.685   6.134   2.164 -0.3341 -0.0485  0.3288
11918TIP3    H157245   5.755   6.111   2.225  1.5446 -0.4733 -1.8290
11918TIP3    H257246   5.691   6.230   2.157  1.3794 -0.2096 -1.2215
11919TIP3   OH257247   6.726   0.275  15.510  0.3642 -0.2205  0.8220
11919TIP3    H157248   6.636   0.262  15.479  0.6521 -0.3043 -0.0142
11919TIP3    H257249   6.737   0.209  15.579 -0.9153  1.2220  2.4880
11920TIP3   OH257250   0.418   0.746  13.627  0.8792 -0.1201  0.0368
11920TIP3    H157251   0.366   0.794  13.561  2.2836 -0.2738 -1.2272
11920TIP3    H257252   0.381   0.657  13.625 -0.1656  0.2759  0.6756
11921TIP3   OH257253   2.715   6.118   3.249  0.4397  0.0515  0.3416
11921TIP3    H157254   2.754   6.147   3.331 -0.5027  0.6265  0.5932
11921TIP3    H257255   2.778   6.054   3.215  1.5925  0.9303  0.7400
11922TIP3   OH257256   4.134   4.522  11.717  0.2888 -0.3687  0.4305
11922TIP3    H157257   4.073   4.544  11.647 -0.1385 -0.8408  0.6436
11922TIP3    H257258   4.108   4.434  11.744  1.3380 -0.7437  0.2485
11923TIP3   OH257259   2.607   3.732  13.671 -0.1505 -0.3391  0.4228
11923TIP3    H157260   2.571   3.698  13.753  0.0775  1.2422  1.2249
11923TIP3    H257261   2.553   3.808  13.652  1.0597  0.5014  0.2120
11924TIP3   OH257262   4.657   6.581  11.713  0.4486  0.1346  0.3168
11924TIP3    H157263   4.652   6.641  11.788 -0.4988 -0.2486  0.5687
11924TIP3    H257264   4.578   6.599  11.662  1.4286  0.9118 -1.0228
11925TIP3   OH257265   4.849   1.506  16.145  0.1083 -0.3325 -0.0469
11925TIP3    H157266   4.773   1.546  16.187  0.0999  0.6721 -0.9927
11925TIP3    H257267   4.886   1.575  16.089  1.0564 -1.1438 -0.4588
11926TIP3   OH257268   1.970   5.335  12.934 -0.3756  0.3369  0.0224
11926TIP3    H157269   1.987   5.316  12.842  0.3009 -0.3839  0.2865
11926TIP3    H257270   2.001   5.425  12.946  1.3347 -0.2212 -0.0201
11927TIP3   OH257271   5.925   0.247  15.720  0.2494 -0.2483  0.1582
11927TIP3    H157272   5.933   0.272  15.628  0.6049 -0.7341  0.0528
11927TIP3    H257273   5.922   0.330  15.767 -1.3040  0.0423 -0.3966
11928TIP3   OH257274   1.411   3.407  11.268  0.0505  0.1363  0.4519
11928TIP3    H157275   1.336   3.438  11.217  0.3644 -0.2938 -0.2961
11928TIP3    H257276   1.417   3.314  11.247  1.4919  0.3992 -0.4542
11929TIP3   OH257277   0.040   6.083   5.304 -0.3382  0.3611 -0.5284
11929TIP3    H157278   0.065   6.019   5.370 -0.2978  0.6001 -0.3108
11929TIP3    H257279  -0.046   6.114   5.332  0.1213  1.2282  0.0000
11930TIP3   OH257280   0.587   0.440  16.152 -0.1397  0.6670  0.4667
11930TIP3    H157281   0.536   0.416  16.229  0.3903 -1.6705  0.1700
11930TIP3    H257282   0.630   0.359  16.125  1.7357  1.9782 -0.7932
11931TIP3   OH257283   6.384   4.226  11.778  0.0546  0.0808  0.8168
11931TIP3    H157284   6.435   4.194  11.852 -0.1208 -0.6179  0.6376
11931TIP3    H257285   6.448   4.271  11.723  0.5708 -1.1319  0.3983
11932TIP3   OH257286   4.505   3.320  11.009  0.0321 -0.6250 -0.2211
11932TIP3    H157287   4.462   3.254  10.953 -0.8557  0.0213 -0.3159
11932TIP3    H257288   4.586   3.341  10.962  1.0473 -2.6320  0.4782
11933TIP3   OH257289   6.692   5.134  16.686 -0.1041 -0.2494 -0.2623
11933TIP3    H157290   6.762   5.144  16.749  3.0566  2.0291 -3.6754
11933TIP3    H257291   6.633   5.207  16.704  1.7591  1.5115 -0.8916
11934TIP3   OH257292   5.680   1.362  16.846 -0.4744  0.0576 -0.7590
11934TIP3    H157293   5.639   1.435  16.800 -0.6166  0.7980  0.5096
11934TIP3    H257294   5.762   1.397  16.879 -1.3853  0.2447  1.4717
11935TIP3   OH257295   6.399   3.803  11.545  0.2814 -0.3267  0.4545
11935TIP3    H157296   6.423   3.778  11.634  1.8980 -0.1959  0.0698
11935TIP3    H257297   6.353   3.887  11.556 -0.2948 -0.7358  1.2312
11936TIP3   OH257298   5.134   5.612  14.988 -0.2099 -0.7010 -0.1690
11936TIP3    H157299   5.043   5.593  14.966 -0.4082 -0.0335  0.0495
11936TIP3    H257300   5.166   5.665  14.915  0.4111 -2.0427 -0.8931
11937TIP3   OH257301   5.902   6.814  16.859  0.3355  0.2187  0.3267
11937TIP3    H157302   5.978   6.826  16.915 -1.2398 -0.1363  2.7081
11937TIP3    H257303   5.836   6.774  16.916 -1.2641 -0.5655 -1.9194
11938TIP3   OH257304   3.364   6.628  14.741 -0.2707  0.3423  0.1730
11938TIP3    H157305   3.360   6.545  14.692  2.6777 -0.1020  0.4925
11938TIP3    H257306   3.372   6.695  14.673 -0.1467  0.1169 -0.0386
11939TIP3   OH257307   2.196   3.901   1.927  0.3746 -0.4007  0.3011
11939TIP3    H157308   2.246   3.827   1.892  0.8197  0.0350 -0.0098
11939TIP3    H257309   2.241   3.924   2.008  1.8950  1.1936 -0.9079
11940TIP3   OH257310   5.283   1.139   4.029 -0.1199  0.3008 -0.3303
11940TIP3    H157311   5.218   1.094   4.083 -1.6681  1.5782 -1.0783
11940TIP3    H257312   5.365   1.094   4.049 -1.2888 -1.6843  0.2579
11941TIP3   OH257313   5.551   4.557  15.689 -0.4456 -0.2736 -0.8694
11941TIP3    H157314   5.480   4.540  15.627 -0.8141 -0.5804 -0.3747
11941TIP3    H257315   5.542   4.650  15.711 -0.4608 -0.2224 -1.0943
11942TIP3   OH257316   4.451   2.599   0.692 -0.3744  0.3874 -0.4456
11942TIP3    H157317   4.508   2.572   0.620 -1.2893 -0.5390 -0.8690
11942TIP3    H257318   4.499   2.667   0.738  1.0409 -0.3429 -0.7982
11943TIP3   OH257319   5.670   5.198   1.612  0.0960 -0.0551 -0.8677
11943TIP3    H157320   5.684   5.263   1.544  2.7798 -0.0430 -0.4023
11943TIP3    H257321   5.695   5.115   1.571  0.5376 -0.2181 -0.2815
11944TIP3   OH257322   1.732   4.725  13.915 -0.0172  0.4598 -0.3065
11944TIP3    H157323   1.684   4.681  13.844 -0.2347  0.6452 -0.2761
11944TIP3    H257324   1.664   4.763  13.970  0.1800  2.0164 -1.0820
11945TIP3   OH257325   1.248   5.567  15.788 -0.4230  0.4956 -0.2791
11945TIP3    H157326   1.296   5.628  15.733 -1.3455 -0.7514 -2.6154
11945TIP3    H257327   1.172   5.542  15.735 -1.8498 -0.1345  1.9349
11946TIP3   OH257328   5.004   2.929  17.157  0.3967  0.2891 -0.0514
11946TIP3    H157329   5.048   2.865  17.213 -0.3367  0.3924  0.6551
11946TIP3    H257330   5.031   3.014  17.191  0.3450  0.3560 -0.1758
11947TIP3   OH257331   5.491   1.738  12.546  0.2366 -0.0625 -0.2263
11947TIP3    H157332   5.508   1.832  12.543  0.6856 -0.1438 -0.2928
11947TIP3    H257333   5.514   1.713  12.636  1.4091 -0.3407 -0.5802
11948TIP3   OH257334   4.063   0.295   1.571 -0.3203 -0.2487 -0.6428
11948TIP3    H157335   4.152   0.300   1.605 -0.0755  1.4616 -1.4441
11948TIP3    H257336   4.008   0.330   1.642  0.1527  2.9790 -1.7165
11949TIP3   OH257337   3.197   5.160   3.914  0.0754 -0.3950 -0.1367
11949TIP3    H157338   3.241   5.160   3.829  0.7593  1.8665  0.1551
11949TIP3    H257339   3.260   5.198   3.974 -0.9598 -0.5259  1.0840
11950TIP3   OH257340   2.553   2.955   3.357  0.1391  0.1319 -0.1542
11950TIP3    H157341   2.607   2.992   3.288  0.7789  1.4322  0.9847
11950TIP3    H257342   2.464   2.953   3.320  0.5182  0.4808 -1.1111
11951TIP3   OH257343   1.717   2.413   1.388  0.0375  0.4907 -0.2497
11951TIP3    H157344   1.639   2.366   1.359 -0.1563  1.4635 -1.3614
11951TIP3    H257345   1.790   2.354   1.368 -0.3846 -0.5361  1.0274
11952TIP3   OH257346   1.159   3.084   3.663  0.5039 -0.3199 -0.2540
11952TIP3    H157347   1.137   3.175   3.642  1.3314  0.2926  1.3796
11952TIP3    H257348   1.086   3.033   3.629 -0.9229  1.1480  0.4995
11953TIP3   OH257349   4.702   6.394  12.692 -0.0429  0.0471  0.4021
11953TIP3    H157350   4.749   6.313  12.675  0.9931  0.6867  0.1021
11953TIP3    H257351   4.710   6.444  12.610 -0.3676  0.6012  0.6996
11954TIP3   OH257352   5.118   3.435   6.173 -0.5245 -0.2344  0.8093
11954TIP3    H157353   5.138   3.519   6.132 -1.3088  0.0313  0.9644
11954TIP3    H257354   5.055   3.394   6.114  1.7886 -1.9264 -0.7143
11955TIP3   OH257355   3.959   0.044   5.007  0.4162 -0.2382 -0.1160
11955TIP3    H157356   3.871   0.008   5.019 -0.1114  1.0296 -0.0592
11955TIP3    H257357   4.012  -0.032   4.982 -0.3044 -1.3608  1.5700
11956TIP3   OH257358   5.194   0.816  11.232 -0.3864  0.0094 -0.5443
11956TIP3    H157359   5.099   0.827  11.228 -0.1562  3.2965  0.2803
11956TIP3    H257360   5.216   0.775  11.149 -2.5696 -1.7480 -0.3569
11957TIP3   OH257361   5.998   1.736   5.665 -0.2542 -0.0255 -0.0188
11957TIP3    H157362   5.957   1.800   5.606  1.0980  0.5840 -0.3309
11957TIP3    H257363   6.081   1.714   5.622 -0.0132 -0.8514  0.8436
11958TIP3   OH257364   2.653   0.222  13.418 -0.5276  0.1285 -0.3014
11958TIP3    H157365   2.697   0.298  13.456  0.8110 -0.9457  0.3989
11958TIP3    H257366   2.602   0.258  13.345 -0.4538  1.7668  0.4038
11959TIP3   OH257367   2.794   3.235  12.667 -0.5244  0.4050  0.2544
11959TIP3    H157368   2.812   3.322  12.702 -2.1707 -0.3610  3.3701
11959TIP3    H257369   2.868   3.182  12.698 -1.4557 -0.0481  1.8327
11960TIP3   OH257370   3.814   6.608  12.782  0.8459  0.5066  0.0757
11960TIP3    H157371   3.725   6.640  12.765 -0.0241 -1.8338 -0.1941
11960TIP3    H257372   3.805   6.556  12.862  1.4484 -1.5777 -1.1525
11961TIP3   OH257373   4.583   0.607  16.157 -0.3911 -0.0286  0.1544
11961TIP3    H157374   4.578   0.696  16.121  0.8336 -0.0639 -0.1269
11961TIP3    H257375   4.644   0.614  16.230  1.1183 -0.9617 -0.9553
11962TIP3   OH257376   5.902   3.090   3.568 -0.0282 -0.2049 -0.4970
11962TIP3    H157377   5.897   3.029   3.495 -0.8046  1.4525 -1.8822
11962TIP3    H257378   5.898   3.034   3.646 -1.1126 -1.8902 -1.6998
11963TIP3   OH257379   2.658   2.479  12.193 -0.2655 -0.6025 -0.1410
11963TIP3    H157380   2.680   2.399  12.241 -0.2929  0.2939  1.4579
11963TIP3    H257381   2.666   2.548  12.259  0.0171  0.7446 -1.5473
11964TIP3   OH257382   6.185   1.923  11.887 -0.0302 -0.0282 -0.4301
11964TIP3    H157383   6.216   1.858  11.950 -0.2594  0.1073 -0.1765
11964TIP3    H257384   6.205   2.007  11.928 -0.2294  0.0604 -0.5161
11965TIP3   OH257385   3.160   1.173   0.149 -0.9771 -0.2248  0.1490
11965TIP3    H157386   3.079   1.211   0.184 -1.1375  0.7809 -1.2283
11965TIP3    H257387   3.133   1.130   0.068 -0.1369  0.0453 -0.2800
11966TIP3   OH257388   2.596   3.534  15.117 -0.0636 -0.5150  0.4554
11966TIP3    H157389   2.511   3.502  15.084 -0.1189  0.3196 -0.2483
11966TIP3    H257390   2.652   3.537  15.040 -0.3168  1.8902  0.2702
11967TIP3   OH257391   3.282   5.732  14.370  0.1286 -0.0095  0.4267
11967TIP3    H157392   3.271   5.650  14.417  0.1905 -1.2643 -1.6434
11967TIP3    H257393   3.195   5.772  14.370 -0.6337 -1.5454 -1.0727
11968TIP3   OH257394   0.342   4.568  11.077 -0.3484 -0.2022 -0.2788
11968TIP3    H157395   0.349   4.615  10.994  0.0660 -1.6239 -1.0787
11968TIP3    H257396   0.248   4.560  11.092 -0.4321 -0.5817 -0.9885
11969TIP3   OH257397   3.337   3.503  14.006  1.1092  0.7273  0.2864
11969TIP3    H157398   3.282   3.555  14.064 -0.6571 -0.5423 -0.1633
11969TIP3    H257399   3.423   3.504  14.047 -0.0393 -0.0894  2.9483
11970TIP3   OH257400   0.460   3.593  12.369  0.4125 -0.2050  0.1711
11970TIP3    H157401   0.465   3.632  12.282  0.3316 -0.7859 -0.0945
11970TIP3    H257402   0.522   3.644  12.421 -2.8095  3.2543  1.0282
11971TIP3   OH257403   5.613   6.639  13.301 -0.2048 -0.1107 -0.2540
11971TIP3    H157404   5.528   6.657  13.342  0.8728 -0.6132  2.3420
11971TIP3    H257405   5.674   6.630  13.374  1.9353 -0.6844 -2.0115
11972TIP3   OH257406   1.615   6.054   2.186  0.2307 -0.0215 -0.1686
11972TIP3    H157407   1.618   6.058   2.090  0.5134  0.4610 -0.1444
11972TIP3    H257408   1.543   5.993   2.205 -2.2000  2.4546 -0.6889
11973TIP3   OH257409   5.480   1.202   5.581 -0.4398 -0.2334  0.3599
11973TIP3    H157410   5.497   1.289   5.617  0.3067  0.6199 -1.8951
11973TIP3    H257411   5.559   1.152   5.599 -0.4884 -0.1512  0.8063
11974TIP3   OH257412   6.669   1.736  13.835  0.1796 -0.7712 -0.1216
11974TIP3    H157413   6.675   1.642  13.820 -1.6258 -1.1415  1.2191
11974TIP3    H257414   6.710   1.749  13.920  1.7749 -0.0821 -0.9502
11975TIP3   OH257415   3.422   3.494   5.573 -0.0685 -0.0675 -0.0354
11975TIP3    H157416   3.436   3.457   5.660 -0.3220  1.4428  0.6779
11975TIP3    H257417   3.334   3.531   5.577 -0.5438 -0.9649 -1.3251
11976TIP3   OH257418   5.120   6.276   0.541  0.0433  0.6594 -0.0639
11976TIP3    H157419   5.065   6.209   0.500  1.3267 -0.7000  0.3449
11976TIP3    H257420   5.190   6.226   0.583  1.3432  2.3071 -0.2019
11977TIP3   OH257421   5.543   1.376  13.218 -0.6049 -0.4040 -0.0607
11977TIP3    H157422   5.542   1.397  13.125  0.1706  0.4406  0.1155
11977TIP3    H257423   5.508   1.287  13.222 -2.0934  0.1025 -1.0012
11978TIP3   OH257424   5.373   3.217   3.687  0.4318  1.0008 -0.3827
11978TIP3    H157425   5.325   3.154   3.742  1.7645  1.0383  0.8903
11978TIP3    H257426   5.398   3.167   3.610 -0.0040  0.4573 -0.1800
11979TIP3   OH257427   2.673   3.694  11.219 -0.4222  0.3750  0.0282
11979TIP3    H157428   2.608   3.693  11.149 -0.0266  0.2628 -0.3418
11979TIP3    H257429   2.755   3.666  11.177 -0.1636  0.3801  0.5153
11980TIP3   OH257430   0.291   5.177  16.447 -0.0949  0.5018 -0.5999
11980TIP3    H157431   0.313   5.135  16.530  1.8197  1.4901 -0.5305
11980TIP3    H257432   0.199   5.201  16.455 -0.5964 -1.5040  0.2748
11981TIP3   OH257433   3.572   5.368  12.467  0.7819  0.7628  0.5752
11981TIP3    H157434   3.564   5.426  12.391  2.3340  2.7904  1.8498
11981TIP3    H257435   3.661   5.332  12.461 -0.5908 -2.8078 -0.9652
11982TIP3   OH257436   5.289   5.731  14.361  0.1511 -0.0300  0.3636
11982TIP3    H157437   5.227   5.693  14.424  0.6191 -0.8644  0.3250
11982TIP3    H257438   5.290   5.669  14.288  0.2235  0.5274 -0.1158
11983TIP3   OH257439   5.507   6.793   0.182 -0.1034 -0.0041  0.4574
11983TIP3    H157440   5.414   6.778   0.167  0.0031 -1.6663  1.2635
11983TIP3    H257441   5.515   6.806   0.276  0.6155 -1.1760  0.5803
11984TIP3   OH257442   4.552   2.941  11.025 -0.0241 -0.1117 -0.0119
11984TIP3    H157443   4.478   2.885  11.000 -0.0428  0.4186 -1.2042
11984TIP3    H257444   4.569   2.994  10.947  0.7255  0.7477  0.7230
11985TIP3   OH257445   4.931   5.207   5.171 -0.5847  0.0677  0.4064
11985TIP3    H157446   4.919   5.256   5.089 -1.4161  0.7240  0.9035
11985TIP3    H257447   5.025   5.213   5.189 -0.6058  1.0946  0.2208
11986TIP3   OH257448   4.728   5.098   4.879  0.0355 -0.1053 -0.2173
11986TIP3    H157449   4.819   5.127   4.875 -0.0737  0.4587  0.8711
11986TIP3    H257450   4.681   5.160   4.823  0.1300  0.4713  0.3263
11987TIP3   OH257451   4.299   6.072   2.552 -0.0932 -0.0107 -0.5898
11987TIP3    H157452   4.342   6.081   2.637 -1.5348  1.0431  0.0887
11987TIP3    H257453   4.237   6.145   2.550 -1.8043 -1.4138 -1.5068
11988TIP3   OH257454   2.543   1.457  12.630  0.0323 -0.7945 -0.3580
11988TIP3    H157455   2.633   1.428  12.617 -0.0433 -1.7318  1.0015
11988TIP3    H257456   2.491   1.377  12.630 -0.6482 -0.3641 -0.0100
11989TIP3   OH257457   6.411   0.510   1.801 -0.4850 -0.3357  0.1344
11989TIP3    H157458   6.433   0.482   1.712  1.2994  1.4304 -0.0540
11989TIP3    H257459   6.380   0.600   1.791 -2.6585 -0.9398  1.0736
11990TIP3   OH257460   0.517   5.490   4.006  0.1421  0.4469  0.6658
11990TIP3    H157461   0.538   5.584   4.002  0.8612  0.3709  1.9324
11990TIP3    H257462   0.467   5.473   3.927  1.4036  1.5608 -0.4245
11991TIP3   OH257463   0.819   3.692   6.643  0.6779 -0.2224  0.1770
11991TIP3    H157464   0.907   3.728   6.654  1.2374 -1.6528  0.6723
11991TIP3    H257465   0.833   3.597   6.643 -0.7988 -0.4525 -0.3905
11992TIP3   OH257466   2.712   6.749  13.993 -0.3030 -0.3867  0.1875
11992TIP3    H157467   2.761   6.687  14.047  0.0384 -1.2535 -1.0834
11992TIP3    H257468   2.623   6.714  13.991 -0.1661 -0.7072 -0.3345
11993TIP3   OH257469   2.723   4.185   4.480  0.5800 -0.0312  0.3823
11993TIP3    H157470   2.768   4.207   4.562  0.0683  0.2452  0.5929
11993TIP3    H257471   2.633   4.168   4.506  0.9744 -2.7352  0.2874
11994TIP3   OH257472   0.444   5.732  12.316 -0.5623  0.1889 -0.1019
11994TIP3    H157473   0.469   5.710  12.227  0.6742  2.6109 -0.4457
11994TIP3    H257474   0.505   5.682  12.371  2.6469  2.9704 -0.8500
11995TIP3   OH257475   0.247   1.560  11.083  0.5856 -0.0698  0.1068
11995TIP3    H157476   0.281   1.475  11.055  1.5037 -0.0276  1.0424
11995TIP3    H257477   0.229   1.606  11.001 -0.8870 -1.5149 -0.4287
11996TIP3   OH257478   4.457   0.109   0.206 -0.3505  0.0000  0.6407
11996TIP3    H157479   4.431   0.160   0.283  1.5886  1.4960  0.4148
11996TIP3    H257480   4.497   0.030   0.242 -3.8360 -1.7456  0.9941
11997TIP3   OH257481   3.723   6.383  16.534  0.2154 -0.2048 -0.0250
11997TIP3    H157482   3.671   6.457  16.505  0.7479 -0.2506 -1.1337
11997TIP3    H257483   3.797   6.380  16.473  0.7931 -0.9603  0.6926
11998TIP3   OH257484   1.206   0.400   6.395  0.1002 -0.5708 -0.1654
11998TIP3    H157485   1.237   0.309   6.395 -0.2746 -0.7172 -1.1709
11998TIP3    H257486   1.237   0.436   6.478  1.3232 -1.2509 -0.2969
11999TIP3   OH257487   1.394   3.414  16.946  0.1573 -0.0891  0.0876
11999TIP3    H157488   1.437   3.373  16.871  0.9108  1.0419 -0.1294
11999TIP3    H257489   1.418   3.360  17.021 -2.5570 -2.6610 -0.7260
12000TIP3   OH257490   1.456   6.159  13.187  0.0924 -0.0413  0.2462
12000TIP3    H157491   1.384   6.178  13.127  0.1873 -0.8491 -0.1469
12000TIP3    H257492   1.414   6.138  13.270 -0.2939 -2.2521 -0.4201
12001TIP3   OH257493   0.404   2.666   1.993  0.0893 -0.0401 -0.0943
12001TIP3    H157494   0.492   2.628   1.993 -1.0488 -2.9935 -0.5993
12001TIP3    H257495   0.374   2.657   2.083 -0.2089 -0.4768 -0.2304
12002TIP3   OH257496   0.336   1.198   6.038  0.5072 -0.1653 -0.6621
12002TIP3    H157497   0.384   1.258   5.981  0.8006 -1.6861 -2.0760
12002TIP3    H257498   0.373   1.112   6.019  0.0226 -0.8369  1.2296
12003TIP3   OH257499   4.550   3.215   2.039  0.2549  0.3095  0.2694
12003TIP3    H157500   4.577   3.305   2.020 -2.5389  0.9857 -1.0414
12003TIP3    H257501   4.494   3.223   2.117 -3.0822  0.4703 -1.9267
12004TIP3   OH257502   0.095   0.398   4.411 -0.6949  0.1747 -0.6311
12004TIP3    H157503   0.173   0.435   4.453  0.7279 -3.2002  0.0493
12004TIP3    H257504   0.030   0.393   4.481 -0.3254 -0.0793 -0.2990
12005TIP3   OH257505   0.846   4.834   1.699 -0.3150 -0.0114  0.1487
12005TIP3    H157506   0.806   4.921   1.700 -1.0710 -0.3248 -0.9700
12005TIP3    H257507   0.772   4.774   1.694  0.2368 -0.6526 -0.6985
12006TIP3   OH257508   5.863   2.137   2.376  0.5626 -0.5568  0.0780
12006TIP3    H157509   5.794   2.071   2.378 -0.1615  0.1859 -0.3171
12006TIP3    H257510   5.887   2.149   2.468 -2.1113  1.5151  0.6242
12007TIP3   OH257511   6.136   6.371   0.264 -0.3395  0.4466  0.7087
12007TIP3    H157512   6.146   6.452   0.214  0.8564 -0.6190 -0.8873
12007TIP3    H257513   6.090   6.398   0.343 -0.4517  2.5865  0.0009
12008TIP3   OH257514   2.521   5.956   1.704 -0.6968 -0.0014  0.7371
12008TIP3    H157515   2.437   6.000   1.713 -0.2698  1.0792 -0.3588
12008TIP3    H257516   2.559   5.961   1.792 -0.7045  1.7839  0.6823
12009TIP3   OH257517   1.327   2.635   5.017  0.1983  0.0878 -0.0214
12009TIP3    H157518   1.282   2.661   5.097  1.0076 -0.0189  0.4818
12009TIP3    H257519   1.318   2.539   5.014 -1.0628  0.2123 -0.8239
12010TIP3   OH257520   5.962   6.227  16.563 -0.2227  0.0164  0.1764
12010TIP3    H157521   5.996   6.144  16.598  0.5136  0.0255 -0.4931
12010TIP3    H257522   5.884   6.245  16.616 -0.4376 -1.1459  0.2877
12011TIP3   OH257523   5.412   4.095   1.824  0.3512 -0.5640  0.2430
12011TIP3    H157524   5.454   4.053   1.749  1.0119  0.1085  0.2267
12011TIP3    H257525   5.456   4.057   1.900  0.4388 -0.4445  0.2525
12012TIP3   OH257526   2.686   4.076   2.972 -0.3342  0.3862 -0.2551
12012TIP3    H157527   2.665   4.030   3.053 -0.2736 -0.3174 -0.6233
12012TIP3    H257528   2.718   4.161   2.999 -0.9701  0.4165  0.4332
12013TIP3   OH257529   0.308   3.439   6.623  0.3187  0.1382  0.1600
12013TIP3    H157530   0.262   3.522   6.637  0.5554  0.6463 -1.7864
12013TIP3    H257531   0.244   3.372   6.646 -0.0831  0.8396  1.1582
12014TIP3   OH257532   6.745   1.886   5.004 -0.4617  0.2471 -0.2395
12014TIP3    H157533   6.693   1.963   5.028 -1.7882 -1.1647  1.7481
12014TIP3    H257534   6.761   1.842   5.088 -0.4569 -2.0513 -1.3824
12015TIP3   OH257535   3.147   3.100   6.129 -0.2507 -0.0169  0.0170
12015TIP3    H157536   3.075   3.152   6.166 -0.5719  0.1951 -0.8671
12015TIP3    H257537   3.209   3.166   6.098 -0.3272 -0.1711 -0.4681
12016TIP3   OH257538   0.586   5.851   3.702  0.1080 -0.3467  0.5560
12016TIP3    H157539   0.625   5.764   3.708  1.8104  0.1749 -1.8051
12016TIP3    H257540   0.658   5.911   3.720 -0.6722  0.6277  0.5352
12017TIP3   OH257541   1.160   6.230   2.881  0.1177  0.3773 -0.1448
12017TIP3    H157542   1.230   6.174   2.847  0.4956  0.2881  0.7589
12017TIP3    H257543   1.080   6.195   2.842  0.4527 -0.2416 -0.2846
12018TIP3   OH257544   0.348   3.409   1.882  0.1489 -0.4162  0.2538
12018TIP3    H157545   0.299   3.487   1.909 -0.2932 -0.2247 -1.0398
12018TIP3    H257546   0.342   3.350   1.958 -2.2686 -0.4872  0.0948
12019TIP3   OH257547   3.712   0.496   0.960  0.3490 -0.2406 -0.2037
12019TIP3    H157548   3.674   0.534   1.039 -1.2605 -1.4794 -0.3350
12019TIP3    H257549   3.787   0.446   0.991  1.0376  1.0117  0.2409
12020TIP3   OH257550   5.449   1.922  15.727  0.0258 -0.2076 -0.0497
12020TIP3    H157551   5.520   1.873  15.685 -0.0943  0.5752 -1.2114
12020TIP3    H257552   5.422   1.867  15.801 -0.9853 -2.5120 -2.0140
12021TIP3   OH257553   1.432   5.922  15.660 -0.0864  0.0385 -0.1737
12021TIP3    H157554   1.377   5.974  15.602  0.2696  1.0049  0.3218
12021TIP3    H257555   1.486   5.987  15.706  1.1131 -0.8325 -0.2881
12022TIP3   OH257556   1.818   2.859   2.147  0.1570  0.2292 -0.4210
12022TIP3    H157557   1.766   2.921   2.198  0.4968  0.3973 -0.2826
12022TIP3    H257558   1.904   2.899   2.139  1.0860 -1.1910  1.5693
12023TIP3   OH257559   0.071   6.554   4.541 -0.1731 -0.0547  0.1570
12023TIP3    H157560   0.006   6.622   4.526 -1.2558 -1.2294 -0.7065
12023TIP3    H257561   0.153   6.602   4.556 -1.0533  1.4358  0.4084
12024TIP3   OH257562   6.468   1.725  12.587  0.0649  0.0126 -0.0662
12024TIP3    H157563   6.507   1.649  12.545 -0.6078 -1.0095  1.1220
12024TIP3    H257564   6.374   1.709  12.586 -0.2724  1.7534 -1.5476
12025TIP3   OH257565   6.541   2.134   4.542  0.3104 -0.2236 -0.0981
12025TIP3    H157566   6.499   2.119   4.457  0.8927 -1.1972 -0.2213
12025TIP3    H257567   6.555   2.046   4.577 -1.5509  0.1619  1.8231
12026TIP3   OH257568   1.784   1.134  14.367  0.3790 -0.4417  0.1416
12026TIP3    H157569   1.864   1.147  14.418  0.1458  0.8042  0.2056
12026TIP3    H257570   1.722   1.196  14.403 -0.2432 -0.5445 -0.7250
12027TIP3   OH257571   3.698   3.944  15.594 -0.2377 -0.5308 -0.1482
12027TIP3    H157572   3.760   3.881  15.556  2.2722 -0.3969  3.2245
12027TIP3    H257573   3.670   3.903  15.676 -0.6950  1.5353  0.7943
12028TIP3   OH257574   5.237   4.153   4.054  0.4204  0.9753 -0.0418
12028TIP3    H157575   5.266   4.220   3.992 -1.2525  1.1997 -0.6276
12028TIP3    H257576   5.161   4.192   4.098 -0.2798 -0.3438 -0.0405
12029TIP3   OH257577   3.095   1.217   3.972 -0.2169  0.4136 -0.0962
12029TIP3    H157578   3.020   1.179   3.926  0.2679  0.2578 -0.7757
12029TIP3    H257579   3.076   1.311   3.976 -1.8174  0.1056  2.3084
12030TIP3   OH257580   2.469   5.405  11.633  0.0594 -0.0960 -0.2604
12030TIP3    H157581   2.441   5.314  11.627 -0.8626  0.0587  1.1793
12030TIP3    H257582   2.558   5.401  11.669  0.1244 -0.4324 -0.4568
12031TIP3   OH257583   0.352   2.783   4.980 -0.3321  0.2326 -1.1029
12031TIP3    H157584   0.357   2.876   4.956 -0.4428  0.6058  0.2821
12031TIP3    H257585   0.439   2.749   4.958  0.0295  0.8907 -0.7380
12032TIP3   OH257586   0.350   6.376  14.770  0.3223  0.0858  0.0249
12032TIP3    H157587   0.319   6.430  14.843  0.0984  1.0872 -0.7805
12032TIP3    H257588   0.272   6.329  14.740  0.4946 -0.6117  0.6603
12033TIP3   OH257589   3.294   2.498  14.509  0.4072  0.0928  0.4089
12033TIP3    H157590   3.384   2.499  14.478  1.1662 -0.0369  2.4559
12033TIP3    H257591   3.276   2.405  14.525 -0.0319  0.1417  0.2157
12034TIP3   OH257592   0.010   3.588   1.919 -0.0916 -0.1299  0.2380
12034TIP3    H157593   0.102   3.581   1.944  0.1993 -1.2125 -1.0299
12034TIP3    H257594  -0.038   3.562   1.998  0.7493 -1.2776  0.4022
12035TIP3   OH257595   5.854   2.415   4.695 -0.1511 -0.1733  0.3215
12035TIP3    H157596   5.887   2.499   4.663 -1.2329  0.3352  0.4918
12035TIP3    H257597   5.830   2.367   4.616  1.2227 -0.6795  0.1725
12036TIP3   OH257598   6.222   2.460   2.111  0.4752  0.2340  0.5188
12036TIP3    H157599   6.181   2.399   2.173  0.1511  0.8571  0.9200
12036TIP3    H257600   6.205   2.421   2.025 -0.7903  0.3797  0.6876
12037TIP3   OH257601   4.311   4.108   4.180  0.4051  0.1264  0.2999
12037TIP3    H157602   4.230   4.112   4.230  0.6540 -0.4946  0.7731
12037TIP3    H257603   4.286   4.129   4.090 -0.1469  0.6890  0.5834
12038TIP3   OH257604   6.628   2.903   3.571 -0.9310  0.2773  0.5271
12038TIP3    H157605   6.647   2.984   3.618 -0.6545  0.3139  0.3575
12038TIP3    H257606   6.711   2.879   3.530 -1.4881  1.0682 -1.1942
12039TIP3   OH257607   4.205   4.325  14.769  0.2328 -0.1648  0.3098
12039TIP3    H157608   4.151   4.274  14.708  1.4233 -0.7596 -0.2883
12039TIP3    H257609   4.293   4.323  14.730  0.4491  1.7947  0.6205
12040TIP3   OH257610   1.216   5.114  11.605 -0.0114  0.0656 -0.2318
12040TIP3    H157611   1.191   5.027  11.637  0.9986 -0.2421 -0.2577
12040TIP3    H257612   1.211   5.169  11.683 -0.7932  0.0315 -0.2427
12041TIP3   OH257613   2.947   5.733  12.483 -0.7028 -0.3673 -0.1774
12041TIP3    H157614   2.905   5.793  12.544 -0.8316 -0.8783  0.2379
12041TIP3    H257615   3.021   5.783  12.448  0.8264 -0.8483  2.1741
12042TIP3   OH257616   3.465   2.990   0.727 -0.1793 -0.6439 -0.0516
12042TIP3    H157617   3.479   2.901   0.760  0.3601 -0.5413  0.0120
12042TIP3    H257618   3.523   2.996   0.651 -0.1972 -0.3363 -0.0400
12043TIP3   OH257619   4.775   0.559  12.973  0.3323 -0.2245  0.0889
12043TIP3    H157620   4.720   0.562  13.052  0.4372 -0.4996  0.1760
12043TIP3    H257621   4.857   0.600  13.000 -0.1620  1.0805 -0.3236
12044TIP3   OH257622   4.608   4.331   3.785 -0.4437 -0.2713 -0.1370
12044TIP3    H157623   4.606   4.303   3.876  0.1781 -1.9363 -0.5928
12044TIP3    H257624   4.528   4.296   3.747  0.5670 -1.9693 -0.8293
12045TIP3   OH257625   1.083   3.748  13.886  0.4294  0.0869 -0.2235
12045TIP3    H157626   1.087   3.776  13.977 -0.8845 -0.4734  0.0154
12045TIP3    H257627   1.152   3.682  13.878  0.1845 -0.2641  0.5105
12046TIP3   OH257628   2.806   2.996   1.385 -0.5100 -0.2679 -0.0629
12046TIP3    H157629   2.744   3.069   1.386  0.1175  0.2802 -0.4144
12046TIP3    H257630   2.800   2.960   1.297  1.0560  1.0143 -0.7350
12047TIP3   OH257631   1.308   5.288  11.178 -0.7450 -0.4723 -0.3282
12047TIP3    H157632   1.278   5.216  11.122 -1.0518 -1.1315  0.6637
12047TIP3    H257633   1.376   5.331  11.127 -1.1207 -0.9726 -1.2722
12048TIP3   OH257634   3.685   5.889  11.665 -0.0187 -0.2237  0.3611
12048TIP3    H157635   3.765   5.839  11.677 -0.0800 -0.3813  0.1059
12048TIP3    H257636   3.631   5.866  11.741  0.9653  1.4098  1.6410
12049TIP3   OH257637   6.808   5.030   2.918 -0.1629  0.4719 -0.1398
12049TIP3    H157638   6.749   5.044   2.844 -0.4930 -0.3551 -0.0450
12049TIP3    H257639   6.895   5.051   2.884 -0.1867 -0.8160 -1.0525
12050TIP3   OH257640   4.362   2.877  10.800  0.1890  0.2373  0.1473
12050TIP3    H157641   4.296   2.823  10.843 -1.1843  1.2222 -0.6466
12050TIP3    H257642   4.321   2.904  10.718  1.7278  0.5943 -0.5462
12051TIP3   OH257643   2.433   0.729   1.939 -0.4797 -0.0464 -0.4318
12051TIP3    H157644   2.484   0.676   1.877  0.9967  2.7935 -1.8517
12051TIP3    H257645   2.494   0.796   1.968 -2.1615  0.7237  1.5307
12052TIP3   OH257646   3.088   5.429   3.309 -0.0722  0.1595 -0.3623
12052TIP3    H157647   3.056   5.464   3.392  2.6232 -1.5172  1.5657
12052TIP3    H257648   3.049   5.485   3.243 -2.5072  1.4924  1.9832
12053TIP3   OH257649   6.735   6.690   5.447 -0.1808  0.0022  0.2591
12053TIP3    H157650   6.665   6.634   5.481 -1.0082  1.5335  1.1859
12053TIP3    H257651   6.803   6.628   5.418 -1.0222 -1.4652  1.2683
12054TIP3   OH257652   3.763   0.098  13.888 -0.4265 -0.2474  0.3808
12054TIP3    H157653   3.683   0.052  13.912 -0.1076 -2.5820 -2.4830
12054TIP3    H257654   3.739   0.148  13.809  1.0558 -1.6586 -1.0327
12055TIP3   OH257655   3.833   6.082  14.990  0.4136 -0.0870 -0.1787
12055TIP3    H157656   3.830   6.177  14.999  0.7712 -0.2029  1.8197
12055TIP3    H257657   3.768   6.050  15.053  1.4303 -1.1706  0.3718
12056TIP3   OH257658   5.306   6.746  12.671 -0.4424  0.6039  0.2737
12056TIP3    H157659   5.337   6.734  12.581  1.0623 -2.6148  1.0659
12056TIP3    H257660   5.358   6.819  12.705 -1.6517  2.4480 -1.6309
12057TIP3   OH257661   6.022   3.277  15.182  0.1902 -0.3172  0.5008
12057TIP3    H157662   6.058   3.331  15.111  0.6040 -1.1762  0.0500
12057TIP3    H257663   6.087   3.209  15.196 -0.6408 -1.1064  0.5948
12058TIP3   OH257664   6.596   0.397   3.601  0.5990 -0.2679 -0.2779
12058TIP3    H157665   6.514   0.376   3.556  0.3617  1.8259 -0.9397
12058TIP3    H257666   6.569   0.436   3.684  0.9718 -0.6946  0.0513
12059TIP3   OH257667   0.369   6.257   0.012  0.3600  0.2914 -0.8144
12059TIP3    H157668   0.281   6.283   0.040  1.2439  2.5876  0.0971
12059TIP3    H257669   0.363   6.253  -0.084 -0.4337  1.8086 -0.8576
12060TIP3   OH257670   4.995   3.760  16.773 -0.3443 -0.3439  0.1163
12060TIP3    H157671   5.004   3.712  16.855  1.5358  0.7429  0.6056
12060TIP3    H257672   4.913   3.728  16.736 -0.2487 -2.3147  1.4359
12061TIP3   OH257673   2.110   6.220  16.833 -0.3611 -0.3923  0.1294
12061TIP3    H157674   2.168   6.187  16.765  0.0246  1.0696 -0.2880
12061TIP3    H257675   2.040   6.266  16.786  0.3577  1.3479  0.6961
12062TIP3   OH257676   6.706   2.757   4.349  0.0722  0.0461  0.2736
12062TIP3    H157677   6.720   2.683   4.290 -0.0544  1.3527 -1.4709
12062TIP3    H257678   6.759   2.828   4.312  0.5548  0.7360  2.1543
12063TIP3   OH257679   2.893   1.025   3.933 -0.0389  0.2201 -0.5539
12063TIP3    H157680   2.952   0.959   3.897 -1.2051 -1.7375  0.9064
12063TIP3    H257681   2.805   0.993   3.913 -0.6765  0.3619  1.6986
12064TIP3   OH257682   4.026   2.705  14.436  0.7883  0.6923 -0.3388
12064TIP3    H157683   4.064   2.622  14.408  1.1163  0.9360 -0.6255
12064TIP3    H257684   4.036   2.763  14.361  0.6277  1.0119 -0.1157
12065TIP3   OH257685   4.946   5.559   4.164  0.3396 -0.0765  0.8176
12065TIP3    H157686   5.039   5.572   4.148  0.0549  1.6181  0.2913
12065TIP3    H257687   4.917   5.500   4.095  0.6086  1.1734 -0.4048
12066TIP3   OH257688   6.673   0.109   3.964 -0.3386  0.0400 -0.7202
12066TIP3    H157689   6.708   0.139   3.881 -1.5417 -1.2237 -1.7301
12066TIP3    H257690   6.585   0.078   3.944 -2.3929  3.4786  1.7440
12067TIP3   OH257691   3.797   2.643  12.712 -0.4699 -0.1690  0.2800
12067TIP3    H157692   3.780   2.621  12.620  1.1495  0.6305 -0.2282
12067TIP3    H257693   3.828   2.561  12.750 -1.3746 -0.5673  0.1973
12068TIP3   OH257694   0.254   2.844   4.042 -0.6140  0.2109  0.7337
12068TIP3    H157695   0.321   2.859   3.976 -0.2495  1.3989  1.3296
12068TIP3    H257696   0.179   2.810   3.994 -0.0116  0.0843 -0.1263
12069TIP3   OH257697   5.405   2.689  15.557  0.1785  0.5142 -0.1930
12069TIP3    H157698   5.361   2.694  15.473 -1.0196  2.6422  0.4919
12069TIP3    H257699   5.480   2.630  15.542 -1.0704 -0.6554 -2.1983
12070TIP3   OH257700   0.619   1.787  13.037  0.1583 -0.5246 -0.7129
12070TIP3    H157701   0.701   1.768  13.082 -0.7679 -0.2654  1.2123
12070TIP3    H257702   0.579   1.857  13.089 -1.3931 -0.8220 -1.4518
12071TIP3   OH257703   2.720   6.752  13.415  0.4556  0.1416  0.0539
12071TIP3    H157704   2.728   6.844  13.387  0.5805  0.0836 -0.1091
12071TIP3    H257705   2.628   6.741  13.435  0.4983  0.3961  0.4063
12072TIP3   OH257706   0.780   0.193   4.604 -0.1038  0.2676  0.3832
12072TIP3    H157707   0.689   0.164   4.606  0.4533 -1.6000  0.8829
12072TIP3    H257708   0.815   0.169   4.690  1.1677 -0.1573 -0.2220
12073TIP3   OH257709   0.549   3.148   0.123  0.5456 -0.4008 -0.4003
12073TIP3    H157710   0.578   3.065   0.162 -0.8744 -1.2621 -1.1032
12073TIP3    H257711   0.477   3.177   0.180 -0.8247 -1.1195 -1.6935
12074TIP3   OH257712   1.439   5.048   2.187 -0.4764 -0.0475  0.9709
12074TIP3    H157713   1.510   5.091   2.140 -0.2265  1.7561  2.8557
12074TIP3    H257714   1.370   5.036   2.122  0.7197  0.1662 -0.3734
12075TIP3   OH257715   3.281   5.683  12.670  0.4218  0.5566 -0.3101
12075TIP3    H157716   3.339   5.618  12.708  1.0912  1.5618  0.4264
12075TIP3    H257717   3.204   5.684  12.727 -0.2477 -0.5850 -1.1383
12076TIP3   OH257718   2.611   3.316  14.048 -0.5071  0.2484  0.1837
12076TIP3    H157719   2.702   3.329  14.073 -0.2162 -1.5368  0.1665
12076TIP3    H257720   2.593   3.224  14.068 -2.3109  0.5670  0.1907
12077TIP3   OH257721   6.657   0.348   5.500  0.1493  0.1585  0.0912
12077TIP3    H157722   6.619   0.273   5.455 -1.5443  0.8031  0.3529
12077TIP3    H257723   6.720   0.311   5.561 -0.6468 -1.0627  0.2085
12078TIP3   OH257724   3.355   2.286   1.484  0.1954  0.4181  0.0377
12078TIP3    H157725   3.433   2.333   1.457 -0.5116  2.7396  1.7294
12078TIP3    H257726   3.378   2.250   1.570  0.0051 -0.5161 -0.2915
12079TIP3   OH257727   6.618   0.673   0.293 -0.3403  0.3369 -0.4772
12079TIP3    H157728   6.623   0.598   0.234 -0.2978 -0.2061  0.2078
12079TIP3    H257729   6.538   0.718   0.267 -1.4472 -1.0405  0.3527
12080TIP3   OH257730   5.797   4.465   3.595 -0.7740 -0.0048  0.5232
12080TIP3    H157731   5.742   4.434   3.522 -1.1211 -0.3454  0.9232
12080TIP3    H257732   5.885   4.473   3.557 -0.6692 -1.4988  0.3885
12081TIP3   OH257733   4.587   2.145   5.593 -0.7218  0.9704  0.0351
12081TIP3    H157734   4.624   2.152   5.681 -0.9500  1.1763  0.1171
12081TIP3    H257735   4.648   2.089   5.546 -0.3735  1.1996  0.2050
12082TIP3   OH257736   5.263   3.803   3.064 -0.1408 -0.4048 -0.3936
12082TIP3    H157737   5.352   3.837   3.074 -0.0844 -0.6494 -0.0064
12082TIP3    H257738   5.248   3.754   3.145 -0.8869  0.2272 -0.1414
12083TIP3   OH257739   2.034   0.500   5.991  0.1902  0.4273 -0.7391
12083TIP3    H157740   2.005   0.533   6.076  0.5018 -1.8978  0.3616
12083TIP3    H257741   2.033   0.405   6.002  1.8456  0.1173 -2.8224
12084TIP3   OH257742   1.367   5.706  10.468 -0.2665  0.5059 -0.4023
12084TIP3    H157743   1.444   5.732  10.518 -0.4762  2.2366 -0.9158
12084TIP3    H257744   1.319   5.788  10.454 -1.2336 -0.2503 -1.7187
12085TIP3   OH257745   5.521   4.034  16.315  0.2083 -0.1598 -0.3877
12085TIP3    H157746   5.566   3.951  16.328  1.2136  0.4388  0.0568
12085TIP3    H257747   5.435   4.022  16.355  0.4370 -0.8980 -0.1199
12086TIP3   OH257748   4.197   4.577   5.807  0.4347  1.2817 -0.1661
12086TIP3    H157749   4.106   4.550   5.799  0.6655 -0.7149  2.5401
12086TIP3    H257750   4.195   4.655   5.863  0.4583 -0.1921  1.9863
12087TIP3   OH257751   5.221   6.813   1.497 -0.4682 -0.2369 -0.4198
12087TIP3    H157752   5.133   6.778   1.483 -0.2464 -0.5884 -0.9701
12087TIP3    H257753   5.224   6.894   1.446 -0.8385  0.3726  0.5061
12088TIP3   OH257754   2.773   5.699   6.242  0.5755  0.0010 -0.4408
12088TIP3    H157755   2.814   5.613   6.255  1.1083  0.1170 -1.2766
12088TIP3    H257756   2.707   5.684   6.175  0.7668  0.2774 -0.6893
12089TIP3   OH257757   4.235   0.482   3.818  0.0370  0.6034  0.0559
12089TIP3    H157758   4.194   0.484   3.904  1.4780  0.6583  0.7794
12089TIP3    H257759   4.169   0.445   3.760 -1.2167  1.2363  1.0294
12090TIP3   OH257760   6.237   2.982   5.817  0.3186  0.0258 -0.3928
12090TIP3    H157761   6.145   2.965   5.840  0.7202 -1.1942  0.4641
12090TIP3    H257762   6.267   2.901   5.776  2.2760 -1.6163  3.6610
12091TIP3   OH257763   1.731   1.872   0.354 -0.0820 -0.4410 -0.6185
12091TIP3    H157764   1.680   1.953   0.346  1.7499  0.7435 -0.7415
12091TIP3    H257765   1.692   1.826   0.429  0.1181  1.5293  0.7598
12092TIP3   OH257766   6.627   6.569  14.003  1.0055 -0.5107  0.4516
12092TIP3    H157767   6.649   6.656  14.036  1.6213 -1.5212  2.9224
12092TIP3    H257768   6.688   6.554  13.931 -1.9635  2.7559 -3.1263
12093TIP3   OH257769   2.692   4.759  11.416  0.2685  0.4164  0.3942
12093TIP3    H157770   2.702   4.789  11.507 -0.0116 -1.2219  1.0031
12093TIP3    H257771   2.624   4.692  11.420  1.6457 -1.1356 -0.6565
12094TIP3   OH257772   0.583   1.903   5.702  0.6017  0.3425  0.0465
12094TIP3    H157773   0.554   1.819   5.666 -0.5722 -0.1568  2.0171
12094TIP3    H257774   0.532   1.914   5.782 -0.8593  3.9451 -1.1552
12095TIP3   OH257775   1.772   6.488   4.865  0.1604 -0.5988  0.5005
12095TIP3    H157776   1.702   6.538   4.822  1.4205  0.7663 -0.0634
12095TIP3    H257777   1.727   6.431   4.927 -1.4626  0.0315 -0.0531
12096TIP3   OH257778   2.177   4.563  16.097  0.1759 -0.0908 -0.1178
12096TIP3    H157779   2.190   4.600  16.184  0.6075  1.0281 -0.6320
12096TIP3    H257780   2.200   4.634  16.037  1.3171 -1.2650 -1.1649
12097TIP3   OH257781   1.865   5.503  14.718  0.2772  0.0530  0.4321
12097TIP3    H157782   1.869   5.426  14.660 -0.6988  0.6697 -0.4938
12097TIP3    H257783   1.796   5.558  14.680 -0.6191  0.3478  2.3654
12098TIP3   OH257784   4.852   1.875   1.135 -0.4527 -0.5318  0.1688
12098TIP3    H157785   4.796   1.835   1.201 -0.5027  2.0726  1.8416
12098TIP3    H257786   4.925   1.912   1.185 -0.6647  1.8362 -1.1527
12099TIP3   OH257787   6.465   0.918  14.293  0.2403  0.6470  0.0356
12099TIP3    H157788   6.453   0.834  14.337 -1.9836  0.7586 -0.2158
12099TIP3    H257789   6.434   0.983  14.357 -0.6543  1.0135 -0.7435
12100TIP3   OH257790   6.015   2.612  15.138  0.8533 -0.1122  0.2822
12100TIP3    H157791   5.982   2.543  15.080  1.7093  0.0604 -0.4341
12100TIP3    H257792   6.101   2.581  15.166  0.4376 -0.2022  1.5067
12101TIP3   OH257793   3.404   4.905  10.869 -0.0265 -0.2874  0.0993
12101TIP3    H157794   3.464   4.944  10.932 -0.3694  0.0067  0.2470
12101TIP3    H257795   3.455   4.897  10.788  0.5016 -0.9219  0.4816
12102TIP3   OH257796   1.124   6.238  16.061 -0.2371  0.2835 -0.7706
12102TIP3    H157797   1.033   6.264  16.050  0.3148  1.3883 -3.4838
12102TIP3    H257798   1.164   6.310  16.110  0.0560  2.0667 -3.4348
12103TIP3   OH257799   0.617   4.790   1.148  0.0505 -0.3681  0.3834
12103TIP3    H157800   0.579   4.732   1.082  2.5995  0.4784 -2.0288
12103TIP3    H257801   0.591   4.878   1.120 -0.7839 -0.0838  1.9373
12104TIP3   OH257802   4.612   5.831  13.238  0.3333  0.1946 -0.4756
12104TIP3    H157803   4.545   5.768  13.209 -0.1982  0.4120  0.2595
12104TIP3    H257804   4.665   5.782  13.301  0.6553  0.1312 -0.7916
12105TIP3   OH257805   2.401   0.476  16.921 -0.0200 -0.1498 -0.6720
12105TIP3    H157806   2.371   0.414  16.988 -0.2390  1.5898  0.9269
12105TIP3    H257807   2.412   0.423  16.842  0.0818 -2.2504  0.6858
12106TIP3   OH257808   4.872   2.911   4.285  0.0969  0.2297 -0.0060
12106TIP3    H157809   4.930   2.978   4.249  1.4785 -0.8100  0.2265
12106TIP3    H257810   4.870   2.842   4.219 -0.2439 -0.0990  0.3375
12107TIP3   OH257811   6.505   4.688   2.777  0.1498  0.2925 -0.3296
12107TIP3    H157812   6.576   4.703   2.840  1.3941 -0.6819 -1.4324
12107TIP3    H257813   6.426   4.686   2.830  1.2294 -1.2440  1.3318
12108TIP3   OH257814   3.221   4.917   0.660  0.0013  0.4434 -0.6693
12108TIP3    H157815   3.188   4.834   0.627 -1.3039  1.2230 -1.3910
12108TIP3    H257816   3.256   4.896   0.747 -0.9976 -0.7223 -0.5233
12109TIP3   OH257817   3.550   2.681   4.196 -0.4390 -0.5994 -0.1097
12109TIP3    H157818   3.616   2.715   4.256 -0.2368  0.8079 -1.0573
12109TIP3    H257819   3.570   2.588   4.187  1.6850 -0.1473 -0.6671
12110TIP3   OH257820   1.916   6.321  15.170 -0.0756 -0.3600 -0.0779
12110TIP3    H157821   1.868   6.395  15.134  1.0101 -0.1910 -1.2663
12110TIP3    H257822   1.890   6.246  15.117  0.6859 -0.3307 -0.5128
12111TIP3   OH257823   1.407   0.633   0.728  0.1395 -0.3026 -0.1474
12111TIP3    H157824   1.334   0.691   0.749 -0.1592 -0.8271  0.2832
12111TIP3    H257825   1.484   0.676   0.766 -0.3413 -1.0803  1.8179
12112TIP3   OH257826   4.562   3.398  11.281 -0.0455  0.2466 -0.3303
12112TIP3    H157827   4.651   3.366  11.295 -0.4015 -0.2809  0.8840
12112TIP3    H257828   4.539   3.366  11.193  0.3163 -1.2098  0.0694
12113TIP3   OH257829   6.505   1.766   2.007  0.0321  0.0941 -0.1016
12113TIP3    H157830   6.476   1.828   2.075  0.5518 -0.8358  1.0098
12113TIP3    H257831   6.586   1.729   2.042  1.0531  0.5483 -1.8582
12114TIP3   OH257832   2.495   2.189  15.342  0.2472 -0.1364 -0.1747
12114TIP3    H157833   2.432   2.144  15.397 -0.8925  1.9955  0.3818
12114TIP3    H257834   2.577   2.187  15.391 -0.5198  0.9098  1.2066
12115TIP3   OH257835   3.461   1.354   1.717  0.0672 -0.0091  0.0579
12115TIP3    H157836   3.429   1.361   1.628  2.8673  4.1468 -0.8878
12115TIP3    H257837   3.400   1.407   1.769  1.1883  1.8576 -0.4352
12116TIP3   OH257838   2.531   6.320  15.425 -0.0400  0.3685  0.5434
12116TIP3    H157839   2.574   6.382  15.366 -1.5789  0.6923 -0.3185
12116TIP3    H257840   2.508   6.246  15.369 -0.5311  0.1862  0.9804
12117TIP3   OH257841   3.636   0.171  16.973  0.3567  0.3883 -0.0418
12117TIP3    H157842   3.586   0.112  17.030  1.6357 -1.6913 -0.9486
12117TIP3    H257843   3.632   0.130  16.887  2.4894  0.7970 -0.4042
12118TIP3   OH257844   4.150   4.814   5.935  0.0283 -0.0390 -0.3182
12118TIP3    H157845   4.067   4.800   5.980  0.0327  1.2534  0.1201
12118TIP3    H257846   4.216   4.806   6.004  0.5668 -3.4801 -1.0306
12119TIP3   OH257847   3.425   4.805  14.262  0.2380  0.1207  0.1064
12119TIP3    H157848   3.440   4.866  14.335 -2.3589 -1.3935  2.0517
12119TIP3    H257849   3.393   4.861  14.191  1.7518  1.4753  0.4059
12120TIP3   OH257850   3.326   4.774   3.717 -0.1259 -0.6714 -0.3106
12120TIP3    H157851   3.263   4.846   3.715  0.6140 -0.0116 -1.8300
12120TIP3    H257852   3.364   4.778   3.805 -3.1199 -1.9928  1.1988
12121TIP3   OH257853   0.190   6.497   3.468  0.0845 -0.0727  0.4894
12121TIP3    H157854   0.141   6.435   3.413  0.6285  0.4344 -0.5984
12121TIP3    H257855   0.273   6.510   3.421 -0.6185  2.6913 -0.1589
12122TIP3   OH257856   1.090   0.863  13.369 -0.0204  0.0273  0.2393
12122TIP3    H157857   1.156   0.799  13.395  1.0390  0.7763 -0.5040
12122TIP3    H257858   1.007   0.826  13.399  0.4257 -2.1087 -0.9539
12123TIP3   OH257859   5.682   0.720  12.834 -0.0494 -0.4687 -0.7097
12123TIP3    H157860   5.609   0.768  12.875 -0.1574 -0.8412 -0.4634
12123TIP3    H257861   5.738   0.789  12.799 -1.3176 -0.1865 -2.3046
12124TIP3   OH257862   4.750   2.535  17.132  0.3082  0.4190 -0.6320
12124TIP3    H157863   4.777   2.609  17.187  1.4252  0.2543 -0.9405
12124TIP3    H257864   4.769   2.563  17.043 -2.5352  1.1402 -1.1298
12125TIP3   OH257865   0.599   4.478  11.415 -0.6099 -0.2273 -0.0762
12125TIP3    H157866   0.503   4.485  11.421 -0.4295  2.3300  1.0520
12125TIP3    H257867   0.614   4.446  11.326 -2.4959 -0.2940 -0.4265
12126TIP3   OH257868   5.637   4.671  14.287  0.7832 -0.7137 -0.2394
12126TIP3    H157869   5.717   4.723  14.288  0.1053  0.3960 -0.5841
12126TIP3    H257870   5.657   4.595  14.232  1.3425  0.0023 -1.0527
12127TIP3   OH257871   6.596   4.330   0.526 -0.1792 -1.2039  0.2883
12127TIP3    H157872   6.529   4.366   0.584 -1.5525 -0.3414 -1.7087
12127TIP3    H257873   6.668   4.307   0.584 -0.9941  0.6820  2.1952
12128TIP3   OH257874   1.072   4.120  11.956 -0.8580 -0.0691 -0.1870
12128TIP3    H157875   1.008   4.116  11.885 -2.0953  1.1376  0.8192
12128TIP3    H257876   1.110   4.208  11.949 -1.6510  0.4063  1.1720
12129TIP3   OH257877   6.005   0.553  13.055  0.1215 -0.4226  0.0396
12129TIP3    H157878   6.094   0.543  13.087 -0.3111  0.1120  1.5095
12129TIP3    H257879   5.988   0.647  13.058 -0.7649 -0.5846  0.5962
12130TIP3   OH257880   6.127   0.594  12.768 -0.1782 -0.0015 -0.3234
12130TIP3    H157881   6.061   0.543  12.815 -2.0214  1.5034 -1.1372
12130TIP3    H257882   6.132   0.554  12.682  1.2560 -1.1407  0.2592
12131TIP3   OH257883   4.958   6.572   0.880  0.5534  0.8737  0.6864
12131TIP3    H157884   4.880   6.570   0.936  0.0822 -0.6022  0.0258
12131TIP3    H257885   4.959   6.486   0.837  1.2305  1.7448 -1.1237
12132TIP3   OH257886   1.387   6.402   3.400 -0.0746 -0.1956  0.0796
12132TIP3    H157887   1.428   6.319   3.376  0.5124  0.0918  0.0658
12132TIP3    H257888   1.294   6.389   3.383  0.1408 -0.5033 -0.9389
12133TIP3   OH257889   2.286   4.258  13.928 -0.1559 -0.8162  0.0360
12133TIP3    H157890   2.328   4.332  13.885  2.1756 -1.1310  1.5267
12133TIP3    H257891   2.246   4.295  14.007  0.4531 -1.0177  0.4498
12134TIP3   OH257892   6.601   5.786  13.376 -0.6368 -0.3219  0.0004
12134TIP3    H157893   6.590   5.880  13.359 -1.3592 -0.4852 -0.4845
12134TIP3    H257894   6.682   5.781  13.427 -1.0670  0.6476  0.8340
12135TIP3   OH257895   0.592   1.885   6.413  0.5317 -0.0249  0.2743
12135TIP3    H157896   0.647   1.960   6.435  2.3529 -0.9828 -0.8344
12135TIP3    H257897   0.579   1.839   6.496  0.7198  0.6416  0.6833
12136TIP3   OH257898   0.177   5.796  15.744 -0.5459  0.2422 -0.2481
12136TIP3    H157899   0.086   5.772  15.762  0.1559 -1.2771  1.5815
12136TIP3    H257900   0.212   5.723  15.692  0.4720 -0.8861  1.8731
12137TIP3   OH257901   5.799   6.662   6.232  0.2005 -0.4041  0.1769
12137TIP3    H157902   5.833   6.669   6.321 -0.8532 -1.7933  0.7219
12137TIP3    H257903   5.779   6.569   6.221  0.3033 -0.2631 -1.5220
12138TIP3   OH257904   6.758   6.629  16.492 -0.4014 -0.0173 -0.1180
12138TIP3    H157905   6.737   6.704  16.437 -1.6553  0.7457  1.3017
12138TIP3    H257906   6.675   6.581  16.499 -0.1188 -0.4179  0.6045
12139TIP3   OH257907   2.882   3.799  12.786  0.2778  0.5023  0.1978
12139TIP3    H157908   2.934   3.751  12.723  1.4493  1.7717  0.1560
12139TIP3    H257909   2.844   3.872  12.736 -1.2255 -0.1502  0.3212
12140TIP3   OH257910   2.440   2.486   4.426 -0.4678  0.0009  0.8297
12140TIP3    H157911   2.464   2.515   4.514 -0.1724  1.3389  0.3328
12140TIP3    H257912   2.424   2.567   4.377 -1.9379 -0.7414  0.0031
12141TIP3   OH257913   3.637   3.832   0.410 -1.3665 -0.5293  0.7801
12141TIP3    H157914   3.714   3.822   0.355 -1.1995 -0.5350  1.0138
12141TIP3    H257915   3.619   3.926   0.410 -0.7617 -0.4022  1.5298
12142TIP3   OH257916   4.614   3.136   1.148  0.0560 -0.3129 -0.0608
12142TIP3    H157917   4.592   3.044   1.160 -2.4379 -0.0686 -1.9933
12142TIP3    H257918   4.709   3.136   1.133  0.4276 -2.2983  1.8431
12143TIP3   OH257919   5.685   0.874  15.862 -0.0574 -0.0876  0.3483
12143TIP3    H157920   5.653   0.944  15.919  0.4705 -0.7848  1.5333
12143TIP3    H257921   5.780   0.875  15.874 -0.0386 -0.9713  0.3372
12144TIP3   OH257922   6.074   0.351  15.462  0.6913  0.5939 -0.1215
12144TIP3    H157923   5.984   0.367  15.433  0.2090 -0.6489  0.5872
12144TIP3    H257924   6.125   0.419  15.420 -0.6933  1.7904  0.0511
12145TIP3   OH257925   2.376   3.585   3.234  0.5000 -0.1843  0.2190
12145TIP3    H157926   2.460   3.622   3.262 -0.5738  2.3792  0.4023
12145TIP3    H257927   2.384   3.576   3.139  1.1319 -0.3154  0.2867
12146TIP3   OH257928   3.046   0.758  12.685  0.2923 -0.1124 -0.4359
12146TIP3    H157929   3.003   0.833  12.725 -1.4138 -0.4231 -1.5666
12146TIP3    H257930   3.100   0.721  12.755  0.7001  1.7751  0.3045
12147TIP3   OH257931   6.643   5.302  13.372 -0.6849  0.1699  0.2786
12147TIP3    H157932   6.653   5.316  13.278 -1.9702  0.1475  0.1207
12147TIP3    H257933   6.727   5.331  13.410 -0.8413  2.0227 -0.6791
12148TIP3   OH257934   3.510   6.051  16.045 -0.6313  0.2343  0.2759
12148TIP3    H157935   3.504   6.146  16.047  2.6560  0.7137 -2.5258
12148TIP3    H257936   3.441   6.023  15.984 -2.2578  0.6302  1.8671
12149TIP3   OH257937   3.172   0.170  14.733 -0.1730 -0.3452 -0.7280
12149TIP3    H157938   3.119   0.090  14.737 -1.0876  0.2788  0.2086
12149TIP3    H257939   3.194   0.179  14.640  2.0248 -2.9541 -0.5956
12150TIP3   OH257940   4.136   2.217  10.413  0.2878  0.0814  0.4794
12150TIP3    H157941   4.090   2.201  10.496 -0.0843  0.3011  0.3220
12150TIP3    H257942   4.082   2.173  10.347  0.5483 -0.0385  0.3474
12151TIP3   OH257943   5.196   4.709  12.130 -0.0935 -0.5226 -0.0411
12151TIP3    H157944   5.119   4.652  12.123  0.5538 -1.3650 -0.5769
12151TIP3    H257945   5.238   4.704  12.044 -0.1487  0.9795 -0.1854
12152TIP3   OH257946   5.245   2.865  16.584 -0.0671  0.4685  0.2077
12152TIP3    H157947   5.223   2.938  16.528  0.7950  1.6046  1.2831
12152TIP3    H257948   5.325   2.828  16.545 -1.2327 -0.8082 -1.1052
12153TIP3   OH257949   3.215   6.282  15.336 -0.0281 -0.7246  0.1880
12153TIP3    H157950   3.246   6.208  15.285 -1.6558 -0.1599 -1.7352
12153TIP3    H257951   3.121   6.266  15.347 -0.0810  0.1900  1.2910
12154TIP3   OH257952   2.635   0.059  13.104  0.3196 -0.1662  0.1196
12154TIP3    H157953   2.715   0.076  13.155  0.6235 -0.0777 -0.3820
12154TIP3    H257954   2.660  -0.008  13.041 -0.3978 -1.1901  0.8932
12155TIP3   OH257955   5.252   2.820  11.268 -0.0363  0.1932 -0.2032
12155TIP3    H157956   5.203   2.828  11.186  2.7001 -1.1009 -2.1058
12155TIP3    H257957   5.240   2.729  11.296 -1.5841  0.8123  1.3678
12156TIP3   OH257958   6.304   5.917  13.509  0.0195  0.3099 -0.4249
12156TIP3    H157959   6.360   5.960  13.444 -1.1759  0.4246 -1.4200
12156TIP3    H257960   6.299   5.826  13.481  1.8547 -0.3857  1.2059
12157TIP3   OH257961   1.815   0.798   2.544  0.2146  0.1923  0.4680
12157TIP3    H157962   1.752   0.805   2.615 -1.5276 -1.4545 -0.8269
12157TIP3    H257963   1.861   0.716   2.559 -0.2156 -0.2025 -0.3423
12158TIP3   OH257964   0.974   3.312   3.644 -0.5944 -0.1368 -0.5724
12158TIP3    H157965   0.914   3.309   3.719 -0.1564 -2.4272 -0.2507
12158TIP3    H257966   0.927   3.268   3.573  0.3816 -1.3175 -0.5239
12159TIP3   OH257967   1.835   5.190  13.159  0.3083 -0.3970 -0.4191
12159TIP3    H157968   1.880   5.236  13.088 -1.2698  2.2283  0.0952
12159TIP3    H257969   1.743   5.187  13.131  0.0586 -1.6047  0.4360
12160TIP3   OH257970   1.581   3.327  11.802 -0.4391 -0.1519  0.0978
12160TIP3    H157971   1.488   3.342  11.821 -0.3739 -0.7418  0.9355
12160TIP3    H257972   1.594   3.366  11.715 -1.1029  1.3535  0.6320
12161TIP3   OH257973   5.764   5.188   5.562 -0.2232  0.3143  0.3458
12161TIP3    H157974   5.748   5.129   5.488 -1.0180  0.7128  0.1885
12161TIP3    H257975   5.846   5.156   5.600 -0.8702 -1.1889  0.5516
12162TIP3   OH257976   5.140   1.615  13.532  0.3277  0.4070  0.4478
12162TIP3    H157977   5.046   1.625  13.545  0.1266 -0.2199 -0.4441
12162TIP3    H257978   5.166   1.691  13.480  0.6336  1.4439  2.0377
12163TIP3   OH257979   6.135   5.601   3.488 -0.0774  0.2806  0.0837
12163TIP3    H157980   6.173   5.574   3.572 -0.5523  1.5601  0.7366
12163TIP3    H257981   6.107   5.519   3.447  1.3507 -0.4972  0.5669
12164TIP3   OH257982   0.090   4.668  12.959  0.1533  0.5896 -0.0563
12164TIP3    H157983   0.004   4.683  12.997 -1.4960 -1.8940 -2.4667
12164TIP3    H257984   0.083   4.699  12.868  2.0324  0.8815 -0.1626
12165TIP3   OH257985   2.485   6.249   0.564 -0.3603  0.1142 -0.5539
12165TIP3    H157986   2.447   6.222   0.647 -1.7955 -0.7124 -1.4378
12165TIP3    H257987   2.576   6.271   0.585 -1.0690  1.3711  1.4902
12166TIP3   OH257988   5.114   2.714  12.829  0.2359  0.1130 -0.1678
12166TIP3    H157989   5.106   2.789  12.770  1.5472  2.0855  1.9957
12166TIP3    H257990   5.024   2.683  12.840 -0.0645 -0.2988 -3.0485
12167TIP3   OH257991   0.659   6.745  15.262  0.0160  0.4323 -0.3095
12167TIP3    H157992   0.730   6.770  15.203 -0.3879 -0.5926 -1.2598
12167TIP3    H257993   0.611   6.826  15.278  0.9722  0.9937 -0.2193
12168TIP3   OH257994   6.457   4.256   1.342 -0.4054 -0.7164 -0.4918
12168TIP3    H157995   6.400   4.300   1.280 -0.2756  0.3237  0.1157
12168TIP3    H257996   6.472   4.170   1.303 -3.0731 -1.3779 -0.2554
12169TIP3   OH257997   6.025   2.055  15.697  0.4005  0.1431  0.1387
12169TIP3    H157998   5.998   2.034  15.607 -3.5317  1.5116  0.8073
12169TIP3    H257999   5.971   1.998  15.751  1.4632  0.5627  1.6935
12170TIP3   OH258000   3.293   5.970   2.556  0.1338 -0.3301 -0.1689
12170TIP3    H158001   3.291   6.011   2.470  0.4693  0.1042  0.0252
12170TIP3    H258002   3.310   6.042   2.617  1.0977 -0.8054  0.1454
12171TIP3   OH258003   6.431   2.625   0.469  0.0537 -0.7256  0.5527
12171TIP3    H158004   6.352   2.570   0.467  1.8632 -3.5072  0.3584
12171TIP3    H258005   6.458   2.632   0.378  0.0725  0.1983  0.6222
12172TIP3   OH258006   4.953   0.834  15.579  0.5279  0.1480 -0.0404
12172TIP3    H158007   4.859   0.825  15.564  0.5289  1.2649 -0.8487
12172TIP3    H258008   4.983   0.745  15.597 -0.4537 -0.4538 -1.1924
12173TIP3   OH258009   2.981   1.601   3.336 -0.2322  0.0867 -0.7451
12173TIP3    H158010   2.945   1.565   3.417  0.7767  2.9742  1.1310
12173TIP3    H258011   3.076   1.590   3.345 -0.0899  0.6821 -1.4138
12174TIP3   OH258012   1.488   5.681   3.384 -0.6069 -0.3336 -0.9019
12174TIP3    H158013   1.415   5.644   3.334 -1.3474  1.7909 -1.5077
12174TIP3    H258014   1.541   5.727   3.319 -0.7733  1.2237 -0.0000
12175TIP3   OH258015   4.222   6.589   4.332 -0.1454 -0.1473  0.1335
12175TIP3    H158016   4.203   6.535   4.255 -2.2743  0.9200 -0.1492
12175TIP3    H258017   4.310   6.623   4.316 -0.1955 -0.6672 -1.3966
12176TIP3   OH258018   2.533   3.756   5.807  0.5039 -0.3377  0.4334
12176TIP3    H158019   2.493   3.794   5.886 -2.8494  0.1264 -1.3217
12176TIP3    H258020   2.489   3.672   5.796  2.4732 -1.3809  0.1320
12177TIP3   OH258021   5.308   5.522   0.724 -0.4411 -0.2945  0.5665
12177TIP3    H158022   5.323   5.427   0.720 -0.3829 -0.2414 -0.5807
12177TIP3    H258023   5.337   5.546   0.812  0.8272 -1.1264  0.4047
12178TIP3   OH258024   1.007   3.705   1.609  0.1009  0.3985 -0.3916
12178TIP3    H158025   1.030   3.735   1.697  0.0849  0.5080 -0.4245
12178TIP3    H258026   0.919   3.741   1.594 -0.3851 -0.5744  0.0032
12179TIP3   OH258027   6.040   5.201  16.683  0.3717 -0.0717  0.8536
12179TIP3    H158028   6.003   5.259  16.617 -1.7572 -2.0886  0.1720
12179TIP3    H258029   6.126   5.177  16.648 -0.2917 -0.2944 -0.6789
12180TIP3   OH258030   2.087   3.284  11.464 -0.2708 -0.4238 -0.9427
12180TIP3    H158031   2.171   3.319  11.492 -0.1843 -0.0083 -1.7004
12180TIP3    H258032   2.024   3.353  11.484 -0.2637 -0.2781 -1.4342
12181TIP3   OH258033   0.075   5.327  12.525 -0.6480  0.1979 -0.0115
12181TIP3    H158034   0.084   5.311  12.619  1.3022 -0.3827 -0.2389
12181TIP3    H258035   0.076   5.240  12.486 -0.4403  0.4662 -0.6190
12182TIP3   OH258036   3.341   6.665   3.440 -0.2089  0.3118  0.1242
12182TIP3    H158037   3.276   6.615   3.390 -0.0961  0.2216  0.0652
12182TIP3    H258038   3.304   6.672   3.527  0.5524 -1.4427  0.6507
12183TIP3   OH258039   0.404   3.709   3.234 -0.0080 -0.4620 -0.1075
12183TIP3    H158040   0.346   3.641   3.199 -0.4581 -1.0779  1.7195
12183TIP3    H258041   0.490   3.689   3.195 -0.6116 -0.6536 -1.3995
12184TIP3   OH258042   0.460   5.594  13.373  0.2853 -0.6096 -0.2108
12184TIP3    H158043   0.460   5.690  13.378  1.7252 -0.6118  0.2170
12184TIP3    H258044   0.456   5.566  13.465  0.6051 -0.9440 -0.2977
12185TIP3   OH258045   3.975   3.171  11.471  0.4041 -0.5612  0.5738
12185TIP3    H158046   4.071   3.166  11.471  0.3841 -1.1965 -0.4224
12185TIP3    H258047   3.955   3.247  11.525  1.4607 -0.6035  1.0493
12186TIP3   OH258048   3.710   4.862  15.658 -0.8568 -0.3295  0.3928
12186TIP3    H158049   3.695   4.868  15.752  0.7162 -0.8746  0.7125
12186TIP3    H258050   3.757   4.780  15.646 -1.6613 -0.6259 -0.9726
12187TIP3   OH258051   5.056   6.418   2.030  0.6000  0.5876  0.3015
12187TIP3    H158052   5.046   6.408   2.125  2.4304  1.3084  0.6263
12187TIP3    H258053   5.090   6.334   2.001 -0.8315  0.0549  0.1128
12188TIP3   OH258054   3.923   4.001   4.511  0.0488 -0.2052  0.2031
12188TIP3    H158055   3.946   4.052   4.589 -0.7586  1.5715 -0.6520
12188TIP3    H258056   3.992   4.022   4.448  1.9230 -3.3100  1.0130
12189TIP3   OH258057   0.489   0.018  14.093 -0.1936  0.3427  0.3813
12189TIP3    H158058   0.415   0.015  14.154 -0.2817  2.2187  0.4216
12189TIP3    H258059   0.566   0.029  14.149  0.4168 -3.1739  0.4653
12190TIP3   OH258060   3.994   4.063   1.793 -0.1685  0.4951  0.0396
12190TIP3    H158061   4.048   4.128   1.837 -0.8507 -0.5748  2.6669
12190TIP3    H258062   4.045   3.982   1.800 -0.9926 -0.0087  0.3106
12191TIP3   OH258063   3.926   4.901  13.070  0.2205  0.1756 -0.5965
12191TIP3    H158064   3.857   4.959  13.103 -0.6665 -0.8464 -0.5837
12191TIP3    H258065   3.936   4.926  12.978  0.2266  0.7158 -0.4487
12192TIP3   OH258066   4.568   1.168   4.591  0.0268  0.1225 -0.4173
12192TIP3    H158067   4.660   1.193   4.589 -0.2503  1.2712  0.3529
12192TIP3    H258068   4.545   1.167   4.684 -0.3256 -1.8355 -0.4718
12193TIP3   OH258069   4.057   3.103   6.324  0.0729 -0.5591  0.0310
12193TIP3    H158070   4.130   3.164   6.338  0.5019 -0.8537 -0.8826
12193TIP3    H258071   4.081   3.025   6.374 -0.1797 -0.2189  0.6921
12194TIP3   OH258072   5.032   1.961  12.902 -0.3224  0.6983 -0.5825
12194TIP3    H158073   4.987   2.031  12.949 -0.2997 -0.5956  1.5297
12194TIP3    H258074   4.963   1.915  12.854 -0.6656  0.9120 -0.2969
12195TIP3   OH258075   3.863   3.722   4.747  0.0280 -0.1523  0.0643
12195TIP3    H158076   3.840   3.814   4.734  0.6549 -0.1264 -1.0211
12195TIP3    H258077   3.799   3.673   4.696 -0.4753 -0.3457  0.8639
12196TIP3   OH258078   4.313   0.658   2.893  0.0854  0.1888  0.2927
12196TIP3    H158079   4.369   0.729   2.925 -0.4715  0.8312 -0.1234
12196TIP3    H258080   4.358   0.578   2.920  0.5832  0.6982  1.0191
12197TIP3   OH258081   5.812   2.393   6.381 -0.0137 -0.9609 -0.0164
12197TIP3    H158082   5.870   2.468   6.394 -0.5682 -0.6948  1.0671
12197TIP3    H258083   5.854   2.322   6.429  0.3558 -1.2762 -0.7899
12198TIP3   OH258084   4.880   1.770  11.812 -0.1757 -1.0798  0.4376
12198TIP3    H158085   4.844   1.703  11.754 -0.7194 -0.2530 -0.2067
12198TIP3    H258086   4.946   1.724  11.864 -0.3608 -2.0502 -0.1577
12199TIP3   OH258087   3.127   4.723   5.936  0.1450 -0.1067  0.4221
12199TIP3    H158088   3.195   4.674   5.982  2.7271  1.2786 -1.5984
12199TIP3    H258089   3.147   4.815   5.955  0.9520  0.4900 -2.7358
12200TIP3   OH258090   0.389   0.084   0.882 -0.1948 -0.2146  0.3996
12200TIP3    H158091   0.366   0.014   0.821 -2.6871  0.7652  0.0804
12200TIP3    H258092   0.338   0.065   0.961 -0.7837  1.0934  0.3645
12201TIP3   OH258093   0.824   4.000   2.291  0.2369  0.1599 -0.3923
12201TIP3    H158094   0.906   3.956   2.314 -1.0451 -0.7172  3.1600
12201TIP3    H258095   0.794   3.955   2.211  1.3650 -2.1275  0.3853
12202TIP3   OH258096   4.918   4.849   4.782 -0.5083 -0.0684 -0.4154
12202TIP3    H158097   4.841   4.905   4.794  0.2319  0.6911  1.0312
12202TIP3    H258098   4.957   4.880   4.700 -0.7435  0.7948 -0.2207
12203TIP3   OH258099   5.624   4.036   2.685 -0.7627  0.1341  0.0469
12203TIP3    H158100   5.628   4.016   2.591 -0.4707  2.8241 -0.5975
12203TIP3    H258101   5.711   4.016   2.718 -1.1997 -1.9691  0.0716
12204TIP3   OH258102   3.637   0.736   4.217 -0.0559  0.0773 -0.5505
12204TIP3    H158103   3.612   0.810   4.163 -0.1029  0.8837  0.5285
12204TIP3    H258104   3.609   0.760   4.306  0.3280 -1.0352 -0.0974
12205TIP3   OH258105   1.984   0.991   2.392  0.0310 -0.2495  0.0621
12205TIP3    H158106   1.950   0.939   2.464 -0.6974 -0.1265 -0.1821
12205TIP3    H258107   2.050   0.936   2.350  1.1664  0.0461  1.3974
12206TIP3   OH258108   4.499   6.220  15.419  0.6000 -0.3274 -0.2411
12206TIP3    H158109   4.450   6.214  15.502 -0.9495  1.2629 -0.9616
12206TIP3    H258110   4.580   6.266  15.442 -0.6674  1.8820  0.1561
12207TIP3   OH258111   1.897   6.526   1.766  0.3329 -0.1412  0.2271
12207TIP3    H158112   1.927   6.600   1.713 -2.6588  1.3996  0.4473
12207TIP3    H258113   1.831   6.564   1.824  0.6553 -2.5302  2.3157
12208TIP3   OH258114   6.252   0.191   0.994  0.0069 -0.0115  0.3411
12208TIP3    H158115   6.181   0.255   0.991  0.0971  0.0923  0.3920
12208TIP3    H258116   6.272   0.172   0.902  0.0798  0.1478  0.3225
12209TIP3   OH258117   6.728   2.813   4.613  0.6418  0.1521  0.7957
12209TIP3    H158118   6.813   2.782   4.644 -0.1537 -3.6066 -0.2612
12209TIP3    H258119   6.722   2.781   4.523 -2.1899 -0.4320  1.0889
12210TIP3   OH258120   3.602   1.515  12.693 -0.0107 -0.2162 -0.1779
12210TIP3    H158121   3.618   1.531  12.600 -1.1866  1.2951 -0.1544
12210TIP3    H258122   3.539   1.442  12.694 -0.5916  0.2725 -0.6001
12211TIP3   OH258123   3.088   4.213   5.847  0.6370  0.2741 -0.1244
12211TIP3    H158124   3.087   4.125   5.884  0.5109 -0.0140 -0.8066
12211TIP3    H258125   3.069   4.201   5.754  2.2790  0.8526 -0.5796
12212TIP3   OH258126   2.968   5.502   0.484 -0.3625  0.6569  0.0381
12212TIP3    H158127   2.889   5.452   0.463  0.7698 -0.4999 -1.7513
12212TIP3    H258128   2.944   5.593   0.466 -0.9430  0.1890 -1.7717
12213TIP3   OH258129   6.342   2.377  15.113 -0.2186  0.3682 -0.0898
12213TIP3    H158130   6.397   2.448  15.079  1.9058 -1.1330  0.0627
12213TIP3    H258131   6.320   2.325  15.036  0.3622 -0.2194  0.1394
12214TIP3   OH258132   0.555   5.986  15.457 -0.1150  0.2823  0.5159
12214TIP3    H158133   0.489   6.002  15.524 -0.3750 -0.5900  0.4775
12214TIP3    H258134   0.508   5.937  15.389  0.4691  0.0009  0.3075
12215TIP3   OH258135   6.254   0.754   1.837 -0.2993 -0.3130  0.1488
12215TIP3    H158136   6.233   0.820   1.771 -2.8460 -2.5221 -1.4681
12215TIP3    H258137   6.201   0.779   1.914  0.8683  0.9693  0.5696
12216TIP3   OH258138   3.004   0.779  11.003 -0.1209 -0.3181  0.6823
12216TIP3    H158139   3.091   0.761  10.966 -0.3033 -0.0424  0.1132
12216TIP3    H258140   2.970   0.851  10.951 -0.6400 -0.3314  0.9964
12217TIP3   OH258141   5.095   5.133  11.771 -0.1953  0.1428  0.0491
12217TIP3    H158142   5.123   5.180  11.850 -0.9016  0.7667 -0.0560
12217TIP3    H258143   5.004   5.110  11.788  0.6746 -3.0951  0.9695
12218TIP3   OH258144   4.358   2.179  11.396  0.1710 -0.1340  0.1749
12218TIP3    H158145   4.364   2.272  11.373  0.0841 -0.8048 -2.9340
12218TIP3    H258146   4.383   2.176  11.489  2.2782  2.7500 -0.1536
12219TIP3   OH258147   1.376   3.092  11.652 -0.0964 -0.5996  0.1106
12219TIP3    H158148   1.338   3.179  11.656  1.7910  0.2496  0.4202
12219TIP3    H258149   1.442   3.091  11.721 -1.0723 -2.8065  1.1244
12220TIP3   OH258150   3.028   1.159   3.190 -0.5816  0.1185 -0.2085
12220TIP3    H158151   2.990   1.078   3.224 -1.3748  0.0312 -1.2394
12220TIP3    H258152   3.044   1.141   3.097  0.3254  0.7611 -0.1908
12221TIP3   OH258153   5.397   0.331   4.959  0.1366  0.3124  0.3409
12221TIP3    H158154   5.349   0.280   5.025 -1.9880  0.6973 -0.8079
12221TIP3    H258155   5.488   0.306   4.972 -0.5043 -1.6753  1.6420
12222TIP3   OH258156   5.486   6.772  13.693 -0.7024  0.3132 -0.6586
12222TIP3    H158157   5.508   6.689  13.650  0.9875  0.6025 -0.4422
12222TIP3    H258158   5.564   6.827  13.681 -1.6717  1.7778 -0.5415
12223TIP3   OH258159   6.006   0.219   5.596  0.1693  0.1506 -0.2389
12223TIP3    H158160   5.981   0.297   5.546  2.2243  1.3424  0.4501
12223TIP3    H258161   5.950   0.221   5.674  0.6535  1.3706  0.1058
12224TIP3   OH258162   6.120   3.441   1.677  0.4699 -0.5624  0.0918
12224TIP3    H158163   6.068   3.483   1.610 -0.0215 -0.9253  0.2413
12224TIP3    H258164   6.073   3.457   1.759  1.7968  1.1263  0.5918
12225TIP3   OH258165   2.265   2.168   5.023  0.7284 -0.4055 -0.2622
12225TIP3    H158166   2.340   2.187   5.081  1.4137 -0.7825 -1.0054
12225TIP3    H258167   2.247   2.076   5.037 -0.4561 -0.0297  0.8755
12226TIP3   OH258168   5.331   2.214  11.993  0.2604  0.0397  0.2704
12226TIP3    H158169   5.423   2.237  11.978 -0.0568  1.0770 -0.2280
12226TIP3    H258170   5.322   2.211  12.088  0.3987  1.8288  0.3803
12227TIP3   OH258171   1.251   5.773   3.653 -0.0014  0.2305 -0.1990
12227TIP3    H158172   1.194   5.850   3.643  0.2266  0.4484  0.1899
12227TIP3    H258173   1.194   5.699   3.632 -0.3689  0.4665 -0.0451
12228TIP3   OH258174   2.751   6.493   1.410 -0.1624 -0.1466 -0.0134
12228TIP3    H158175   2.754   6.534   1.324 -1.0680  0.9399  0.4547
12228TIP3    H258176   2.791   6.407   1.397  1.2719  0.6483 -1.1330
12229TIP3   OH258177   2.471   2.577   5.564  0.0716  0.2495  0.7458
12229TIP3    H158178   2.483   2.537   5.650 -1.0449  0.1615  0.8726
12229TIP3    H258179   2.473   2.671   5.580 -2.7847  0.2847  1.3195
12230TIP3   OH258180   0.572   1.483   3.604  0.7950 -0.0885  0.0151
12230TIP3    H158181   0.544   1.398   3.638 -1.2044 -0.4752 -2.3079
12230TIP3    H258182   0.538   1.546   3.667 -0.6420 -0.8769  0.0645
12231TIP3   OH258183   6.315   6.682  16.947  0.0686 -0.4461 -0.4110
12231TIP3    H158184   6.399   6.699  16.904 -0.4159  1.9343 -0.5221
12231TIP3    H258185   6.314   6.739  17.024 -1.6584  0.0020 -0.7111
12232TIP3   OH258186   3.657   1.883   4.591 -0.2201 -0.6110  0.2211
12232TIP3    H158187   3.582   1.871   4.650 -0.7027 -0.9223 -0.4349
12232TIP3    H258188   3.622   1.937   4.519  0.3083 -0.3813  0.1352
12233TIP3   OH258189   3.958   6.089   0.120  0.2995 -0.1498  0.2470
12233TIP3    H158190   3.943   6.116   0.210  0.4491  0.4682  0.0901
12233TIP3    H258191   3.898   6.141   0.068  0.1776 -0.5388 -0.0114
12234TIP3   OH258192   1.589   3.677  16.526 -0.3594 -0.1513 -0.3241
12234TIP3    H158193   1.501   3.682  16.563 -1.0769  2.5754 -2.1103
12234TIP3    H258194   1.610   3.583  16.528 -2.6637 -0.7422  1.4682
12235TIP3   OH258195   1.336   3.867   1.527  0.2859 -0.4765  0.3198
12235TIP3    H158196   1.422   3.901   1.499 -0.6027 -0.1397 -2.2427
12235TIP3    H258197   1.318   3.795   1.467 -0.3955 -1.8998  2.1190
12236TIP3   OH258198   5.515   0.265   1.907  0.2912 -0.4791 -0.2515
12236TIP3    H158199   5.514   0.346   1.957  0.1961 -1.2740  1.0926
12236TIP3    H258200   5.426   0.257   1.873  0.0083 -0.5465  0.5007
12237TIP3   OH258201   5.225   2.056  16.215 -0.0877  0.3559  0.2417
12237TIP3    H158202   5.214   2.090  16.126  1.6373  0.6692  0.1173
12237TIP3    H258203   5.260   1.968  16.202 -0.3065  0.2135  0.6133
12238TIP3   OH258204   1.250   6.128  13.688 -0.4488  0.2303  0.4798
12238TIP3    H158205   1.293   6.212  13.704 -2.3328  1.3217  0.1248
12238TIP3    H258206   1.221   6.099  13.774 -2.0481  1.2623  0.3246
12239TIP3   OH258207   3.315   5.417  16.406  0.8691 -0.0004  0.2778
12239TIP3    H158208   3.353   5.504  16.415 -0.8341  0.6160  2.4937
12239TIP3    H258209   3.331   5.393  16.315 -0.6121  3.6613 -1.1682
12240TIP3   OH258210   1.860   6.731  11.567  0.3179 -0.3949 -0.2519
12240TIP3    H158211   1.892   6.706  11.480  1.5972  1.5580 -0.4188
12240TIP3    H258212   1.771   6.762  11.552  0.1098 -1.1944 -0.6675
12241TIP3   OH258213   4.307   1.730   2.116 -0.8438 -0.6687  0.6882
12241TIP3    H158214   4.387   1.733   2.168 -0.2469  0.2841 -0.2413
12241TIP3    H258215   4.266   1.646   2.139  1.6844 -2.3800 -0.6331
12242TIP3   OH258216   5.721   6.375   5.638 -0.0254  0.0762 -0.1462
12242TIP3    H158217   5.802   6.394   5.684  0.5573  0.9388 -1.4657
12242TIP3    H258218   5.690   6.460   5.607 -0.6650 -0.4170 -0.9092
12243TIP3   OH258219   2.430   1.993   0.990  0.2895 -0.0620 -0.0092
12243TIP3    H158220   2.431   1.934   1.066  0.5463  0.4605  0.4038
12243TIP3    H258221   2.442   2.080   1.028 -2.5174  0.5605 -0.3626
12244TIP3   OH258222   1.679   4.455  15.447  0.2196 -0.1246 -0.2106
12244TIP3    H158223   1.593   4.483  15.475  0.4477  0.8476 -0.4584
12244TIP3    H258224   1.665   4.419  15.359 -0.1310 -1.1517  0.2521
12245TIP3   OH258225   3.419   4.037   5.067  0.4998  0.2359  0.1728
12245TIP3    H158226   3.405   4.031   5.161  1.2118  0.7936  0.3198
12245TIP3    H258227   3.513   4.051   5.057  0.6636 -1.2729 -0.6938
12246TIP3   OH258228   1.195   1.393   2.836  0.5842  0.1695  0.1756
12246TIP3    H158229   1.224   1.470   2.886  1.4172  0.9994 -1.4619
12246TIP3    H258230   1.274   1.339   2.828  0.6477  0.3842 -0.7760
12247TIP3   OH258231   2.309   5.374   5.583 -0.4320 -0.2909 -0.5116
12247TIP3    H158232   2.388   5.387   5.532 -0.5498 -0.4448 -0.7330
12247TIP3    H258233   2.241   5.421   5.534 -0.7179 -1.1499 -0.9482
12248TIP3   OH258234   1.547   4.060  15.761  0.1888 -0.3724 -0.4525
12248TIP3    H158235   1.610   4.113  15.810 -0.6569  1.5795 -1.3739
12248TIP3    H258236   1.495   4.016  15.828 -0.8586  2.1196  0.4904
12249TIP3   OH258237   3.567   1.215  16.996  0.3712 -0.0357  0.6637
12249TIP3    H158238   3.542   1.126  16.968  0.0098  0.1148  0.5024
12249TIP3    H258239   3.486   1.253  17.029  0.5988  0.1217  1.0428
12250TIP3   OH258240   3.389   6.517  14.064 -0.4157  0.5291  0.4195
12250TIP3    H158241   3.483   6.507  14.079 -0.8214 -1.0396  2.3128
12250TIP3    H258242   3.361   6.432  14.031 -1.1868  1.0150 -0.2286
12251TIP3   OH258243   1.358   1.595  13.815 -0.3504  0.3252 -0.3261
12251TIP3    H158244   1.330   1.517  13.766 -0.2958  0.6918 -0.9469
12251TIP3    H258245   1.364   1.565  13.906 -0.8100 -0.2717 -0.4840
12252TIP3   OH258246   0.518   2.865   0.376  0.2463  0.1739  0.1597
12252TIP3    H158247   0.498   2.820   0.458 -0.5942 -0.5519 -0.4091
12252TIP3    H258248   0.493   2.956   0.391 -0.9291 -0.1654  0.3765
12253TIP3   OH258249   3.565   5.590   2.965  0.1883  0.0783  0.0171
12253TIP3    H158250   3.538   5.587   3.057  0.2777 -0.2632  0.0352
12253TIP3    H258251   3.586   5.682   2.949  2.4414 -0.1806  1.0053
12254TIP3   OH258252   1.605   1.897   2.054  0.3584 -0.3116  0.1815
12254TIP3    H158253   1.602   1.851   1.971  0.2573 -2.0989  1.1188
12254TIP3    H258254   1.651   1.979   2.036 -0.9430  0.0247 -1.9128
12255TIP3   OH258255   5.448   5.827   3.562 -0.7414  0.3817 -0.2125
12255TIP3    H158256   5.519   5.890   3.573 -0.8265  0.2995  0.8246
12255TIP3    H258257   5.368   5.879   3.570 -0.8097  0.4097 -1.0017
12256TIP3   OH258258   0.334   4.188  14.136 -0.3264 -0.0169  0.1305
12256TIP3    H158259   0.426   4.208  14.118 -0.9535  0.9857 -2.4018
12256TIP3    H258260   0.298   4.271  14.167 -0.7563  0.1274 -0.7241
12257TIP3   OH258261   2.510   1.269  15.142 -0.2032 -0.0129 -0.8530
12257TIP3    H158262   2.591   1.253  15.094 -0.8636 -0.0879 -1.9745
12257TIP3    H258263   2.506   1.198  15.206  1.6135  1.1305  0.6290
12258TIP3   OH258264   0.576   2.513   2.952  0.3887  0.3100  0.0275
12258TIP3    H158265   0.541   2.425   2.969  0.7217 -0.1511 -1.4982
12258TIP3    H258266   0.671   2.502   2.957  0.4288  0.5764 -0.1612
12259TIP3   OH258267   2.086   3.129  14.780 -0.3657 -0.0419  0.1777
12259TIP3    H158268   2.126   3.215  14.797  0.3387 -0.7274  2.4060
12259TIP3    H258269   2.156   3.077  14.742  0.3445 -0.6112  2.1165
12260TIP3   OH258270   1.841   5.349   0.324  0.4886 -0.4731 -0.4904
12260TIP3    H158271   1.875   5.404   0.394 -0.8009 -1.2232  0.7859
12260TIP3    H258272   1.751   5.379   0.311  0.6128 -0.5486 -1.6342
12261TIP3   OH258273   1.145   4.708  17.057  0.4830 -0.2548  0.2733
12261TIP3    H158274   1.163   4.796  17.026 -0.3207  0.0568  0.6641
12261TIP3    H258275   1.124   4.719  17.150 -1.2702 -0.6235 -0.0460
12262TIP3   OH258276   6.748   6.157  15.535  0.3537  0.0920 -0.0685
12262TIP3    H158277   6.764   6.065  15.515  0.1407  0.1192 -0.3697
12262TIP3    H258278   6.802   6.175  15.612  0.1507 -0.3649  0.1833
12263TIP3   OH258279   5.725   1.843   0.410 -0.2251 -0.1256 -0.5477
12263TIP3    H158280   5.707   1.831   0.504 -0.6599  0.7271 -0.5150
12263TIP3    H258281   5.652   1.799   0.366 -0.6355  0.4634 -0.4638
12264TIP3   OH258282   3.513   6.518  11.086 -1.0082 -0.0514  0.4934
12264TIP3    H158283   3.434   6.524  11.033 -0.9361  0.4720  0.4361
12264TIP3    H258284   3.565   6.449  11.045 -2.1673 -1.6057  1.5271
12265TIP3   OH258285   0.580   1.197  13.241 -0.1588  0.0681  0.0605
12265TIP3    H158286   0.572   1.287  13.275  1.3703  0.1085  0.3928
12265TIP3    H258287   0.532   1.144  13.304  0.8238  0.4081  1.1315
12266TIP3   OH258288   5.661   4.484  10.767  0.3206 -0.1449 -0.1581
12266TIP3    H158289   5.566   4.472  10.772  0.2153  0.9015  0.9471
12266TIP3    H258290   5.678   4.562  10.821  1.9866 -1.2385  0.9901
12267TIP3   OH258291   2.143   2.835   1.956  0.6092 -0.0811 -0.6457
12267TIP3    H158292   2.094   2.909   1.921  0.3891  0.8145  1.4126
12267TIP3    H258293   2.194   2.802   1.882 -2.6282 -0.7536 -2.7997
12268TIP3   OH258294   6.610   0.173   0.602  0.6157 -0.4823  0.1283
12268TIP3    H158295   6.593   0.245   0.542  2.3417 -0.6503 -0.6412
12268TIP3    H258296   6.655   0.214   0.676  0.8695 -0.6436  0.0650
12269TIP3   OH258297   4.655   0.544   1.989  0.1145 -0.3517 -0.1238
12269TIP3    H158298   4.703   0.505   1.916 -0.0184 -0.3776 -0.1973
12269TIP3    H258299   4.678   0.637   1.987  1.0356 -0.5581  0.5174
12270TIP3   OH258300   1.275   5.547   0.930 -0.1529 -0.4849  0.6648
12270TIP3    H158301   1.293   5.532   1.023  0.0939 -0.1653  0.6704
12270TIP3    H258302   1.361   5.546   0.889 -0.3681 -2.2014  0.1910
12271TIP3   OH258303   2.377   4.502  13.831 -0.1571  0.1574 -0.3270
12271TIP3    H158304   2.448   4.566  13.821  0.9248 -1.3105 -3.3234
12271TIP3    H258305   2.307   4.534  13.774 -0.2854 -0.4515 -0.5192
12272TIP3   OH258306   2.569   1.111  13.936 -0.0558 -0.0548 -0.0495
12272TIP3    H158307   2.479   1.086  13.956 -0.0880 -0.6598 -0.8974
12272TIP3    H258308   2.560   1.181  13.871  0.0927 -0.7051 -0.7762
12273TIP3   OH258309   6.216   1.721   0.054  0.4545  0.1571 -0.1427
12273TIP3    H158310   6.290   1.660   0.060 -1.4814 -2.3913 -0.2907
12273TIP3    H258311   6.192   1.738   0.145  0.0575 -0.5913 -0.0968
12274TIP3   OH258312   3.182   1.890  13.938  0.3495  0.4612  0.1107
12274TIP3    H158313   3.236   1.934  13.873  1.0612 -1.9207 -1.0178
12274TIP3    H258314   3.233   1.893  14.019  1.3861 -0.1936 -0.5061
12275TIP3   OH258315   3.211   4.787   5.186  0.6323  0.5610 -0.0502
12275TIP3    H158316   3.304   4.807   5.195  1.0069 -0.2347 -1.7724
12275TIP3    H258317   3.167   4.866   5.217  1.8514  0.8410  1.0730
12276TIP3   OH258318   1.998   3.345   6.436 -0.3441  0.0413  1.1174
12276TIP3    H158319   1.998   3.249   6.427 -1.6148  0.1212 -0.0520
12276TIP3    H258320   2.020   3.378   6.349  2.9707  0.8762  2.1190
12277TIP3   OH258321   3.959   6.344   2.306  0.6343 -0.1072 -0.3111
12277TIP3    H158322   4.044   6.374   2.339 -1.0313  3.4271  1.2760
12277TIP3    H258323   3.896   6.372   2.373 -2.0165 -0.4736 -2.4929
12278TIP3   OH258324   5.238   0.639  11.853 -0.5433  0.1202  0.3580
12278TIP3    H158325   5.277   0.697  11.918 -0.1349  0.5521 -0.2571
12278TIP3    H258326   5.250   0.685  11.770 -0.6804 -0.6123 -0.0763
12279TIP3   OH258327   6.013   1.440  12.749  0.7119 -0.2042 -0.0810
12279TIP3    H158328   5.975   1.392  12.676  0.8572 -0.2992 -0.0943
12279TIP3    H258329   5.938   1.480  12.794  0.6235 -0.1387 -0.2860
12280TIP3   OH258330   5.033   5.847   2.014  0.6660 -0.1548  0.7762
12280TIP3    H158331   5.096   5.860   2.085  2.5007  1.0929 -1.0008
12280TIP3    H258332   5.079   5.872   1.935 -2.2572  1.4598 -0.5820
12281TIP3   OH258333   2.029   0.067   3.078  0.2478 -0.3679  0.0635
12281TIP3    H158334   2.115   0.078   3.117 -0.1540 -0.2638  0.9335
12281TIP3    H258335   2.025  -0.026   3.055  0.8092 -0.2540 -0.5161
12282TIP3   OH258336   6.332   1.861  17.015 -0.0451 -0.0003  0.0592
12282TIP3    H158337   6.373   1.947  17.010  1.8917 -0.7809  1.4366
12282TIP3    H258338   6.402   1.802  17.043 -1.3421 -2.0243 -0.7110
12283TIP3   OH258339   6.768   3.224  14.015 -0.2536 -0.3448 -0.1645
12283TIP3    H158340   6.796   3.266  13.934 -0.9129  1.9877  0.7480
12283TIP3    H258341   6.784   3.131  14.000  0.1592  0.0709 -2.7418
12284TIP3   OH258342   1.419   4.275   1.260  0.5746  0.3728  1.0154
12284TIP3    H158343   1.329   4.245   1.269  0.6053 -0.0596  0.0102
12284TIP3    H258344   1.424   4.310   1.171  1.5091 -0.0456  0.8857
12285TIP3   OH258345   5.131   6.448   4.876  0.2900 -0.1540  0.7104
12285TIP3    H158346   5.146   6.464   4.969 -2.0675 -1.3920  1.3891
12285TIP3    H258347   5.115   6.535   4.839 -0.0065  0.2500  1.7522
12286TIP3   OH258348   3.787   3.656  13.377 -0.1943 -0.4152  0.0992
12286TIP3    H158349   3.770   3.639  13.284 -0.7587  0.0520  0.1101
12286TIP3    H258350   3.882   3.644  13.386  0.2636  1.7555 -1.0500
12287TIP3   OH258351   5.193   3.555   4.789 -0.6836 -0.3325  0.0029
12287TIP3    H158352   5.223   3.575   4.878 -0.4645 -0.7353  0.0222
12287TIP3    H258353   5.150   3.470   4.797 -2.2396  0.4359  0.0522
12288TIP3   OH258354   6.556   0.051  14.472  0.4333  0.2791 -0.1549
12288TIP3    H158355   6.505   0.107  14.414  1.2290 -0.0535 -1.2056
12288TIP3    H258356   6.613   0.112  14.519  0.5384  0.4606 -0.5117
12289TIP3   OH258357   2.450   3.651   0.422 -0.8712  0.3714 -0.4209
12289TIP3    H158358   2.439   3.742   0.452  1.1313  0.1227  1.2745
12289TIP3    H258359   2.453   3.658   0.327  2.5417  2.6129 -0.3220
12290TIP3   OH258360   6.244   3.444   3.327  0.2979 -0.4674  0.4136
12290TIP3    H158361   6.277   3.359   3.298 -0.1816 -0.2587 -0.8508
12290TIP3    H258362   6.163   3.424   3.373 -1.0552 -0.6166 -1.8530
12291TIP3   OH258363   2.678   1.215  13.531  0.4605  0.0674 -0.2478
12291TIP3    H158364   2.749   1.151  13.517  1.2564  0.5031  1.5063
12291TIP3    H258365   2.695   1.283  13.465 -0.2732 -1.3561 -2.0038
12292TIP3   OH258366   3.335   0.504   4.729 -0.1558 -0.0692 -0.1678
12292TIP3    H158367   3.415   0.479   4.684  0.5063 -0.6063  1.2525
12292TIP3    H258368   3.286   0.555   4.664  1.5614  0.7498 -0.8888
12293TIP3   OH258369   3.597   2.865  11.229  0.3028 -0.1536 -0.1068
12293TIP3    H158370   3.682   2.891  11.265  0.3201  0.4757 -0.5950
12293TIP3    H258371   3.600   2.769  11.228  0.3193 -0.2047  1.5181
12294TIP3   OH258372   1.101   6.614  12.462 -0.1037 -0.6409 -0.6909
12294TIP3    H158373   1.100   6.521  12.438  1.0166 -0.6276 -0.8280
12294TIP3    H258374   1.009   6.635  12.479 -0.1793 -2.2732  1.3203
12295TIP3   OH258375   5.474   1.160  14.576  0.4029 -0.5312  0.2323
12295TIP3    H158376   5.455   1.250  14.603 -2.6760 -0.7240 -0.8862
12295TIP3    H258377   5.389   1.116  14.578  1.7391 -3.3567  0.3579
12296TIP3   OH258378   2.904   5.045  15.208  0.3239  0.2620 -0.0059
12296TIP3    H158379   2.880   5.086  15.124 -1.0925  0.7313  0.6009
12296TIP3    H258380   2.995   5.020  15.196 -0.3939 -1.5984 -2.4778
12297TIP3   OH258381   4.377   1.281  10.886 -0.0099 -0.3274 -0.4148
12297TIP3    H158382   4.374   1.335  10.965  0.0420  3.6350 -2.8298
12297TIP3    H258383   4.288   1.249  10.874 -0.0784 -0.7382  1.0256
12298TIP3   OH258384   4.748   5.226  15.336 -0.0760  0.7595 -0.4333
12298TIP3    H158385   4.652   5.225  15.335 -0.1795  0.5943  2.3982
12298TIP3    H258386   4.773   5.134  15.327 -0.0452  0.9400 -2.8963
12299TIP3   OH258387   3.337   3.086  12.257  0.4307 -1.1693 -0.9178
12299TIP3    H158388   3.407   3.118  12.315  2.0226  0.9741 -3.7546
12299TIP3    H258389   3.360   2.994  12.241  0.8268 -1.3564  0.5238
12300TIP3   OH258390   1.481   3.576   0.428 -0.1737 -0.2762  0.1134
12300TIP3    H158391   1.439   3.573   0.514  1.8801 -0.7191  1.1765
12300TIP3    H258392   1.569   3.611   0.445  0.1917 -0.0930 -1.8590
12301TIP3   OH258393   3.315   3.105  14.866  0.5529 -0.0105 -0.4078
12301TIP3    H158394   3.348   3.107  14.776 -0.1739  1.5100 -0.6774
12301TIP3    H258395   3.394   3.101  14.920  1.0531  0.2883 -1.0986
12302TIP3   OH258396   4.452   2.890   1.263 -0.3566 -0.1657  0.6632
12302TIP3    H158397   4.450   2.907   1.357 -1.1934 -0.5649  0.7343
12302TIP3    H258398   4.360   2.872   1.241 -0.0613 -0.7704 -0.0965
12303TIP3   OH258399   0.953   6.175   6.351 -0.3927  0.3195  0.1601
12303TIP3    H158400   0.912   6.208   6.431  1.5343  0.0475  1.3137
12303TIP3    H258401   1.000   6.249   6.315 -0.1447  0.1030  0.0324
12304TIP3   OH258402   5.907   2.541  12.694 -0.1288 -0.2326 -0.1248
12304TIP3    H158403   5.906   2.453  12.732 -2.0309 -0.5914 -0.9028
12304TIP3    H258404   5.918   2.527  12.600  0.4664  0.4321 -0.1637
12305TIP3   OH258405   3.790   6.222   5.248  0.4700 -0.3684 -0.5713
12305TIP3    H158406   3.843   6.288   5.203 -0.7411  0.9590 -0.1144
12305TIP3    H258407   3.804   6.240   5.341  0.1414 -0.7647 -0.4413
12306TIP3   OH258408   1.125   5.798   5.526  0.1389 -0.4811  0.5519
12306TIP3    H158409   1.184   5.854   5.576  1.3347 -1.3017  0.1143
12306TIP3    H258410   1.130   5.831   5.436  0.1066 -0.6836  0.4737
12307TIP3   OH258411   2.766   4.305   0.700 -0.2883  0.4376  0.3873
12307TIP3    H158412   2.787   4.316   0.792  3.0743 -1.2187 -0.0021
12307TIP3    H258413   2.804   4.382   0.657  3.3163 -1.3267 -0.0249
12308TIP3   OH258414   1.772   4.787   1.095 -0.5086 -0.5978 -0.0839
12308TIP3    H158415   1.745   4.731   1.168  0.6406 -0.3710  0.5288
12308TIP3    H258416   1.832   4.851   1.134 -1.1671  0.5695 -0.9206
12309TIP3   OH258417   6.411   1.107  12.133 -0.2210  0.1220 -0.5340
12309TIP3    H158418   6.365   1.072  12.209  1.5577  0.2621  0.6978
12309TIP3    H258419   6.488   1.150  12.170  0.1900  1.0785 -2.3658
12310TIP3   OH258420   2.778   3.881  13.986 -0.0264  0.2438 -0.1660
12310TIP3    H158421   2.712   3.943  14.017 -1.4653 -0.5867 -1.4322
12310TIP3    H258422   2.807   3.917  13.903 -1.3154 -1.0194 -1.2123
12311TIP3   OH258423   4.192   3.830   0.420 -0.2198  0.4984  0.3125
12311TIP3    H158424   4.280   3.799   0.400 -0.6121  1.2964 -3.2462
12311TIP3    H258425   4.134   3.762   0.387 -0.9772  0.6318  1.3260
12312TIP3   OH258426   3.263   1.763   2.764  0.2124  0.3272  0.0673
12312TIP3    H158427   3.317   1.756   2.843  0.2305 -0.4430 -0.0020
12312TIP3    H258428   3.173   1.754   2.796  0.1450  1.1247  0.1244
12313TIP3   OH258429   5.485   3.803  11.585 -0.1012 -0.0415  1.2889
12313TIP3    H158430   5.402   3.833  11.549  1.4102  1.3664 -1.3588
12313TIP3    H258431   5.536   3.883  11.599  1.7149 -0.9380  0.2990
12314TIP3   OH258432   3.676   5.543   2.259  0.2793  0.4006  0.8263
12314TIP3    H158433   3.765   5.509   2.275  0.7232  0.2049 -1.5964
12314TIP3    H258434   3.622   5.464   2.252  0.0237  0.4953  1.6592
12315TIP3   OH258435   5.167   1.997   0.643 -0.1076  0.1041  0.0659
12315TIP3    H158436   5.129   2.083   0.624  0.5604  0.5665  0.7649
12315TIP3    H258437   5.114   1.964   0.716  0.5221  0.5627  0.7532
12316TIP3   OH258438   2.048   0.575  16.582  0.4760  0.6590 -0.5332
12316TIP3    H158439   2.102   0.540  16.653 -0.3462  1.5004  0.5367
12316TIP3    H258440   1.966   0.526  16.588 -0.3883  2.1572  0.4800
12317TIP3   OH258441   2.236   1.686  15.493  0.3657  0.5823 -0.0705
12317TIP3    H158442   2.166   1.623  15.513  1.0864  0.0742  0.9217
12317TIP3    H258443   2.203   1.734  15.417 -2.2587  2.1711  1.9037
12318TIP3   OH258444   4.163   2.919   2.972  0.5820 -0.1606  0.6032
12318TIP3    H158445   4.208   2.956   2.897 -0.1250  0.7558  0.6160
12318TIP3    H258446   4.091   2.979   2.989  0.4737 -0.5886  1.7449
12319TIP3   OH258447   3.855   6.305   5.497 -0.4411 -0.1451  0.1083
12319TIP3    H158448   3.868   6.263   5.582 -0.7968  0.3071  0.3928
12319TIP3    H258449   3.874   6.398   5.514  0.6636 -0.2281 -0.5823
12320TIP3   OH258450   0.476   6.260  16.009  0.0577 -0.3487 -0.1787
12320TIP3    H158451   0.544   6.327  16.020  2.0292 -1.6697 -2.9996
12320TIP3    H258452   0.394   6.307  16.023  1.4318  1.8094  1.3680
12321TIP3   OH258453   6.084   1.898  13.053  0.1727  0.5168  0.2838
12321TIP3    H158454   6.036   1.815  13.053 -0.4361  0.8531 -0.0638
12321TIP3    H258455   6.082   1.928  13.144  0.9660 -0.1619  0.5312
12322TIP3   OH258456   1.266   6.525  16.775 -0.2193 -0.3768  0.0098
12322TIP3    H158457   1.320   6.574  16.836  1.1451 -0.4349 -1.0957
12322TIP3    H258458   1.187   6.578  16.764  0.6697  0.9404 -0.1856
12323TIP3   OH258459   6.653   3.797  11.386 -0.1941 -0.0111  0.0930
12323TIP3    H158460   6.714   3.733  11.423 -0.7554 -2.7616 -3.2737
12323TIP3    H258461   6.583   3.803  11.451  0.5545 -1.7629  1.1509
12324TIP3   OH258462   5.907   6.008   4.616  0.2375 -0.5372 -0.1453
12324TIP3    H158463   5.898   6.093   4.573 -2.4291 -0.9008 -0.4941
12324TIP3    H258464   6.000   5.987   4.608  0.5241  1.1483 -2.3631
12325TIP3   OH258465   4.726   3.980   1.643 -0.3508 -0.1606 -0.4502
12325TIP3    H158466   4.707   3.889   1.617  2.9822 -0.7267 -1.4552
12325TIP3    H258467   4.753   4.023   1.562 -0.0997  1.2011  0.3244
12326TIP3   OH258468   5.801   2.120  13.596  0.1020 -0.6616  0.4884
12326TIP3    H158469   5.795   2.032  13.633  0.9067 -0.4411  1.1654
12326TIP3    H258470   5.710   2.145  13.579 -0.0977 -1.9975 -0.6525
12327TIP3   OH258471   3.735   3.105  14.445 -0.2495 -0.6733  0.2449
12327TIP3    H158472   3.720   3.186  14.397  0.0464 -0.4755  0.4838
12327TIP3    H258473   3.777   3.047  14.381  2.5760  0.4610  0.9383
12328TIP3   OH258474   2.130   5.046  15.513  0.5806  0.4816 -0.5300
12328TIP3    H158475   2.084   5.024  15.594 -1.5474  0.3139 -1.7082
12328TIP3    H258476   2.218   5.013  15.526 -0.4738 -2.1544  0.6444
12329TIP3   OH258477   4.336   6.436   5.037 -0.0400  0.0670  0.2135
12329TIP3    H158478   4.336   6.502   5.106 -0.8921  1.6106 -1.1784
12329TIP3    H258479   4.361   6.484   4.958  3.4242 -2.1144 -0.2294
12330TIP3   OH258480   5.690   3.027   3.866  0.5329  0.1158 -0.4804
12330TIP3    H158481   5.732   3.108   3.896  0.1068  0.3506 -0.5032
12330TIP3    H258482   5.762   2.973   3.834  0.8163  0.5101 -0.5203
12331TIP3   OH258483   4.375   2.910   2.051  0.4224  0.4370 -0.1190
12331TIP3    H158484   4.417   2.829   2.078 -0.8297 -0.4522 -0.7557
12331TIP3    H258485   4.307   2.925   2.116 -0.1916  0.2709 -0.7124
12332TIP3   OH258486   2.576   5.631  15.429 -0.2367  0.1991  0.4279
12332TIP3    H158487   2.620   5.697  15.376  0.4006  0.0645  0.7863
12332TIP3    H258488   2.537   5.571  15.365 -3.4468  2.5331 -0.0233
12333TIP3   OH258489   4.637   3.674  12.236 -0.1144 -0.1709  0.0216
12333TIP3    H158490   4.602   3.652  12.150  0.7398 -1.2901 -0.0656
12333TIP3    H258491   4.562   3.669  12.295 -0.7108  0.6398 -0.6601
12334TIP3   OH258492   2.683   4.647   0.672 -0.5677  0.3320 -0.1793
12334TIP3    H158493   2.657   4.651   0.580 -0.8618  1.3163 -0.0685
12334TIP3    H258494   2.700   4.738   0.696  1.5965 -0.1078  0.1618
12335TIP3   OH258495   3.296   1.235  15.755 -0.0710 -0.1285 -0.0028
12335TIP3    H158496   3.333   1.310  15.803 -1.0617  0.2173  0.2357
12335TIP3    H258497   3.267   1.175  15.824 -0.0451 -0.3568 -0.1898
12336TIP3   OH258498   0.484   3.681   6.090  0.3056  0.0348  0.0179
12336TIP3    H158499   0.400   3.716   6.060  0.5624  0.1377 -0.5887
12336TIP3    H258500   0.534   3.758   6.116  0.1425 -0.0416  0.5677
12337TIP3   OH258501   0.649   4.184  12.513 -1.5300 -0.1709  0.2501
12337TIP3    H158502   0.556   4.205  12.504 -1.1415  2.2673  1.1338
12337TIP3    H258503   0.675   4.222  12.597  0.6432  0.9017 -0.7951
12338TIP3   OH258504   0.541   2.646  13.234  0.0675  0.2889  0.2708
12338TIP3    H158505   0.578   2.560  13.215  0.4694  0.5312 -0.0704
12338TIP3    H258506   0.462   2.651  13.180  1.0308  0.8481 -1.1673
12339TIP3   OH258507   4.277   4.926  15.559  0.3365 -0.5707 -0.4532
12339TIP3    H158508   4.307   5.016  15.571 -0.5233 -0.2739 -0.4466
12339TIP3    H258509   4.272   4.890  15.647 -3.1636  0.6761 -0.0066
12340TIP3   OH258510   4.865   2.346   4.382 -0.6392  0.0991  0.0080
12340TIP3    H158511   4.822   2.324   4.465  1.4224  2.5033  1.8701
12340TIP3    H258512   4.951   2.378   4.407 -0.0601  1.3102 -3.0613
12341TIP3   OH258513   0.553   5.113  11.528  0.1414  0.1582 -0.1512
12341TIP3    H158514   0.523   5.033  11.570  1.7448 -0.3533  0.0517
12341TIP3    H258515   0.529   5.183  11.589 -0.8550 -0.1834 -0.1259
12342TIP3   OH258516   1.508   5.202  17.108  0.1975 -0.4151  0.1281
12342TIP3    H158517   1.503   5.118  17.153  0.9854 -0.7188 -0.3222
12342TIP3    H258518   1.485   5.182  17.017  0.5351 -0.1730 -0.0122
12343TIP3   OH258519   0.918   1.283   5.155 -0.0880  0.2958  0.7777
12343TIP3    H158520   0.873   1.200   5.172 -1.6328  1.2709  1.7233
12343TIP3    H258521   0.876   1.345   5.214  1.8570  1.5089  0.9535
12344TIP3   OH258522   1.164   1.586   3.616 -0.0087  0.3359 -0.2598
12344TIP3    H158523   1.123   1.663   3.657 -0.5708  0.1655 -0.4852
12344TIP3    H258524   1.130   1.586   3.527 -0.5991 -0.5854 -0.0496
12345TIP3   OH258525   3.512   2.786  13.848  0.1232 -0.1102 -0.2527
12345TIP3    H158526   3.440   2.831  13.804 -1.5330 -3.7910 -1.6632
12345TIP3    H258527   3.575   2.767  13.779  0.2774 -0.8878  0.0954
12346TIP3   OH258528   1.579   1.206   0.097 -0.4462 -0.1008  0.1517
12346TIP3    H158529   1.567   1.275   0.162  3.0401  0.3944  0.4358
12346TIP3    H258530   1.553   1.247   0.014  1.8216  1.7859  0.2667
12347TIP3   OH258531   4.304   6.703  14.727  0.1984 -0.1590 -0.0601
12347TIP3    H158532   4.294   6.661  14.812 -2.4288  0.1297 -0.1355
12347TIP3    H258533   4.275   6.638  14.663 -2.4442  1.1207 -0.2928
12348TIP3   OH258534   1.747   5.272   6.237  0.0649 -0.4391 -0.3511
12348TIP3    H158535   1.724   5.335   6.305  1.1372 -1.2452  0.7779
12348TIP3    H258536   1.718   5.187   6.271  1.0840 -0.9233 -0.6588
12349TIP3   OH258537   1.317   2.389   1.080 -0.3059  0.0517  0.2177
12349TIP3    H158538   1.350   2.476   1.055 -1.2568  0.4298  0.2486
12349TIP3    H258539   1.338   2.381   1.173 -1.7658  0.9914  0.6540
12350TIP3   OH258540   1.396   1.469  15.337  0.3840 -0.8789  0.1790
12350TIP3    H158541   1.421   1.377  15.348 -1.0065 -1.2114  0.8278
12350TIP3    H258542   1.309   1.464  15.297 -0.1658  0.1214  1.2043
12351TIP3   OH258543   2.460   4.333   0.130 -0.4512 -0.5860  0.4697
12351TIP3    H158544   2.379   4.304   0.173 -1.7052  2.3772  0.3245
12351TIP3    H258545   2.436   4.345   0.038  0.9982 -2.4272 -0.2150
12352TIP3   OH258546   1.136   3.715   2.960 -0.2873 -0.4759 -0.1538
12352TIP3    H158547   1.231   3.724   2.969 -0.1410 -0.8527 -1.1663
12352TIP3    H258548   1.125   3.647   2.894 -1.2835 -2.3802  1.8554
12353TIP3   OH258549   2.585   3.503  12.607 -0.0475 -0.0686 -0.5110
12353TIP3    H158550   2.604   3.410  12.612 -0.9606 -0.2145  0.5539
12353TIP3    H258551   2.532   3.514  12.528  1.0727 -0.2432 -1.3159
12354TIP3   OH258552   1.030   1.397   2.003 -0.0114  0.5400 -0.2942
12354TIP3    H158553   1.048   1.486   1.971  1.8613  0.9848  1.7558
12354TIP3    H258554   1.117   1.358   2.014 -0.6904 -0.5787  1.3955
12355TIP3   OH258555   5.621   2.134   0.380  0.0050 -0.4427 -0.2620
12355TIP3    H158556   5.630   2.040   0.396  0.8055 -0.1390  1.2862
12355TIP3    H258557   5.706   2.159   0.343  0.3805 -0.0657  0.8303
12356TIP3   OH258558   6.231   0.072  15.165  0.2518  0.4613 -0.4337
12356TIP3    H158559   6.281   0.086  15.246  0.0482  0.4663 -0.3097
12356TIP3    H258560   6.256   0.145  15.109  1.0451  0.0040 -0.7001
12357TIP3   OH258561   1.062   3.566  13.649  0.3861 -0.4227 -0.6419
12357TIP3    H158562   1.006   3.611  13.712  0.6146 -0.8302 -0.1385
12357TIP3    H258563   1.001   3.516  13.595  0.2228 -0.4255 -0.4559
12358TIP3   OH258564   6.100   5.168   6.403  1.4298 -0.4848 -0.5825
12358TIP3    H158565   6.154   5.126   6.469  0.9963 -0.2956 -0.1033
12358TIP3    H258566   6.028   5.208   6.452 -0.2274 -2.3713 -1.3513
12359TIP3   OH258567   4.245   3.846   4.967  0.0964  0.2860 -0.1361
12359TIP3    H158568   4.311   3.777   4.954 -0.1567 -0.3194  1.5120
12359TIP3    H258569   4.162   3.799   4.974  0.0720  0.5410  2.3392
12360TIP3   OH258570   1.578   2.297   4.503  0.8657 -0.5924  0.1976
12360TIP3    H158571   1.552   2.337   4.586  1.5474  0.6631 -0.1484
12360TIP3    H258572   1.580   2.371   4.442  0.7373 -1.4384 -0.8447
12361TIP3   OH258573   4.730   4.776  12.199  0.1846  0.1973  0.0571
12361TIP3    H158574   4.766   4.820  12.122  1.4152  0.9006  0.9839
12361TIP3    H258575   4.807   4.754  12.252 -0.6292 -0.2151  1.1090
12362TIP3   OH258576   1.926   2.632   0.900  0.5248 -0.3949 -0.2163
12362TIP3    H158577   1.842   2.603   0.937 -0.4394  3.9552  1.7025
12362TIP3    H258578   1.989   2.566   0.930 -1.5207 -1.3478  2.4756
12363TIP3   OH258579   4.280   5.511  11.240 -0.4669 -0.5871 -0.4207
12363TIP3    H158580   4.280   5.607  11.236 -2.2804 -0.5771 -0.8184
12363TIP3    H258581   4.373   5.488  11.241  0.0213  1.1829  0.1386
12364TIP3   OH258582   2.302   1.196  10.864  0.2747 -0.2519 -0.0763
12364TIP3    H158583   2.281   1.229  10.952 -1.3121 -0.1763 -0.4580
12364TIP3    H258584   2.339   1.109  10.880 -0.8332 -0.6123  0.6279
12365TIP3   OH258585   5.816   0.313  16.425 -0.2504 -0.7883  0.0552
12365TIP3    H158586   5.760   0.270  16.361  0.0994 -1.0251 -0.0946
12365TIP3    H258587   5.755   0.351  16.488 -0.6541  0.5807 -1.1221
12366TIP3   OH258588   0.203   6.026   1.806  0.3129 -0.1217  0.2895
12366TIP3    H158589   0.245   6.105   1.839 -1.5450  0.4473  1.4323
12366TIP3    H258590   0.113   6.031   1.837 -0.1329 -2.2156 -0.4462
12367TIP3   OH258591   0.891   0.842  13.971 -0.2105  0.1729  0.5229
12367TIP3    H158592   0.872   0.930  13.938  1.2003  0.0737 -0.6475
12367TIP3    H258593   0.982   0.845  13.998 -0.2136 -0.8693  0.7048
12368TIP3   OH258594   0.964   6.067   2.184  0.0027 -0.8926 -0.3018
12368TIP3    H158595   0.930   6.106   2.264  0.5888 -1.4115  0.2108
12368TIP3    H258596   1.049   6.110   2.170 -0.5108 -0.1179 -1.1789
12369TIP3   OH258597   4.630   1.356   3.674  0.1339 -0.4643  0.1751
12369TIP3    H158598   4.684   1.432   3.699  1.3064 -1.4585  0.8205
12369TIP3    H258599   4.610   1.370   3.582 -0.6745  1.2065  0.5654
12370TIP3   OH258600   6.357   5.406  16.522 -0.2172 -0.3760  0.0973
12370TIP3    H158601   6.337   5.404  16.429 -2.4374  1.7088  0.4204
12370TIP3    H258602   6.435   5.461  16.529 -1.0693  0.9490 -0.4582
12371TIP3   OH258603   1.948   6.059   0.513 -0.6818  0.3534 -0.3542
12371TIP3    H158604   1.939   6.142   0.466  0.4963  0.6297 -0.1159
12371TIP3    H258605   1.882   6.063   0.582  0.0013  1.5304  0.2698
12372TIP3   OH258606   2.674   2.242  14.283  0.0511  0.0906 -0.0984
12372TIP3    H158607   2.626   2.299  14.343 -0.2386  0.4013 -0.6270
12372TIP3    H258608   2.708   2.172  14.339 -2.1460 -0.8818  0.1040
12373TIP3   OH258609   5.616   1.880  15.319  0.0044 -0.2766 -0.0640
12373TIP3    H158610   5.659   1.896  15.235  1.2005  0.0548  0.5830
12373TIP3    H258611   5.541   1.826  15.298 -0.1073  0.3782 -1.4351
12374TIP3   OH258612   5.763   2.688   6.045 -0.3059 -0.4304 -0.0278
12374TIP3    H158613   5.740   2.727   6.129  1.0132  0.7942 -0.1974
12374TIP3    H258614   5.859   2.688   6.043 -0.2872  0.6932 -1.9900
12375TIP3   OH258615   4.293   6.439  14.654 -0.1048 -0.0761  0.2456
12375TIP3    H158616   4.335   6.396  14.728 -1.0722 -0.5520  0.5295
12375TIP3    H258617   4.214   6.388  14.637  0.5017 -0.4821 -1.6428
12376TIP3   OH258618   3.464   6.182  15.134 -0.3446  0.3479  0.2290
12376TIP3    H158619   3.535   6.119  15.123 -1.6410 -1.1088 -0.2894
12376TIP3    H258620   3.390   6.143  15.087 -1.4517  1.8671  0.6247
12377TIP3   OH258621   1.888   1.138   2.144  0.5209  0.5921  0.0590
12377TIP3    H158622   1.896   1.113   2.236  0.6270  1.6477  0.3584
12377TIP3    H258623   1.925   1.065   2.095  3.3849  1.2864  0.9895
12378TIP3   OH258624   3.820   0.542   2.240 -0.5038 -0.1931 -0.7743
12378TIP3    H158625   3.823   0.522   2.147 -0.5851 -1.2742 -0.5554
12378TIP3    H258626   3.805   0.457   2.283  0.0675  0.1955  0.2488
12379TIP3   OH258627   4.487   5.447  13.057  0.7497  0.6112 -0.1461
12379TIP3    H158628   4.505   5.356  13.083 -0.9007  0.3030 -0.0023
12379TIP3    H258629   4.439   5.439  12.975 -0.1625  1.3068  0.3002
12380TIP3   OH258630   0.523   1.319   2.941 -0.2135 -1.0025  0.1361
12380TIP3    H158631   0.569   1.237   2.923  0.4535 -0.5052 -0.4857
12380TIP3    H258632   0.434   1.292   2.962 -0.1790 -1.8503 -0.7359
12381TIP3   OH258633   2.567   6.787   0.524  0.4503 -0.3189  0.1644
12381TIP3    H158634   2.516   6.784   0.443  0.9355 -1.7864 -0.1193
12381TIP3    H258635   2.501   6.802   0.592 -0.0420  0.2878 -0.4268
12382TIP3   OH258636   6.463   0.929   6.348 -0.5747  0.5751  0.1020
12382TIP3    H158637   6.541   0.984   6.347  1.0284 -1.5612 -0.2895
12382TIP3    H258638   6.479   0.863   6.280 -2.4889 -0.2443  0.3754
12383TIP3   OH258639   6.407   4.910  11.250  0.2966  0.0318 -0.6391
12383TIP3    H158640   6.493   4.870  11.262  0.5016  0.7987  0.6452
12383TIP3    H258641   6.421   5.003  11.264 -0.7855  0.1337 -0.0571
12384TIP3   OH258642   0.546   6.050   4.427  0.1097 -0.2441 -0.3578
12384TIP3    H158643   0.639   6.056   4.448  0.2592  0.4946 -1.1606
12384TIP3    H258644   0.534   5.961   4.394  1.1229  0.4435 -2.8144
12385TIP3   OH258645   6.269   3.376  15.657  0.3844  0.3709  0.2553
12385TIP3    H158646   6.216   3.297  15.666  1.4649 -0.2034  2.3722
12385TIP3    H258647   6.240   3.417  15.576 -3.3320  0.1511  1.3174
12386TIP3   OH258648   3.665   6.297  15.761  0.3423 -0.5349  0.2613
12386TIP3    H158649   3.581   6.282  15.804 -0.2593 -1.1270 -1.0533
12386TIP3    H258650   3.730   6.259  15.821 -0.2430  0.4223  1.5567
12387TIP3   OH258651   3.479   0.617  14.420 -0.3469  0.2099 -0.2581
12387TIP3    H158652   3.552   0.649  14.367 -0.7377 -0.9489 -1.5507
12387TIP3    H258653   3.516   0.606  14.508  0.7707  0.5781 -0.6681
12388TIP3   OH258654   2.907   2.128   0.852  0.0553  0.0965  0.2218
12388TIP3    H158655   2.866   2.085   0.778 -0.5173  0.9801  0.0043
12388TIP3    H258656   2.928   2.216   0.820 -2.0940  1.2199  1.6662
12389TIP3   OH258657   2.624   6.642  12.655  0.1652  0.2844 -0.0283
12389TIP3    H158658   2.569   6.565  12.643  0.9732 -0.6287  1.7637
12389TIP3    H258659   2.602   6.699  12.582 -1.7534 -0.8711 -0.4110
12390TIP3   OH258660   2.032   0.346   2.766  0.3888 -0.2369  1.1677
12390TIP3    H158661   2.081   0.340   2.684 -0.0317 -0.5972  0.9440
12390TIP3    H258662   2.042   0.261   2.808 -0.0264 -0.3069  1.1318
12391TIP3   OH258663   1.594   6.347  13.009 -0.3691  0.0321  0.5981
12391TIP3    H158664   1.527   6.341  13.077 -1.6825 -1.6407 -0.7593
12391TIP3    H258665   1.560   6.412  12.947 -0.7710 -0.8187 -0.0940
12392TIP3   OH258666   0.773   0.563  15.382  0.3783  0.3464  0.4750
12392TIP3    H158667   0.748   0.573  15.290  0.9481  0.4143  0.3246
12392TIP3    H258668   0.716   0.493  15.415  0.3118  0.1812  0.0157
12393TIP3   OH258669   2.924   5.178   4.832  0.0403  0.1932  0.7063
12393TIP3    H158670   2.979   5.214   4.901 -0.1002  0.2852  0.7697
12393TIP3    H258671   2.893   5.254   4.783  2.7189  0.0449 -1.4774
12394TIP3   OH258672   0.842   0.063  14.646  0.1419  0.2646  0.2826
12394TIP3    H158673   0.931   0.089  14.667 -0.2784  0.5225  1.8347
12394TIP3    H258674   0.790   0.143  14.655 -0.5688 -0.3052  1.4703
12395TIP3   OH258675   5.711   1.770   3.460  0.0043 -0.4580  0.3814
12395TIP3    H158676   5.806   1.769   3.448  0.2068  1.5611  1.3752
12395TIP3    H258677   5.688   1.679   3.477  1.8680 -0.8778  0.9176
12396TIP3   OH258678   0.069   2.000   0.146 -0.1081 -0.0087 -0.1287
12396TIP3    H158679   0.135   2.069   0.144  0.6879 -0.5511  2.7303
12396TIP3    H258680   0.045   1.986   0.054  1.7257  2.1021 -1.0067
12397TIP3   OH258681   6.753   3.829  14.932  0.0660  0.3739  0.1331
12397TIP3    H158682   6.726   3.802  15.019  0.8600  0.7660  0.5168
12397TIP3    H258683   6.814   3.902  14.947  0.3989  0.2920 -0.7343
12398TIP3   OH258684   4.519   0.282   3.733 -0.4636  0.2391 -0.3329
12398TIP3    H158685   4.532   0.355   3.793  3.1872 -1.1428  0.8361
12398TIP3    H258686   4.494   0.208   3.789 -0.8524 -0.2037 -1.0634
12399TIP3   OH258687   3.386   6.820  14.020  0.0964  0.0513  0.3386
12399TIP3    H158688   3.303   6.772  14.021  0.3005 -0.3144  1.8128
12399TIP3    H258689   3.442   6.772  14.081  0.6182  1.6397  1.1448
12400TIP3   OH258690   2.306   1.196   1.934 -0.1585  0.0191 -0.2644
12400TIP3    H158691   2.384   1.141   1.924 -0.7355 -0.6437 -1.2634
12400TIP3    H258692   2.329   1.280   1.895 -0.8588 -1.0870 -3.3375
12401TIP3   OH258693   1.734   6.318  16.394  0.3674  0.5718 -0.7110
12401TIP3    H158694   1.691   6.396  16.358  2.3148  1.1628 -1.9327
12401TIP3    H258695   1.697   6.245  16.344  1.2218  1.1400 -2.2309
12402TIP3   OH258696   1.033   0.676  16.374  0.2286  0.6335  0.0391
12402TIP3    H158697   1.079   0.759  16.373 -3.3393  2.8261 -0.0850
12402TIP3    H258698   1.004   0.664  16.283  1.3624 -1.2582 -0.1325
12403TIP3   OH258699   2.406   5.816  12.769  0.1293  0.3942  0.0942
12403TIP3    H158700   2.326   5.787  12.725  0.4084 -0.7227  0.2950
12403TIP3    H258701   2.377   5.847  12.855  0.1411 -2.3790  1.1867
12404TIP3   OH258702   4.041   2.847   4.020  0.0553 -0.0107  0.3985
12404TIP3    H158703   4.114   2.788   4.000 -0.6614 -1.0517  0.7991
12404TIP3    H258704   3.998   2.860   3.936 -0.5713 -1.1515  0.5249
12405TIP3   OH258705   5.711   0.161  12.351  0.2322 -0.2328 -0.2751
12405TIP3    H158706   5.789   0.106  12.342  0.6613  0.4545 -0.9242
12405TIP3    H258707   5.665   0.126  12.427  1.3866 -0.3997  0.3660
12406TIP3   OH258708   6.087   3.707  12.288  0.3055  0.1473 -0.7387
12406TIP3    H158709   6.068   3.623  12.246 -0.3116 -0.4023  0.5676
12406TIP3    H258710   6.009   3.725  12.342  0.2672  1.7540 -1.2743
12407TIP3   OH258711   3.942   3.584  15.450 -0.0577 -0.7533 -0.1136
12407TIP3    H158712   3.875   3.642  15.415 -0.2289 -0.5926  0.4689
12407TIP3    H258713   4.019   3.600  15.395 -0.2126 -0.2435 -0.1858
12408TIP3   OH258714   5.637   3.532  14.666  0.2682 -0.0814 -0.2182
12408TIP3    H158715   5.679   3.618  14.665  0.6988 -0.2759 -1.3785
12408TIP3    H258716   5.699   3.476  14.712  0.8601 -0.1569 -1.0795
12409TIP3   OH258717   6.266   5.387   6.303 -0.5664  0.0630  0.0460
12409TIP3    H158718   6.219   5.467   6.327 -1.7594 -0.2600 -1.1026
12409TIP3    H258719   6.217   5.317   6.347 -0.4958 -0.1783 -0.2565
12410TIP3   OH258720   2.076   2.133  16.661  0.3262  0.0657 -0.1476
12410TIP3    H158721   2.117   2.219  16.665 -1.4983  0.9333  1.8334
12410TIP3    H258722   2.005   2.144  16.598  1.7563 -0.8588 -2.0274
12411TIP3   OH258723   6.264   2.304  16.846  0.6152 -0.2278  0.1423
12411TIP3    H158724   6.195   2.258  16.798  1.1897 -1.4697  0.4720
12411TIP3    H258725   6.342   2.249  16.835  1.4800  0.9759  0.0554
12412TIP3   OH258726   1.428   6.353  13.676  0.4236  0.0464  0.2929
12412TIP3    H158727   1.386   6.433  13.646 -1.4677 -0.1163  2.2707
12412TIP3    H258728   1.491   6.383  13.743  1.5806  0.0476 -0.7537
12413TIP3   OH258729   2.078   4.568  13.172  0.2371 -0.6660  0.1317
12413TIP3    H158730   2.145   4.500  13.184 -0.0122 -1.2456 -1.5413
12413TIP3    H258731   1.995   4.520  13.172 -0.4402  0.1817  3.6391
12414TIP3   OH258732   4.933   0.564  11.884 -0.2487  0.1486  0.1632
12414TIP3    H158733   5.018   0.559  11.840  0.6295 -0.2487  1.8307
12414TIP3    H258734   4.881   0.495  11.843  1.0785 -1.2860  0.7735
12415TIP3   OH258735   0.539   2.229   5.063  0.0420 -0.1665 -0.5140
12415TIP3    H158736   0.508   2.298   5.005  0.8547 -0.5807 -1.4775
12415TIP3    H258737   0.590   2.275   5.130  0.3168  0.2025 -0.9719
12416TIP3   OH258738   3.221   3.602   0.617 -0.0161 -0.2429 -0.3960
12416TIP3    H158739   3.279   3.663   0.663 -0.0861  0.0020 -0.6351
12416TIP3    H258740   3.245   3.609   0.525  1.3227 -2.0032 -0.2419
12417TIP3   OH258741   2.918   4.464  13.982  0.1056  0.1656 -0.5504
12417TIP3    H158742   2.853   4.394  13.988 -1.3443  1.5548  0.9535
12417TIP3    H258743   2.949   4.476  14.072  0.5132  1.2692 -0.8132
12418TIP3   OH258744   0.509   3.448  15.242 -0.2579 -0.6369 -0.5153
12418TIP3    H158745   0.590   3.442  15.291  1.5524 -0.9868 -3.2988
12418TIP3    H258746   0.451   3.383  15.283  1.3736 -1.4197  0.6615
12419TIP3   OH258747   1.499   5.682   3.690  0.2034 -0.1030 -0.2338
12419TIP3    H158748   1.548   5.689   3.608 -0.4976  1.8123 -0.5303
12419TIP3    H258749   1.416   5.725   3.672 -0.6218 -1.0859  1.0185
12420TIP3   OH258750   5.812   0.659   0.746 -0.4083 -0.5008  0.5039
12420TIP3    H158751   5.806   0.747   0.710  0.3885 -0.1136  1.2714
12420TIP3    H258752   5.888   0.621   0.701  0.2537 -0.2052  1.3322
12421TIP3   OH258753   3.726   5.911  16.047  0.1433  0.1508 -0.6192
12421TIP3    H158754   3.763   5.909  16.135  3.6648  0.4963 -1.9047
12421TIP3    H258755   3.663   5.983  16.048  0.3161  0.3212  1.5156
12422TIP3   OH258756   5.452   0.494   3.962 -0.3982 -0.1300  0.0407
12422TIP3    H158757   5.497   0.480   3.879  2.2492  0.1329  1.3096
12422TIP3    H258758   5.373   0.439   3.957 -0.3810 -0.0176 -2.6346
12423TIP3   OH258759   2.169   1.096  14.715 -0.3161 -0.4116 -0.1324
12423TIP3    H158760   2.085   1.062  14.685 -0.1134 -0.2278 -0.9302
12423TIP3    H258761   2.171   1.076  14.808 -2.5303  2.1030  0.5761
12424TIP3   OH258762   4.228   3.842   4.342  0.2938  0.6982 -0.1893
12424TIP3    H158763   4.169   3.912   4.313 -1.2454 -0.8763 -1.0063
12424TIP3    H258764   4.244   3.862   4.435  2.7248  4.0269 -1.1371
12425TIP3   OH258765   0.895   6.738  11.017  0.1409 -0.6640 -0.0379
12425TIP3    H158766   0.989   6.727  11.002  0.1690 -0.4664 -0.0200
12425TIP3    H258767   0.889   6.769  11.107  0.0618 -0.6465 -0.0485
12426TIP3   OH258768   1.270   5.570   3.239 -0.2188  0.0867  0.2266
12426TIP3    H158769   1.231   5.498   3.190 -2.2986  0.4291  1.2681
12426TIP3    H258770   1.226   5.569   3.324  0.7176  1.7091  0.7891
12427TIP3   OH258771   4.212   4.583   6.321  0.1400  0.0973 -0.2585
12427TIP3    H158772   4.173   4.606   6.405 -0.1470 -0.1442 -0.3266
12427TIP3    H258773   4.174   4.499   6.298  2.9724 -1.7389  1.1479
12428TIP3   OH258774   5.512   0.665   2.780 -0.2480 -0.4672 -0.6165
12428TIP3    H158775   5.453   0.626   2.715  0.4751  0.6925 -2.0549
12428TIP3    H258776   5.584   0.603   2.788 -1.2550 -1.5277  0.5681
12429TIP3   OH258777   4.364   6.638   5.216  0.3349  0.0247  0.2279
12429TIP3    H158778   4.370   6.639   5.311  1.5235 -0.6194  0.1767
12429TIP3    H258779   4.344   6.729   5.192 -2.5569 -0.2709  1.2019
12430TIP3   OH258780   5.703   5.620   2.074  0.6988  0.4067  0.6581
12430TIP3    H158781   5.716   5.700   2.023  2.4322 -0.3811 -0.2105
12430TIP3    H258782   5.662   5.559   2.012 -0.3790  0.5166  1.2423
12431TIP3   OH258783   4.313   1.649  14.779 -0.1250 -0.3409 -0.4190
12431TIP3    H158784   4.318   1.582  14.847 -1.6266  0.7707  0.8560
12431TIP3    H258785   4.377   1.716  14.806 -0.7285  0.1056 -0.0631
12432TIP3   OH258786   6.001   2.007   2.132 -0.4672  0.2157 -0.1978
12432TIP3    H158787   6.052   1.931   2.157  0.6123  1.3101  1.0796
12432TIP3    H258788   5.910   1.981   2.148 -0.2733 -1.3876 -1.4835
12433TIP3   OH258789   5.025   3.576   1.633 -0.4679 -0.3050 -0.0737
12433TIP3    H158790   5.056   3.599   1.545  2.2109 -1.1953  0.5527
12433TIP3    H258791   4.964   3.646   1.656  3.4212  3.5568 -0.2201
12434TIP3   OH258792   0.373   5.328   2.993  0.2578 -0.8723  0.7286
12434TIP3    H158793   0.310   5.275   2.944 -1.4137  1.2241  0.4327
12434TIP3    H258794   0.398   5.273   3.067  0.1366 -2.7735 -0.5858
12435TIP3   OH258795   3.701   0.573  13.202  0.0041 -0.4741  0.2572
12435TIP3    H158796   3.656   0.595  13.120 -2.0610 -0.1348  1.4137
12435TIP3    H258797   3.728   0.482  13.191  1.4770  0.1081 -1.4893
12436TIP3   OH258798   3.687   5.334   0.484 -0.3353 -0.2841 -0.1605
12436TIP3    H158799   3.764   5.322   0.429  1.2001  0.5111  1.7167
12436TIP3    H258800   3.644   5.413   0.449  0.7550  0.3570 -0.0782
12437TIP3   OH258801   5.684   4.767  11.828 -0.2044  0.0806 -0.2034
12437TIP3    H158802   5.713   4.696  11.772 -0.0088  0.8531 -1.1148
12437TIP3    H258803   5.693   4.734  11.917 -0.0932 -1.0112 -0.6145
12438TIP3   OH258804   2.100   5.338  16.825 -0.1518 -0.2214  0.0005
12438TIP3    H158805   2.083   5.269  16.889 -0.3135 -0.0263  0.1682
12438TIP3    H258806   2.113   5.292  16.742  2.8668 -0.7460  0.6324
12439TIP3   OH258807   1.652   2.271  10.211 -0.5082  0.2662  0.1821
12439TIP3    H158808   1.740   2.302  10.192 -0.4306 -0.6912 -1.1910
12439TIP3    H258809   1.603   2.287  10.130 -1.2656 -0.3380  0.5071
12440TIP3   OH258810   4.023   3.241  14.592  0.3369  0.3928 -0.1292
12440TIP3    H158811   3.968   3.168  14.563  2.9275 -2.1288  0.7416
12440TIP3    H258812   4.072   3.267  14.514  0.7065 -0.0806 -0.0614
12441TIP3   OH258813   4.964   5.915  15.350  0.3478  0.2067  0.4188
12441TIP3    H158814   4.902   5.987  15.340 -1.6106 -1.6533 -2.2274
12441TIP3    H258815   4.909   5.838  15.366  1.8523 -1.5362 -2.0287
12442TIP3   OH258816   3.881   3.582  14.544  0.7893  0.4581 -0.2218
12442TIP3    H158817   3.865   3.529  14.622 -1.8943  1.1797 -0.1808
12442TIP3    H258818   3.941   3.529  14.492 -1.8565 -2.8790 -0.2715
12443TIP3   OH258819   2.826   2.670  14.647 -0.4915 -0.8108  0.5195
12443TIP3    H158820   2.778   2.627  14.719 -0.8988 -1.9418 -0.3962
12443TIP3    H258821   2.832   2.603  14.579 -1.3291  0.6392 -1.0591
12444TIP3   OH258822   1.798   2.853  13.841  0.2183  0.2692 -0.7427
12444TIP3    H158823   1.767   2.847  13.932 -0.4254  1.3955 -0.8615
12444TIP3    H258824   1.865   2.921  13.844  0.1270  0.3750 -1.1268
12445TIP3   OH258825   1.655   6.323  13.859 -0.6552 -0.0806  0.2464
12445TIP3    H158826   1.677   6.393  13.921  1.1466 -0.8270  0.5206
12445TIP3    H258827   1.700   6.348  13.778 -0.4022 -0.6628  0.2018
12446TIP3   OH258828   2.251   4.082  11.522  0.7594 -0.6279 -0.3296
12446TIP3    H158829   2.330   4.133  11.538 -1.4519  3.0218  0.1479
12446TIP3    H258830   2.216   4.118  11.440 -1.0730 -1.1461  0.1950
12447TIP3   OH258831   6.332   4.239   1.588  0.2312 -0.2100 -0.3205
12447TIP3    H158832   6.348   4.158   1.636  1.2497 -0.3461 -0.8474
12447TIP3    H258833   6.356   4.217   1.497  0.0643  0.5475 -0.5523
12448TIP3   OH258834   5.706   3.567   0.977  0.4172 -0.0841 -0.3447
12448TIP3    H158835   5.740   3.483   0.946 -2.7203 -1.9728  0.7973
12448TIP3    H258836   5.620   3.575   0.935 -0.6773  0.9818  1.8753
12449TIP3   OH258837   1.882   3.415  15.372 -0.1947 -0.3251 -0.4131
12449TIP3    H158838   1.932   3.448  15.446  0.6970 -0.3124 -1.0082
12449TIP3    H258839   1.938   3.348  15.333 -0.4026  0.0588 -1.4119
12450TIP3   OH258840   3.047   2.645  12.658 -0.1587  0.0058 -0.1817
12450TIP3    H158841   3.056   2.739  12.643  0.5487  0.5061  2.7469
12450TIP3    H258842   3.003   2.612  12.579 -2.5409  3.1298 -0.3476
12451TIP3   OH258843   6.223   5.746  15.668 -0.2606 -0.1734 -0.5110
12451TIP3    H158844   6.131   5.761  15.648 -0.9705 -0.3880  2.1343
12451TIP3    H258845   6.230   5.651  15.681 -0.1188  0.0238  1.0364
12452TIP3   OH258846   0.697   6.597  11.530 -0.1805 -0.4506  0.1122
12452TIP3    H158847   0.677   6.683  11.566 -1.3285 -1.1466  1.2084
12452TIP3    H258848   0.624   6.578  11.471 -0.7226 -1.2831  1.0187
12453TIP3   OH258849   6.003   2.553  16.025  0.0452 -0.6325 -0.6870
12453TIP3    H158850   6.052   2.471  16.031  1.9987  0.5013 -0.1852
12453TIP3    H258851   5.978   2.560  15.933  0.6524 -1.3655 -0.9156
12454TIP3   OH258852   3.074   0.374   1.965 -0.1431 -0.5058 -0.0017
12454TIP3    H158853   2.990   0.419   1.965 -1.0661 -2.0963  1.5160
12454TIP3    H258854   3.123   0.415   2.036 -0.2985 -0.7315  0.2344
12455TIP3   OH258855   3.214   5.460  15.445 -0.3212  0.3719 -0.1849
12455TIP3    H158856   3.259   5.478  15.363  2.5972 -1.1186  0.9449
12455TIP3    H258857   3.213   5.364  15.451 -2.6109  0.3837  0.4728
12456TIP3   OH258858   6.638   0.679   5.824  0.4739 -0.7042 -0.0723
12456TIP3    H158859   6.596   0.606   5.778 -1.0373  0.7727 -1.1844
12456TIP3    H258860   6.672   0.640   5.905 -1.0779 -2.4593 -0.1868
12457TIP3   OH258861   0.277   4.251   0.873 -0.3254  0.3963 -0.3732
12457TIP3    H158862   0.358   4.277   0.916 -0.1217  1.0575 -1.1292
12457TIP3    H258863   0.303   4.231   0.783 -0.9648  0.3660 -0.5579
12458TIP3   OH258864   4.092   3.795   5.314  0.1448 -0.0296  0.4922
12458TIP3    H158865   4.060   3.769   5.227 -2.2853 -2.2675  1.9233
12458TIP3    H258866   4.127   3.884   5.300 -1.1999  0.1711 -2.5224
12459TIP3   OH258867   2.242   5.672   2.188 -0.1660  0.0440 -0.4793
12459TIP3    H158868   2.182   5.695   2.258  0.1228  2.1938 -0.8565
12459TIP3    H258869   2.189   5.675   2.108 -0.3398 -1.7057 -0.4612
12460TIP3   OH258870   4.874   0.472  16.568 -0.1873 -0.4406  0.2531
12460TIP3    H158871   4.805   0.536  16.583  1.1244  0.6041  2.2155
12460TIP3    H258872   4.914   0.500  16.485 -2.1103 -1.1335 -0.9669
12461TIP3   OH258873   6.392   4.491   5.529 -0.2734 -0.2378  0.3028
12461TIP3    H158874   6.433   4.434   5.594  0.7245  0.7592  0.5766
12461TIP3    H258875   6.343   4.431   5.472  2.9468 -1.7546 -1.1201
12462TIP3   OH258876   3.930   4.682  15.707  0.0344  0.0697  0.0528
12462TIP3    H158877   3.925   4.591  15.737 -0.1096  0.5425  1.5337
12462TIP3    H258878   3.931   4.734  15.787  0.4739  1.3701 -0.7676
12463TIP3   OH258879   1.593   5.075   4.644  0.0762  0.5142 -0.5107
12463TIP3    H158880   1.580   5.022   4.723  0.7738 -0.0800 -0.7823
12463TIP3    H258881   1.615   5.163   4.677  1.3861  0.0239 -0.0093
12464TIP3   OH258882   2.619   3.932   2.743  0.3329  0.1472 -0.6228
12464TIP3    H158883   2.638   3.983   2.822  2.6933 -0.6507 -0.6075
12464TIP3    H258884   2.636   3.992   2.671  1.4796 -0.1039 -0.5715
12465TIP3   OH258885   2.618   4.368   5.529  0.2123  0.5068  0.1211
12465TIP3    H158886   2.674   4.401   5.458  1.1174 -1.5910 -0.1968
12465TIP3    H258887   2.572   4.294   5.490 -0.0846 -0.0235  1.4423
12466TIP3   OH258888   2.191   5.452   3.856  0.3389  0.0438 -0.2527
12466TIP3    H158889   2.138   5.471   3.934  1.1140 -1.1119  0.5923
12466TIP3    H258890   2.145   5.496   3.785 -1.2311 -0.1162  0.6052
12467TIP3   OH258891   2.192   4.294   2.277  0.3044  0.1252 -0.1492
12467TIP3    H158892   2.201   4.203   2.251  1.2677  0.2068 -0.1368
12467TIP3    H258893   2.182   4.291   2.372  1.3365  0.0780 -0.0317
12468TIP3   OH258894   5.265   1.395   2.211 -0.4929  0.2941  0.5848
12468TIP3    H158895   5.305   1.314   2.178 -2.9176 -2.5089  3.8240
12468TIP3    H258896   5.177   1.395   2.174 -0.5029  1.5645  0.5642
12469TIP3   OH258897   5.422   4.866   5.842 -0.4086 -0.3095 -0.3528
12469TIP3    H158898   5.386   4.805   5.778 -0.0012  0.4710 -1.3569
12469TIP3    H258899   5.352   4.931   5.855 -0.2627 -0.1234 -0.4842
12470TIP3   OH258900   0.971   2.763  15.303 -0.0602  0.0381  0.0827
12470TIP3    H158901   0.979   2.721  15.389 -0.1661 -0.4091 -0.1219
12470TIP3    H258902   0.918   2.841  15.320 -0.2665 -0.1636  0.3887
12471TIP3   OH258903   2.040   0.285   4.423 -0.3851 -0.3612  0.2781
12471TIP3    H158904   2.102   0.219   4.456  1.2284  0.5367 -0.8211
12471TIP3    H258905   2.005   0.326   4.502 -1.4648 -2.5093  0.9907
12472TIP3   OH258906   5.541   4.606   5.391  0.0695 -0.4353 -0.2264
12472TIP3    H158907   5.521   4.684   5.340  0.9955 -0.6371 -0.9218
12472TIP3    H258908   5.526   4.533   5.331  0.0118 -0.7478  0.1620
12473TIP3   OH258909   4.753   2.501   3.373  0.2687  0.4118  0.1296
12473TIP3    H158910   4.757   2.405   3.381 -1.0760 -0.0212 -3.0276
12473TIP3    H258911   4.687   2.527   3.436 -1.1223 -1.0903 -0.6284
12474TIP3   OH258912   3.931   2.882   1.406 -0.0078 -0.1091  0.1160
12474TIP3    H158913   3.919   2.977   1.415 -0.3825 -0.3126  2.2193
12474TIP3    H258914   3.885   2.860   1.324  2.0382  1.7915 -1.6523
12475TIP3   OH258915   1.413   2.470  11.838  0.5910  0.1214 -0.5975
12475TIP3    H158916   1.322   2.487  11.863  0.8602  1.6295 -0.5505
12475TIP3    H258917   1.441   2.550  11.794  1.1361 -1.2376 -2.9087
12476TIP3   OH258918   3.520   4.340  11.816  0.3305 -0.3275  0.4679
12476TIP3    H158919   3.549   4.356  11.906  3.5212  0.7578 -0.5782
12476TIP3    H258920   3.499   4.427  11.782 -0.3915 -0.6729  0.0018
12477TIP3   OH258921   4.138   4.591  14.844  0.3974 -0.4596  0.1859
12477TIP3    H158922   4.147   4.499  14.819  0.7413  0.0581 -1.8492
12477TIP3    H258923   4.077   4.627  14.780  1.8572  1.1523 -0.4027
12478TIP3   OH258924   1.011   2.987   1.742  0.8309  0.3680  0.2380
12478TIP3    H158925   0.919   2.987   1.769  1.4732  1.5277  2.7506
12478TIP3    H258926   1.052   2.923   1.801  1.9055  1.1521  0.3698
12479TIP3   OH258927   3.908   0.976  13.251 -0.4663 -0.3166 -0.2132
12479TIP3    H158928   3.991   0.933  13.233 -0.6690 -0.1593 -1.5803
12479TIP3    H258929   3.892   1.032  13.176 -1.8609 -0.4137 -0.0251
12480TIP3   OH258930   0.586   1.060   2.480  0.5095  0.3782  0.1842
12480TIP3    H158931   0.651   0.990   2.479  0.2266  0.1176 -0.0541
12480TIP3    H258932   0.619   1.125   2.417 -1.2350 -1.3937 -2.8033
12481TIP3   OH258933   3.687   2.445   5.585 -0.0935  0.4430  0.7849
12481TIP3    H158934   3.727   2.397   5.658  2.2857  1.5912  0.3239
12481TIP3    H258935   3.607   2.396   5.565  0.2582 -1.0698  2.8135
12482TIP3   OH258936   1.778   5.685   0.072  0.2214  0.1525  0.5453
12482TIP3    H158937   1.800   5.704   0.163 -0.4205 -1.7380  1.1402
12482TIP3    H258938   1.810   5.596   0.058 -1.0840 -0.1652 -0.6008
12483TIP3   OH258939   4.070   3.037  15.799 -0.4125 -0.0314 -0.2546
12483TIP3    H158940   4.151   3.068  15.758 -0.2801  1.0372  0.7730
12483TIP3    H258941   4.009   3.111  15.792 -0.9970 -0.4955 -0.1720
12484TIP3   OH258942   5.170   3.317  14.934  0.2651 -0.4494 -0.2501
12484TIP3    H158943   5.076   3.336  14.929  0.1493 -1.0242 -0.3057
12484TIP3    H258944   5.202   3.337  14.846  0.4888  1.2040  0.1691
12485TIP3   OH258945   6.154   3.463  11.487  0.2112  0.5749  0.5703
12485TIP3    H158946   6.090   3.472  11.417 -0.2973 -1.2192  0.7543
12485TIP3    H258947   6.226   3.415  11.448  0.5090  0.7191  0.9345
12486TIP3   OH258948   3.447   0.570   1.381  0.7972 -0.4798 -0.1152
12486TIP3    H158949   3.359   0.591   1.350  0.5015  0.9152  1.4925
12486TIP3    H258950   3.443   0.478   1.405 -0.4427 -0.2855  0.5162
12487TIP3   OH258951   1.689   0.268  12.041 -0.2067  0.5405  0.4792
12487TIP3    H158952   1.702   0.361  12.059 -1.0586  0.2664  2.8356
12487TIP3    H258953   1.594   0.258  12.031 -0.0117  0.1358 -1.3647
12488TIP3   OH258954   4.043   0.939   2.592  0.2500 -0.0633  0.2419
12488TIP3    H158955   3.952   0.946   2.562  1.2204  0.1769 -2.9960
12488TIP3    H258956   4.054   0.847   2.616 -0.7567 -0.1431  0.4311
12489TIP3   OH258957   1.620   2.091  14.684  0.6194  0.2209 -0.0823
12489TIP3    H158958   1.586   2.087  14.773  1.5387  0.2117  0.2798
12489TIP3    H258959   1.633   2.185  14.668 -0.1236  0.2682 -0.4386
12490TIP3   OH258960   2.638   0.065  11.723  0.6123  0.5395 -0.0724
12490TIP3    H158961   2.551   0.103  11.711 -0.6824 -2.3457 -0.5554
12490TIP3    H258962   2.634   0.020  11.807  1.0246 -1.1005 -0.8970
12491TIP3   OH258963   4.116   6.560   0.301  0.1044  0.5903 -0.9160
12491TIP3    H158964   4.147   6.579   0.390 -0.7880 -0.3588 -0.3782
12491TIP3    H258965   4.056   6.631   0.281 -2.5906 -1.0424  0.7622
12492TIP3   OH258966   3.687   2.865   5.809 -0.1503  0.1654  0.2009
12492TIP3    H158967   3.712   2.833   5.896 -0.1813 -0.3359  0.0290
12492TIP3    H258968   3.694   2.788   5.753 -1.8120  0.0518  0.1003
12493TIP3   OH258969   3.393   2.442  12.123 -0.0285  0.1412  0.7581
12493TIP3    H158970   3.392   2.410  12.213 -0.1544  1.2008  1.1480
12493TIP3    H258971   3.422   2.367  12.071  1.1468 -0.1540  1.8022
12494TIP3   OH258972   4.684   2.475  14.476 -0.0030  0.0974  0.1657
12494TIP3    H158973   4.672   2.568  14.462  0.2981  0.2161  0.6765
12494TIP3    H258974   4.772   2.467  14.514  0.1039 -0.4198 -0.1716
12495TIP3   OH258975   2.175   2.474  14.740 -0.0101 -0.6045  0.7297
12495TIP3    H158976   2.175   2.544  14.676 -1.9773 -1.1228  0.0828
12495TIP3    H258977   2.264   2.471  14.773  0.8242  0.2752 -1.3161
12496TIP3   OH258978   0.336   0.369   5.105  0.1421 -0.1863  0.5618
12496TIP3    H158979   0.390   0.291   5.092  1.5094  0.5953  1.3096
12496TIP3    H258980   0.396   0.442   5.091 -0.8065  0.7209  1.0932
12497TIP3   OH258981   6.286   5.605  12.919 -0.0467  0.1575  0.2115
12497TIP3    H158982   6.342   5.550  12.865 -0.0240  0.7619 -0.3840
12497TIP3    H258983   6.345   5.643  12.984  0.0024 -0.2053  0.3842
12498TIP3   OH258984   3.292   5.691  11.527 -0.3126 -0.3351  0.0439
12498TIP3    H158985   3.283   5.677  11.621  3.1533  1.3989  0.8104
12498TIP3    H258986   3.381   5.725  11.516 -0.4229 -0.8176 -3.9338
12499TIP3   OH258987   0.563   2.995  16.298  0.1463  0.2833  0.5499
12499TIP3    H158988   0.476   3.029  16.320 -0.0283 -0.0177  0.3370
12499TIP3    H258989   0.617   3.073  16.284 -0.7432  0.5530 -1.9381
12500TIP3   OH258990   3.693   6.322   5.853 -0.5126  0.7036 -0.0561
12500TIP3    H158991   3.694   6.370   5.936 -0.0576  0.2362  0.2102
12500TIP3    H258992   3.613   6.271   5.855 -0.6981  0.9888 -0.0796
12501TIP3   OH258993   5.993   2.546   5.000  0.1262  0.3349 -0.1292
12501TIP3    H158994   6.015   2.475   4.940 -0.5810  1.9901 -2.4717
12501TIP3    H258995   5.902   2.567   4.980 -0.5507  0.1476  2.4443
12502TIP3   OH258996   2.875   1.021  12.451 -0.0832 -0.4648 -0.7531
12502TIP3    H158997   2.916   1.041  12.367 -0.4309 -3.6568 -1.8120
12502TIP3    H258998   2.936   0.962  12.494  0.4954  1.7409  1.7614
12503TIP3   OH258999   1.710   2.079   1.741  0.4487  0.3986  0.4337
12503TIP3    H159000   1.705   1.983   1.745 -1.4146  0.4615  0.3827
12503TIP3    H259001   1.720   2.098   1.648 -2.1968  0.2860  0.0426
12504TIP3   OH259002   2.501   3.240  14.421 -1.0649  0.7058 -0.5899
12504TIP3    H159003   2.442   3.165  14.421  1.2758 -1.2943  0.0350
12504TIP3    H259004   2.453   3.309  14.376 -3.8752 -0.7016  0.0310
12505TIP3   OH259005   6.636   0.103   6.285 -0.1875  0.3421  0.3608
12505TIP3    H159006   6.557   0.106   6.339  0.0778  0.0037  0.7717
12505TIP3    H259007   6.683   0.026   6.316 -0.7413 -0.7466 -1.3463
12506TIP3   OH259008   5.334   6.387   0.782 -0.5396 -0.3552  0.0759
12506TIP3    H159009   5.311   6.319   0.846  0.1419 -0.2502  0.4340
12506TIP3    H259010   5.398   6.345   0.725 -0.2500 -0.0699  0.1890
12507TIP3   OH259011   2.811   1.277  15.141 -0.3592  0.1566  0.0459
12507TIP3    H159012   2.858   1.249  15.220  0.7327 -0.2267 -0.7242
12507TIP3    H259013   2.751   1.345  15.172 -1.8231 -1.7771  1.6662
12508TIP3   OH259014   5.355   1.869  10.807 -0.1665  0.0097 -0.0923
12508TIP3    H159015   5.312   1.836  10.728 -1.4427  0.1158  0.5479
12508TIP3    H259016   5.428   1.922  10.773 -0.1297 -0.6876 -1.1742
12509TIP3   OH259017   3.975   0.568  13.110  0.7138 -0.4744  0.1287
12509TIP3    H159018   3.895   0.561  13.163  0.5477  1.4276  0.2097
12509TIP3    H259019   3.945   0.556  13.020 -0.0256  1.8920 -0.0090
12510TIP3   OH259020   6.367   0.192  16.969 -0.0547 -0.0354 -0.5393
12510TIP3    H159021   6.287   0.148  16.996 -0.3888 -0.6738 -2.4406
12510TIP3    H259022   6.410   0.217  17.052 -2.0347  0.0591  0.5233
12511TIP3   OH259023   1.376   1.060   6.035 -0.0493 -0.7237  0.4796
12511TIP3    H159024   1.374   1.101   5.948 -0.3396  0.2637  0.9321
12511TIP3    H259025   1.304   0.997   6.033 -1.0047  0.3259  0.4631
12512TIP3   OH259026   4.176   5.662  15.365 -0.2846  0.1496 -0.1027
12512TIP3    H159027   4.088   5.643  15.335 -0.3654  0.2040  0.0986
12512TIP3    H259028   4.166   5.688  15.457  0.1178 -1.4295  0.4167
12513TIP3   OH259029   2.325   2.986  16.704 -0.1663  0.5589  0.1585
12513TIP3    H159030   2.296   2.901  16.671 -0.2363  0.4374  0.5227
12513TIP3    H259031   2.419   2.987  16.689 -0.1361  0.3379  0.3268
12514TIP3   OH259032   2.234   0.941  13.281 -0.1597  0.3023 -1.1018
12514TIP3    H159033   2.209   1.011  13.341  0.9777 -1.0018  1.0118
12514TIP3    H259034   2.327   0.957  13.263 -0.2992  0.2366 -1.8859
12515TIP3   OH259035   4.516   0.451   3.942  0.4719 -0.0293  0.2047
12515TIP3    H159036   4.424   0.426   3.949  0.4230 -0.9451 -2.5077
12515TIP3    H259037   4.535   0.498   4.023 -2.1923 -0.3774  1.1082
12516TIP3   OH259038   5.337   5.244  14.898 -0.1276  0.2437  0.3004
12516TIP3    H159039   5.379   5.197  14.969  1.7322  0.7431 -0.4169
12516TIP3    H259040   5.313   5.176  14.835  0.2778  0.0227  0.3860
12517TIP3   OH259041   1.961   2.186   1.794 -0.3077  0.4539  0.1804
12517TIP3    H159042   1.988   2.142   1.874  0.6659 -1.2135 -1.0013
12517TIP3    H259043   1.878   2.144   1.770  0.0880 -0.0273 -0.3867
12518TIP3   OH259044   3.982   6.127  13.611 -0.1628 -0.2461  0.1570
12518TIP3    H159045   3.907   6.067  13.620  1.0865 -1.6242  2.3097
12518TIP3    H259046   4.003   6.152  13.701  1.1930  1.1154 -0.5083
12519TIP3   OH259047   6.477   2.169   6.806  0.0131 -0.7486  0.2961
12519TIP3    H159048   6.517   2.083   6.799  0.4611 -0.4351 -1.3496
12519TIP3    H259049   6.409   2.170   6.739 -1.0608 -0.3497  1.3374
12520TIP3   OH259050   4.899   0.054   0.277  0.3853  0.0647 -0.2157
12520TIP3    H159051   4.986   0.035   0.310  1.3373 -0.5097 -2.8100
12520TIP3    H259052   4.909   0.133   0.225 -0.5230 -0.2250 -0.8715
12521TIP3   OH259053   2.349   2.517   1.391 -0.5460  0.6765  0.6037
12521TIP3    H159054   2.383   2.599   1.426 -0.7340  1.8276 -1.6953
12521TIP3    H259055   2.389   2.448   1.444  2.4261  2.1044  0.3729
12522TIP3   OH259056   1.409   3.016   3.900  0.4901 -0.7695 -0.3316
12522TIP3    H159057   1.362   2.933   3.896  0.0344 -0.4647 -1.7982
12522TIP3    H259058   1.485   3.004   3.844  1.0036 -0.5353  0.3038
12523TIP3   OH259059   6.722   3.494   5.577  0.2327 -0.1699 -0.6365
12523TIP3    H159060   6.780   3.528   5.509  1.9115 -2.2321 -0.3428
12523TIP3    H259061   6.734   3.554   5.651  2.1502 -0.6026 -0.5466
12524TIP3   OH259062   4.473   1.932  11.869 -0.3278  0.0739  0.2106
12524TIP3    H159063   4.498   2.013  11.824  1.7682 -1.2814 -1.2334
12524TIP3    H259064   4.402   1.896  11.815  0.0259  0.0334 -0.2376
12525TIP3   OH259065   1.942   3.821   1.269 -0.6522 -0.0798  0.2377
12525TIP3    H159066   1.954   3.809   1.175 -0.4286  2.1281 -0.0740
12525TIP3    H259067   1.848   3.809   1.283 -0.7485 -0.0210 -0.3373
12526TIP3   OH259068   1.035   0.704   5.548 -0.0259  0.0029  0.2138
12526TIP3    H159069   1.108   0.726   5.489  0.2830 -0.4490  0.4229
12526TIP3    H259070   1.038   0.609   5.555  1.6344  0.1616  3.0358
12527TIP3   OH259071   0.552   6.071   1.908 -1.1778  1.0982 -0.5271
12527TIP3    H159072   0.628   6.033   1.864 -0.5358  2.0934 -0.3025
12527TIP3    H259073   0.518   5.999   1.962 -1.0554  0.3270 -1.4469
12528TIP3   OH259074   0.062   1.047  11.317  0.2247 -0.2419 -0.3190
12528TIP3    H159075   0.079   1.020  11.407  0.2475 -0.2650 -0.3300
12528TIP3    H259076   0.147   1.079  11.286 -0.2280  1.7274  0.3371
12529TIP3   OH259077   4.123   5.749  12.076  0.1876  0.1880  0.3374
12529TIP3    H159078   4.179   5.826  12.081 -0.0426  0.4617 -1.1362
12529TIP3    H259079   4.182   5.676  12.096  1.2344  0.4141 -1.7310
12530TIP3   OH259080   3.234   0.082  15.221  0.8476  0.2226  0.0171
12530TIP3    H159081   3.240  -0.003  15.176  0.0638 -0.2538  0.7782
12530TIP3    H259082   3.230   0.146  15.149 -0.3773 -0.5247 -0.6237
12531TIP3   OH259083   1.175   4.585  11.680  0.3691 -0.1844 -0.2504
12531TIP3    H159084   1.097   4.553  11.727  0.6225 -0.6639 -0.1464
12531TIP3    H259085   1.174   4.536  11.597  0.5001 -0.1138 -0.2942
12532TIP3   OH259086   3.595   1.284   4.273 -0.5255  0.3029 -0.5967
12532TIP3    H159087   3.673   1.330   4.306  0.3338 -2.3813  1.5441
12532TIP3    H259088   3.539   1.353   4.239  2.5759  2.4346 -1.8635
12533TIP3   OH259089   3.135   2.427  11.967  0.2401  0.2990  0.4459
12533TIP3    H159090   3.210   2.463  12.015  0.0092  0.4461  0.6951
12533TIP3    H259091   3.063   2.431  12.029 -0.3583  1.6103 -0.3055
12534TIP3   OH259092   5.839   5.447  10.896  0.7022 -0.2827  0.3943
12534TIP3    H159093   5.831   5.355  10.874  2.3369 -0.3142 -0.1695
12534TIP3    H259094   5.804   5.454  10.985 -2.5349 -0.8169 -0.7102
12535TIP3   OH259095   1.209   5.071  11.353 -0.3352 -0.0980  0.3768
12535TIP3    H159096   1.209   5.078  11.449 -1.0133 -0.5074  0.4083
12535TIP3    H259097   1.210   5.162  11.323  1.9224  0.0614  0.7473
12536TIP3   OH259098   0.182   0.442  11.345  0.1788 -0.3415 -0.0197
12536TIP3    H159099   0.196   0.529  11.383  1.6850 -0.3253 -0.5376
12536TIP3    H259100   0.088   0.437  11.329  0.2826  1.9171 -1.7141
12537TIP3   OH259101   4.410   4.919   5.391  0.0575  0.2403 -0.1239
12537TIP3    H159102   4.480   4.858   5.417 -0.5828  0.1015  1.3704
12537TIP3    H259103   4.330   4.867   5.396 -0.3960  0.9704  0.2872
12538TIP3   OH259104   2.612   2.097  10.731 -0.3127  0.4780  0.3164
12538TIP3    H159105   2.564   2.016  10.715 -0.8131  0.8421 -0.0933
12538TIP3    H259106   2.693   2.070  10.774 -0.6001 -0.2077  0.4293
12539TIP3   OH259107   4.984   0.605   2.787  0.0743 -0.2820  0.5349
12539TIP3    H159108   4.927   0.613   2.710  0.7591 -0.9882 -0.0629
12539TIP3    H259109   5.000   0.696   2.814 -1.4127 -0.0790  0.7868
12540TIP3   OH259110   2.836   3.507   0.315 -0.2163 -0.1423 -0.0275
12540TIP3    H159111   2.853   3.600   0.301  0.0709 -0.1184  0.4479
12540TIP3    H259112   2.748   3.493   0.279  0.2426  0.0278 -1.2599
12541TIP3   OH259113   4.599   0.917  11.987 -0.0070 -0.0197  0.6797
12541TIP3    H159114   4.688   0.888  11.968  0.0815 -0.3096  1.5160
12541TIP3    H259115   4.604   0.957  12.074 -0.4303  1.1636  0.1775
12542TIP3   OH259116   0.283   5.548  12.481 -0.1543 -0.0761 -0.4986
12542TIP3    H159117   0.215   5.487  12.511  0.7980 -0.4901  0.9039
12542TIP3    H259118   0.338   5.496  12.422  1.2087 -0.9153  1.4230
12543TIP3   OH259119   5.673   4.311   3.363  0.0129  0.3475 -0.1471
12543TIP3    H159120   5.590   4.264   3.353 -0.6970  1.2270  1.3378
12543TIP3    H259121   5.718   4.298   3.279 -1.2300 -0.8830 -0.6585
12544TIP3   OH259122   0.155   4.952   3.925 -0.6106  0.1826 -0.2639
12544TIP3    H159123   0.219   4.899   3.972  0.6707  1.7446 -0.1449
12544TIP3    H259124   0.103   4.993   3.994 -1.1518 -0.3625 -0.3382
12545TIP3   OH259125   2.567   2.995  12.202  0.1411  0.1490 -0.1089
12545TIP3    H159126   2.524   3.009  12.117 -1.3443  0.0256  0.5967
12545TIP3    H259127   2.639   3.059  12.203 -0.2377  0.6203 -1.1736
12546TIP3   OH259128   6.507   3.024   3.963 -0.1324  0.6519  0.1948
12546TIP3    H159129   6.547   2.941   3.939 -2.0600 -0.4160  0.5088
12546TIP3    H259130   6.514   3.078   3.884 -0.0321 -0.2786 -0.4471
12547TIP3   OH259131   5.831   1.229   0.231  0.0414  0.2573  0.1185
12547TIP3    H159132   5.749   1.276   0.244 -1.1397 -1.7215  0.1464
12547TIP3    H259133   5.814   1.171   0.157  0.6403 -1.8084  1.5182
12548TIP3   OH259134   0.429   5.632   3.112 -0.4858 -0.4318 -0.0098
12548TIP3    H159135   0.414   5.593   3.026  1.4155 -1.5040  0.0790
12548TIP3    H259136   0.485   5.569   3.157  0.1123  0.9800  1.3189
12549TIP3   OH259137   2.897   6.311  16.919 -0.0008 -0.4252  0.0408
12549TIP3    H159138   2.895   6.373  16.992 -0.8736  1.4693 -1.5052
12549TIP3    H259139   2.905   6.225  16.960  2.1622  0.7241  2.2548
12550TIP3   OH259140   2.222   0.315  13.268  0.3220 -0.1747  0.2133
12550TIP3    H159141   2.290   0.276  13.213  0.0134 -0.4404  0.0143
12550TIP3    H259142   2.209   0.403  13.233 -0.1815 -0.4925 -0.4245
12551TIP3   OH259143   1.120   5.727  13.506 -0.0657  0.4283  0.2177
12551TIP3    H159144   1.190   5.709  13.569 -0.5512 -0.8065  0.4116
12551TIP3    H259145   1.156   5.698  13.422 -0.1750  0.2401  0.2376
12552TIP3   OH259146   0.020   2.264   0.258 -0.4791 -0.6531 -0.2616
12552TIP3    H159147  -0.052   2.220   0.213  0.7908 -2.4985 -0.6022
12552TIP3    H259148   0.046   2.335   0.199 -2.8158  0.9105  0.4727
12553TIP3   OH259149   0.148   2.094  11.072 -0.0159 -0.0505 -0.6591
12553TIP3    H159150   0.128   2.160  11.006 -2.0791  1.2663  1.1160
12553TIP3    H259151   0.195   2.025  11.025  0.6333  1.8416 -2.9636
12554TIP3   OH259152   5.875   1.371   4.243  0.5144  0.5842 -0.1029
12554TIP3    H159153   5.782   1.394   4.248  0.0054 -1.2006 -0.7173
12554TIP3    H259154   5.913   1.408   4.323 -1.0263  0.0751  0.9066
12555TIP3   OH259155   2.060   2.848   5.114 -0.1096  0.1618 -0.2462
12555TIP3    H159156   1.999   2.870   5.184  0.0666  0.5904 -0.2248
12555TIP3    H259157   2.145   2.837   5.158  0.0376  0.6049 -0.4051
12556TIP3   OH259158   5.429   3.453   2.401 -0.0301  0.0707  0.4817
12556TIP3    H159159   5.478   3.509   2.461 -2.3541  0.8232  1.7761
12556TIP3    H259160   5.426   3.368   2.445 -1.7660  0.6321  1.5194
12557TIP3   OH259161   1.417   6.249   4.452  0.5760  0.3626  0.1264
12557TIP3    H159162   1.394   6.268   4.543  1.4117 -0.1344  0.4490
12557TIP3    H259163   1.338   6.210   4.415  1.2485 -2.7424  1.6360
12558TIP3   OH259164   5.546   0.295  11.847  0.2102  0.2960  0.2465
12558TIP3    H159165   5.576   0.358  11.781  0.9961  0.6930  0.9770
12558TIP3    H259166   5.470   0.254  11.806  0.7922  0.3942 -1.0008
12559TIP3   OH259167   1.659   5.796   0.581  0.6381  0.7143  0.4100
12559TIP3    H159168   1.599   5.753   0.520  0.9489 -0.1203  0.6761
12559TIP3    H259169   1.637   5.759   0.666  0.9488  1.0565  0.6425
12560TIP3   OH259170   3.848   2.697  13.439 -0.1458 -0.6493  0.3411
12560TIP3    H159171   3.889   2.741  13.364 -1.7431  1.9402  0.9017
12560TIP3    H259172   3.920   2.686  13.502  0.0586  2.9050  0.9129
12561TIP3   OH259173   5.541   0.184   3.720 -0.2887  0.0118  0.1615
12561TIP3    H159174   5.484   0.173   3.644  1.1497  0.1733 -1.0067
12561TIP3    H259175   5.491   0.149   3.794 -0.7664 -2.5809 -1.2736
12562TIP3   OH259176   0.377   4.473   2.858  0.0602 -0.5300  0.1497
12562TIP3    H159177   0.323   4.404   2.820  1.5625 -0.9393 -1.3962
12562TIP3    H259178   0.377   4.455   2.952 -1.2776 -1.3624  0.0104
12563TIP3   OH259179   5.897   3.689  11.747  0.1779 -0.1826 -0.1439
12563TIP3    H159180   5.835   3.616  11.751 -0.4670  0.3935  0.8019
12563TIP3    H259181   5.983   3.647  11.745 -0.2016 -1.0827 -3.7939
12564TIP3   OH259182   1.197   6.670   5.284 -0.4055  0.2330 -0.3388
12564TIP3    H159183   1.283   6.683   5.324  0.1283  0.8630 -1.6599
12564TIP3    H259184   1.153   6.754   5.295 -0.7765 -0.0165  0.1252
12565TIP3   OH259185   0.532   0.538  14.739 -0.2769  0.4184 -0.2623
12565TIP3    H159186   0.520   0.509  14.829 -0.5466  0.4681 -0.2811
12565TIP3    H259187   0.450   0.515  14.695 -0.0708  0.2084 -0.5439
12566TIP3   OH259188   6.805   6.401   0.936 -0.2421  0.1906 -0.3818
12566TIP3    H159189   6.757   6.428   0.858  1.0029  1.1471 -0.8442
12566TIP3    H259190   6.878   6.349   0.903 -0.2032 -0.1462  0.2124
12567TIP3   OH259191   5.983   6.756   5.468  0.2210 -0.2225  0.0877
12567TIP3    H159192   5.906   6.773   5.522  0.2754 -0.2661  0.1790
12567TIP3    H259193   6.057   6.768   5.527  0.4039  1.8675 -0.4810
12568TIP3   OH259194   5.645   3.347   6.623  0.1576  0.2889 -0.1601
12568TIP3    H159195   5.571   3.361   6.681 -0.3134  0.1314 -0.7118
12568TIP3    H259196   5.630   3.406   6.549  1.1156  1.0035  0.1993
12569TIP3   OH259197   3.371   6.661   0.956  0.1815 -0.1845 -0.2384
12569TIP3    H159198   3.452   6.633   1.000 -0.3314  1.1891  1.7112
12569TIP3    H259199   3.324   6.580   0.939  0.7669 -0.8289  1.0776
12570TIP3   OH259200   3.608   0.611  12.706  0.2071  0.2532  0.2539
12570TIP3    H159201   3.544   0.672  12.668 -0.3199  0.1693  0.9714
12570TIP3    H259202   3.612   0.539  12.644 -1.3770 -0.3496  0.7841
12571TIP3   OH259203   4.233   3.714  13.849  0.1172  0.5001  0.6895
12571TIP3    H159204   4.221   3.667  13.931 -0.9427  0.8872  0.7814
12571TIP3    H259205   4.157   3.772  13.844 -1.1166 -1.1630 -1.6887
12572TIP3   OH259206   3.051   5.887  13.501 -0.8429  0.2681  0.1296
12572TIP3    H159207   2.993   5.948  13.455 -0.7226  0.9891  0.8993
12572TIP3    H259208   2.994   5.815  13.528 -0.9678 -0.0305 -0.8798
12573TIP3   OH259209   4.963   3.825  14.200 -0.1280  0.5821 -0.8109
12573TIP3    H159210   5.057   3.811  14.187 -0.1209  1.3669 -1.6572
12573TIP3    H259211   4.958   3.898  14.262 -0.1840  0.4914 -0.7083
12574TIP3   OH259212   3.052   2.914  10.869  0.1802  0.1280  0.0976
12574TIP3    H159213   3.097   2.908  10.954  0.2306 -0.4414  0.0372
12574TIP3    H259214   3.122   2.912  10.804  0.0874 -0.5655  0.0097
12575TIP3   OH259215   0.968   3.190   3.261 -0.1693  0.2137  0.0835
12575TIP3    H159216   0.892   3.192   3.319 -1.5616  0.3598 -1.6673
12575TIP3    H259217   0.992   3.283   3.249 -1.0459  0.3208 -0.9903
12576TIP3   OH259218   2.363   1.262  12.553 -0.1403 -0.7853  0.1372
12576TIP3    H159219   2.298   1.223  12.495  0.0905 -0.6962 -0.1854
12576TIP3    H259220   2.446   1.222  12.526  0.3478  1.0299 -1.2281
12577TIP3   OH259221   5.325   2.213   3.365  0.4806  0.1705  0.9217
12577TIP3    H159222   5.328   2.167   3.281 -0.3490  1.3176  0.2362
12577TIP3    H259223   5.235   2.202   3.395  0.9699 -0.9437  2.1166
12578TIP3   OH259224   5.864   1.538  14.928  0.7233  0.3996 -0.4306
12578TIP3    H159225   5.837   1.494  15.009  0.2248 -0.2950 -0.9675
12578TIP3    H259226   5.786   1.537  14.873  1.1605  0.5393 -1.0610
12579TIP3   OH259227   5.735   4.545  15.493 -0.0389  0.6297  0.5961
12579TIP3    H159228   5.684   4.548  15.573 -0.7809  0.7618  0.1296
12579TIP3    H259229   5.678   4.586  15.427 -0.1586 -1.0295 -0.3834
12580TIP3   OH259230   0.047   6.321  15.931  0.0164  0.2189  0.1235
12580TIP3    H159231  -0.019   6.361  15.988  0.0516  1.7073 -0.8009
12580TIP3    H259232   0.039   6.227  15.946  0.1097  0.5508  2.6132
12581TIP3   OH259233   6.191   3.065  12.604  0.9909  0.1639 -0.2498
12581TIP3    H159234   6.154   3.152  12.618  0.7268  0.0291 -0.0945
12581TIP3    H259235   6.226   3.067  12.515 -3.3972 -1.0583 -2.2755
12582TIP3   OH259236   5.751   4.401   5.215 -0.3949  0.3395 -0.0905
12582TIP3    H159237   5.659   4.392   5.189 -0.5191 -0.0178  0.4758
12582TIP3    H259238   5.764   4.337   5.285  0.2229  0.5533  0.0020
12583TIP3   OH259239   0.809   1.700   1.289  0.7290  0.2186  0.0048
12583TIP3    H159240   0.882   1.716   1.229  0.4412 -0.2491 -0.4796
12583TIP3    H259241   0.762   1.783   1.292  0.0526 -0.0854 -1.3803
12584TIP3   OH259242   1.355   2.832  12.910 -0.2093  0.0392  0.4068
12584TIP3    H159243   1.265   2.863  12.917  0.2080  1.4549 -0.0642
12584TIP3    H259244   1.356   2.749  12.957 -1.5248  0.4968  1.2968
12585TIP3   OH259245   4.974   0.594  15.747 -0.5095  0.3156 -0.1984
12585TIP3    H159246   4.964   0.500  15.763  0.9997  0.3202  0.9977
12585TIP3    H259247   4.920   0.636  15.813 -1.3440  0.3099 -0.8603
12586TIP3   OH259248   3.416   2.465   4.859  0.2815 -0.2061  0.4739
12586TIP3    H159249   3.478   2.406   4.816 -0.4414 -0.9785  0.4815
12586TIP3    H259250   3.471   2.521   4.914  1.1355  0.2531 -0.8128
12587TIP3   OH259251   3.462   3.863   0.631 -0.1238  0.0401 -0.1159
12587TIP3    H159252   3.403   3.938   0.621 -1.2808 -0.8640 -0.3374
12587TIP3    H259253   3.503   3.854   0.545 -3.3932 -2.2815 -1.6487
12588TIP3   OH259254   5.410   2.640  14.764  0.3609 -0.3686  0.4585
12588TIP3    H159255   5.323   2.612  14.793 -0.4648  1.4961 -0.1130
12588TIP3    H259256   5.468   2.571  14.796 -1.0505 -0.6667  2.6157
12589TIP3   OH259257   0.884   6.080   4.205 -0.0961  0.4219 -0.3249
12589TIP3    H159258   0.967   6.051   4.166 -0.1404  0.7984 -0.7113
12589TIP3    H259259   0.823   6.009   4.186 -0.5312  1.2761 -2.3975
12590TIP3   OH259260   5.258   2.247  14.249 -0.1542  0.5089  0.0397
12590TIP3    H159261   5.192   2.228  14.182 -0.6155  1.2190  0.2924
12590TIP3    H259262   5.335   2.273  14.199 -0.6040  1.3822 -0.2167
12591TIP3   OH259263   5.758   6.088   5.130 -0.9163 -1.1385  0.4189
12591TIP3    H159264   5.755   6.085   5.035 -1.0636 -1.2815  0.4268
12591TIP3    H259265   5.841   6.130   5.151 -0.7395 -1.3949  0.2288
12592TIP3   OH259266   2.197   4.288   6.191  0.1437 -0.5308 -0.5684
12592TIP3    H159267   2.205   4.196   6.215  1.1350 -0.1617  0.6128
12592TIP3    H259268   2.125   4.320   6.245  2.0042  0.1621  1.6309
12593TIP3   OH259269   1.027   5.898   2.667 -0.4069 -0.4145 -0.4995
12593TIP3    H159270   1.002   5.989   2.685  0.4682  0.2254 -2.2797
12593TIP3    H259271   0.956   5.846   2.706  0.3741  0.8087  2.9828
12594TIP3   OH259272   2.737   0.382  11.643 -0.2575 -0.1076  0.4071
12594TIP3    H159273   2.714   0.290  11.659 -1.2255 -0.4498 -2.3010
12594TIP3    H259274   2.659   0.431  11.669 -1.4311 -0.5526 -1.9490
12595TIP3   OH259275   5.033   4.232   3.147  0.1942 -0.2349  0.0224
12595TIP3    H159276   5.127   4.219   3.135  0.2847  1.1399 -0.9152
12595TIP3    H259277   5.003   4.269   3.064 -0.8374  1.1148  0.9513
12596TIP3   OH259278   4.888   2.868  16.310 -0.0742 -0.0561 -0.3096
12596TIP3    H159279   4.896   2.820  16.228  1.0196  0.1450 -0.3327
12596TIP3    H259280   4.904   2.802  16.378 -1.5554 -0.3525 -0.2094
12597TIP3   OH259281   1.592   5.478   3.837  0.8811  0.4973 -0.2425
12597TIP3    H159282   1.541   5.540   3.785 -0.8393 -2.3375 -2.2457
12597TIP3    H259283   1.596   5.399   3.783  2.2370 -1.4675  2.4631
12598TIP3   OH259284   3.937   5.284  15.686  0.2362 -0.1346 -0.0957
12598TIP3    H159285   3.965   5.325  15.768 -0.2704  3.2078 -1.4327
12598TIP3    H259286   3.994   5.323  15.619 -1.9175  0.3157 -1.7777
12599TIP3   OH259287   4.928   5.392   4.414  0.0819  0.1555  0.3526
12599TIP3    H159288   4.909   5.439   4.333 -2.5321 -1.4138 -0.0661
12599TIP3    H259289   4.896   5.451   4.483  1.3432  1.0416  0.2028
12600TIP3   OH259290   4.643   5.922  13.576  0.3815  0.1177  0.1217
12600TIP3    H159291   4.641   5.924  13.480 -1.4845  0.2818  0.1228
12600TIP3    H259292   4.575   5.859  13.600  0.6555  0.2658  1.3428
12601TIP3   OH259293   3.811   0.634   5.651  0.6861  0.3793 -0.2583
12601TIP3    H159294   3.826   0.650   5.558  2.0496 -1.1075 -0.3521
12601TIP3    H259295   3.836   0.542   5.663 -0.0027  0.3876  1.4687
12602TIP3   OH259296   0.370   1.840   0.122  0.0199 -0.0974 -0.2223
12602TIP3    H159297   0.358   1.829   0.216  1.2810 -0.2962 -0.0773
12602TIP3    H259298   0.306   1.780   0.083  0.4864 -1.1139  0.5235
12603TIP3   OH259299   1.388   5.850  11.212  0.5023 -0.6148  0.2340
12603TIP3    H159300   1.439   5.769  11.224  1.8761  0.1783  0.0299
12603TIP3    H259301   1.427   5.890  11.134  0.5812  0.7763  0.9679
12604TIP3   OH259302   2.275   1.999   2.455 -0.2173  0.0312  0.2024
12604TIP3    H159303   2.282   1.917   2.503  0.8527  1.2049  2.1873
12604TIP3    H259304   2.187   1.997   2.417  0.0560 -2.3309 -0.4844
12605TIP3   OH259305   1.751   4.664   1.351 -0.0379  0.3172  0.5240
12605TIP3    H159306   1.717   4.714   1.425 -1.9063 -0.6612  0.4053
12605TIP3    H259307   1.690   4.590   1.343 -0.5148  0.9053 -2.5479
12606TIP3   OH259308   3.465   3.039   0.222 -0.3073 -0.3754  0.0819
12606TIP3    H159309   3.370   3.051   0.230 -0.1545  0.4799  0.6953
12606TIP3    H259310   3.490   3.096   0.150 -0.4788 -1.9016 -1.2680
12607TIP3   OH259311   4.791   1.571  11.576 -0.1862 -0.2735  0.1859
12607TIP3    H159312   4.774   1.595  11.485  0.3431  0.3499  0.2394
12607TIP3    H259313   4.796   1.476  11.575 -1.0539 -0.3217 -0.2767
12608TIP3   OH259314   2.876   5.154  14.923  0.1883  0.0464 -0.1700
12608TIP3    H159315   2.827   5.212  14.979 -1.0567 -1.5162  0.4332
12608TIP3    H259316   2.883   5.200  14.839 -0.2979  1.2461  0.4432
12609TIP3   OH259317   5.785   6.517  16.824  0.0217  0.5072 -0.0943
12609TIP3    H159318   5.804   6.427  16.798  1.7894  0.8945 -0.3016
12609TIP3    H259319   5.872   6.559  16.831 -0.6653  1.8168  1.3637
12610TIP3   OH259320   5.384   3.560  11.963  0.1552  0.2178 -0.5530
12610TIP3    H159321   5.446   3.488  11.971 -1.8747 -1.6396 -0.4994
12610TIP3    H259322   5.362   3.562  11.869 -1.3330 -0.6767 -0.2574
12611TIP3   OH259323   2.308   0.754   6.184 -0.2805  0.2709 -0.2561
12611TIP3    H159324   2.311   0.848   6.204 -2.3586  0.2237  0.5151
12611TIP3    H259325   2.216   0.730   6.196  0.2175 -1.8826 -0.3798
12612TIP3   OH259326   4.715   5.474  11.873  0.1109  0.0273 -0.2038
12612TIP3    H159327   4.674   5.552  11.837 -1.0492 -0.8118 -0.7941
12612TIP3    H259328   4.731   5.494  11.965  0.1460  1.0670 -0.4308
12613TIP3   OH259329   3.133   2.978   5.223  0.0578  0.0598 -0.7882
12613TIP3    H159330   3.159   3.019   5.141  0.6291  2.1018  0.3274
12613TIP3    H259331   3.073   3.041   5.263  1.0173 -0.1160  1.0613
12614TIP3   OH259332   1.929   0.611  16.053 -0.3555  0.1525  0.1091
12614TIP3    H159333   1.922   0.669  16.129  0.4988  0.9201 -0.3829
12614TIP3    H259334   1.855   0.636  15.997  0.9273  1.9729 -0.8771
12615TIP3   OH259335   4.261   6.297  15.214  0.3797  0.0118  0.0318
12615TIP3    H159336   4.309   6.374  15.245  2.5310 -1.9587  2.0253
12615TIP3    H259337   4.169   6.318  15.233  1.1474  0.8437  3.8317
12616TIP3   OH259338   5.020   5.168  10.645  0.9046  0.1583 -0.0053
12616TIP3    H159339   5.028   5.155  10.740  0.1748  0.1820  0.0640
12616TIP3    H259340   5.006   5.080  10.610 -2.8368  0.4751  0.3414
12617TIP3   OH259341   5.974   2.620   4.542  0.0842  0.2170  0.2282
12617TIP3    H159342   6.065   2.632   4.568  1.0010 -1.5784 -1.8490
12617TIP3    H259343   5.957   2.689   4.479  0.3163 -0.0084 -0.0819
12618TIP3   OH259344   1.799   4.707   5.939 -0.4483  0.4027 -0.1992
12618TIP3    H159345   1.712   4.666   5.940 -0.3570  0.1198 -1.3764
12618TIP3    H259346   1.787   4.784   5.883 -0.4726  1.6818  1.5080
12619TIP3   OH259347   3.518   1.240  13.973  0.8812  0.5120 -0.3721
12619TIP3    H159348   3.504   1.203  14.060 -0.1999  0.9309 -0.3495
12619TIP3    H259349   3.604   1.282  13.978  0.4469  1.3156  0.7675
12620TIP3   OH259350   4.047   4.363   1.768 -0.2738  0.6924 -0.0784
12620TIP3    H159351   3.967   4.322   1.735  0.4527  0.2016 -1.3008
12620TIP3    H259352   4.112   4.348   1.699  0.8325  1.2297  0.8125
12621TIP3   OH259353   5.331   1.649   2.243  0.2712  0.2898 -0.2607
12621TIP3    H159354   5.422   1.648   2.274 -0.3626 -1.1634  1.8367
12621TIP3    H259355   5.316   1.560   2.211  0.1733  1.1224 -2.6917
12622TIP3   OH259356   6.597   1.336   5.076  0.4009 -0.5238  0.4903
12622TIP3    H159357   6.635   1.359   5.161  0.0867 -1.0826  0.7896
12622TIP3    H259358   6.555   1.416   5.046  1.1761 -0.1051  0.4996
12623TIP3   OH259359   3.138   3.596   1.051 -0.5907  0.0862  0.1625
12623TIP3    H159360   3.167   3.533   0.985  0.8811 -0.6242  1.4467
12623TIP3    H259361   3.121   3.544   1.129 -1.3413  1.0477  0.6679
12624TIP3   OH259362   1.848   0.782  16.557 -0.6603 -0.0655 -0.0176
12624TIP3    H159363   1.806   0.790  16.643  0.7444 -0.8320  0.7820
12624TIP3    H259364   1.916   0.715  16.570  0.4134  0.7140 -1.3936
12625TIP3   OH259365   3.068   2.958   1.602  0.0601 -0.1017 -0.3148
12625TIP3    H159366   3.003   2.992   1.542 -1.0563  3.0612  2.3465
12625TIP3    H259367   3.152   2.989   1.567 -0.0087 -2.1160 -2.4585
12626TIP3   OH259368   2.103   3.790  16.992 -0.5411 -0.9089  0.0867
12626TIP3    H159369   2.018   3.805  17.032 -1.0608  0.2545 -1.3287
12626TIP3    H259370   2.086   3.727  16.922  0.2937 -2.6883  1.4076
12627TIP3   OH259371   0.339   2.055  11.844 -0.8310  0.0148  0.8066
12627TIP3    H159372   0.381   2.121  11.899 -1.1031  1.0236 -0.1657
12627TIP3    H259373   0.411   2.014  11.796 -0.7959  0.7798  0.1766
12628TIP3   OH259374   6.038   3.333   3.468  0.2001  0.4505  0.6016
12628TIP3    H159375   6.019   3.248   3.509  0.6801  0.8669  1.7394
12628TIP3    H259376   5.953   3.365   3.439  0.0943 -0.7129 -0.4681
12629TIP3   OH259377   5.288   4.334   3.401 -0.2031 -0.2148 -0.0563
12629TIP3    H159378   5.368   4.374   3.433  1.2745 -0.8254 -2.7054
12629TIP3    H259379   5.272   4.260   3.460  1.1824 -0.0829  0.5086
12630TIP3   OH259380   3.993   1.244   3.624  0.0942  0.3038 -0.3909
12630TIP3    H159381   3.943   1.324   3.606 -0.3536  0.1957  0.3363
12630TIP3    H259382   3.928   1.174   3.621 -0.3326  0.4078  2.8911
12631TIP3   OH259383   2.039   4.471  11.118 -0.1102  0.0854  0.6958
12631TIP3    H159384   2.057   4.565  11.112 -0.4908  0.2896  2.2587
12631TIP3    H259385   2.113   4.429  11.074 -0.9668  1.1324 -1.9274
12632TIP3   OH259386   0.611   1.896  17.211  0.4222  0.6562 -0.2717
12632TIP3    H159387   0.674   1.827  17.196  0.2896 -0.1273  2.3375
12632TIP3    H259388   0.533   1.851  17.243  0.3352  1.9543  1.4878
12633TIP3   OH259389   2.582   6.545  11.083  0.3624 -0.5489 -0.2490
12633TIP3    H159390   2.577   6.558  10.988 -3.2235 -1.6908 -0.3533
12633TIP3    H259391   2.629   6.462  11.093  0.4886 -0.5825 -1.0490
12634TIP3   OH259392   5.722   6.120  12.683  0.0093 -0.5877  0.8467
12634TIP3    H159393   5.760   6.038  12.715  1.4244 -1.2518 -2.1557
12634TIP3    H259394   5.684   6.097  12.598 -1.0934  1.5430  0.6959
12635TIP3   OH259395   0.309   6.096   0.317 -0.5280 -0.0579  0.1205
12635TIP3    H159396   0.354   6.012   0.325  0.1169  0.2611 -0.0753
12635TIP3    H259397   0.260   6.090   0.235  0.8143  0.3353 -0.7549
12636TIP3   OH259398   4.338   2.559  15.492 -0.6170 -0.4680 -0.0588
12636TIP3    H159399   4.304   2.515  15.414  0.7930  0.8536 -1.5154
12636TIP3    H259400   4.391   2.493  15.536  0.7305 -0.5377 -1.6991
12637TIP3   OH259401   0.382   2.786  13.638  0.0169  0.0344 -0.1624
12637TIP3    H159402   0.420   2.814  13.722 -0.1017  0.3814 -0.2201
12637TIP3    H259403   0.361   2.694  13.650 -0.9571  0.3335  0.5502
12638TIP3   OH259404   1.174   6.472  12.056  0.3540  0.1905  0.0729
12638TIP3    H159405   1.231   6.524  12.112 -0.2222  1.5343 -0.5466
12638TIP3    H259406   1.190   6.381  12.083  3.5845  0.3724 -0.7972
12639TIP3   OH259407   4.946   2.401  12.862  0.8366 -0.7877  0.2698
12639TIP3    H159408   4.857   2.429  12.845  1.5377  0.3551 -1.8538
12639TIP3    H259409   4.938   2.337  12.933 -1.4061  0.8851  1.6553
12640TIP3   OH259410   6.630   4.336  15.694  0.2973  0.0102  0.4848
12640TIP3    H159411   6.624   4.363  15.603 -0.1244 -0.5887  0.3264
12640TIP3    H259412   6.539   4.332  15.724  0.4916  1.7588  1.4114
12641TIP3   OH259413   5.069   6.751  15.520 -0.3015  0.0007  0.1400
12641TIP3    H159414   5.163   6.760  15.530 -0.4186 -0.4672  2.0302
12641TIP3    H259415   5.040   6.711  15.602 -1.9887 -0.9917 -0.8835
12642TIP3   OH259416   0.630   5.341  13.756 -0.4191  0.4284  0.0678
12642TIP3    H159417   0.718   5.302  13.764 -0.9474 -1.0903 -0.9721
12642TIP3    H259418   0.578   5.297  13.823 -0.0501  2.5389  1.8336
12643TIP3   OH259419   3.766   2.863  15.966  0.0013 -0.8955 -0.0650
12643TIP3    H159420   3.787   2.818  16.048  0.0644  0.4822  0.7206
12643TIP3    H259421   3.827   2.827  15.902  1.2292 -0.6993  0.9514
12644TIP3   OH259422   1.746   0.194  15.087  0.0656 -0.4968 -0.1825
12644TIP3    H159423   1.712   0.115  15.129 -1.6707  0.7905  0.9151
12644TIP3    H259424   1.677   0.259  15.097  1.5094  1.2324 -0.9400
12645TIP3   OH259425   1.213   2.217  14.342 -0.3375  0.6243  0.0282
12645TIP3    H159426   1.205   2.304  14.381 -0.8028  0.6614 -0.1466
12645TIP3    H259427   1.297   2.185  14.374  0.1896  1.4324 -0.5134
12646TIP3   OH259428   2.683   5.496   3.470  0.2623 -0.6118 -0.3011
12646TIP3    H159429   2.769   5.522   3.502  0.6430 -0.1284 -1.6562
12646TIP3    H259430   2.699   5.458   3.384 -0.6806 -2.3030  0.2181
12647TIP3   OH259431   2.308   4.222  12.661  0.0305  0.3079  0.3404
12647TIP3    H159432   2.265   4.206  12.745  1.1149 -2.0554  0.5236
12647TIP3    H259433   2.314   4.136  12.620  1.1793  1.1403 -1.3664
12648TIP3   OH259434   1.999   5.488   2.440 -0.2204  0.2776 -0.5298
12648TIP3    H159435   1.924   5.521   2.391  0.9415  2.3029 -1.0599
12648TIP3    H259436   2.063   5.559   2.437  0.4628 -0.0544  2.7710
12649TIP3   OH259437   4.386   2.663  17.059 -0.2650  0.2277 -0.1416
12649TIP3    H159438   4.390   2.751  17.097 -1.3201 -0.1528  0.8829
12649TIP3    H259439   4.421   2.606  17.127  2.5952  0.0200 -1.6127
12650TIP3   OH259440   4.423   3.094  13.748 -0.0931 -0.1159 -0.5205
12650TIP3    H159441   4.470   3.173  13.722  2.0873 -1.2418 -0.1614
12650TIP3    H259442   4.420   3.041  13.669  0.1377 -0.4883 -0.2789
12651TIP3   OH259443   5.485   6.418   3.464  0.2029  0.6194 -0.4318
12651TIP3    H159444   5.551   6.468   3.415 -0.7763  1.8734 -0.5094
12651TIP3    H259445   5.514   6.424   3.555  1.5823 -1.0345 -0.6986
12652TIP3   OH259446   6.717   5.466  11.876 -0.6049  0.5070 -0.0435
12652TIP3    H159447   6.627   5.480  11.849 -0.6748  0.6321  0.2522
12652TIP3    H259448   6.770   5.507  11.807 -0.7519 -0.2344 -0.6096
12653TIP3   OH259449   3.149   1.469   0.185  0.3562  0.2979  0.1585
12653TIP3    H159450   3.223   1.409   0.178 -0.2295 -0.4577  0.3633
12653TIP3    H259451   3.094   1.432   0.254 -0.4410  0.5947 -0.3012
12654TIP3   OH259452   3.749   3.974  16.003 -0.4003  0.0019 -0.3484
12654TIP3    H159453   3.728   4.049  15.948  1.6409  0.4474 -0.5886
12654TIP3    H259454   3.820   4.004  16.059 -0.5066 -1.3344  0.5460
12655TIP3   OH259455   6.651   3.077  15.527 -0.1740 -0.2505  0.5032
12655TIP3    H159456   6.588   3.081  15.599  1.9961  0.6704  2.4387
12655TIP3    H259457   6.720   3.019  15.558  0.3024 -0.7401 -1.3296
12656TIP3   OH259458   5.329   5.513   1.184  0.2209 -0.4502 -0.0829
12656TIP3    H159459   5.239   5.498   1.213  0.7509 -0.3036  1.7308
12656TIP3    H259460   5.349   5.439   1.126 -1.1054 -0.3849 -0.6614
12657TIP3   OH259461   3.009   6.095   4.576 -0.7830  0.1569 -0.1310
12657TIP3    H159462   3.083   6.053   4.619 -0.0712  0.5081 -0.9682
12657TIP3    H259463   2.972   6.154   4.641 -1.5278 -1.4153  0.9226
12658TIP3   OH259464   4.949   5.370   5.611 -0.3870  0.3759 -0.5066
12658TIP3    H159465   5.008   5.353   5.684  0.2694  1.0018 -0.8729
12658TIP3    H259466   4.866   5.397   5.652 -1.1595 -2.5564  0.0697
12659TIP3   OH259467   2.988   5.409   2.700 -0.4316 -0.0940  0.6507
12659TIP3    H159468   2.912   5.414   2.757 -0.8593  0.5681  0.0463
12659TIP3    H259469   3.000   5.499   2.668 -1.2666 -0.7169 -1.6292
12660TIP3   OH259470   6.759   1.446  12.727  0.1650  0.0308  0.0287
12660TIP3    H159471   6.782   1.356  12.701  2.4969  0.5977 -0.1405
12660TIP3    H259472   6.779   1.449  12.821 -0.0909  0.3255  0.0748
12661TIP3   OH259473   1.040   1.417  10.576 -0.5476  0.1376  0.4996
12661TIP3    H159474   1.122   1.466  10.576 -0.4664  0.0629 -1.1573
12661TIP3    H259475   0.978   1.472  10.527 -0.5986 -1.1170 -0.9391
12662TIP3   OH259476   0.253   6.472  16.817  0.2164  0.2908 -0.2271
12662TIP3    H159477   0.225   6.395  16.867  0.8911  0.4769  0.4532
12662TIP3    H259478   0.183   6.485  16.753 -1.3698  0.8277  1.5091
12663TIP3   OH259479   2.726   6.577   4.475 -0.6608  0.3479  0.2816
12663TIP3    H159480   2.656   6.638   4.452  1.6773  2.8062 -0.9254
12663TIP3    H259481   2.730   6.580   4.570 -1.1592  1.4785  0.2894
12664TIP3   OH259482   2.959   2.968   0.797 -0.0480  0.0955 -0.2479
12664TIP3    H159483   2.877   2.921   0.781 -0.2069 -0.5305  2.0198
12664TIP3    H259484   2.931   3.058   0.816 -0.0960  0.1531 -0.5808
12665TIP3   OH259485   0.640   1.214  15.694 -1.2345 -0.1734  0.2130
12665TIP3    H159486   0.672   1.129  15.722 -0.3939  0.7973  2.4166
12665TIP3    H259487   0.562   1.195  15.641 -2.0005 -2.2435  1.9663
12666TIP3   OH259488   5.661   2.935   2.291 -0.1505 -0.4230 -0.7170
12666TIP3    H159489   5.572   2.952   2.261 -0.4717  0.7890  0.7816
12666TIP3    H259490   5.651   2.911   2.383  0.8502 -3.1882 -1.2147
12667TIP3   OH259491   1.038   1.584   3.373 -0.4646 -0.2576  0.0119
12667TIP3    H159492   0.955   1.565   3.416 -0.6611 -0.3062 -0.3777
12667TIP3    H259493   1.046   1.518   3.305  0.4343 -0.9247  0.7459
12668TIP3   OH259494   4.532   1.862  14.802 -0.3208 -0.3993 -0.3680
12668TIP3    H159495   4.496   1.949  14.818  2.1283  1.0038 -1.8334
12668TIP3    H259496   4.608   1.856  14.861  1.1451 -0.3642 -2.1661
12669TIP3   OH259497   5.997   6.472  12.517 -0.4413  0.3460  0.3327
12669TIP3    H159498   6.021   6.492  12.607 -0.3767  0.6197  0.2551
12669TIP3    H259499   5.912   6.428  12.523  0.7070 -1.9582  0.7399
12670TIP3   OH259500   5.423   1.415  16.913  0.8043  0.1035 -0.0401
12670TIP3    H159501   5.512   1.380  16.911  1.2067  1.0467  0.3785
12670TIP3    H259502   5.434   1.506  16.942 -0.4841 -0.4326  2.4384
12671TIP3   OH259503   1.615   3.600  17.183  0.2122 -0.2410 -0.1226
12671TIP3    H159504   1.634   3.690  17.155  3.0227 -0.8322 -0.3690
12671TIP3    H259505   1.525   3.604  17.215 -0.0615  2.4492 -0.9716
12672TIP3   OH259506   4.707   1.569  14.928 -0.0920 -0.0227 -0.1124
12672TIP3    H159507   4.734   1.657  14.953  1.0302 -0.2957 -0.2727
12672TIP3    H259508   4.665   1.533  15.005  3.1927 -0.8170  1.4959
12673TIP3   OH259509   0.730   0.897  12.755  0.0829  0.3414  0.0061
12673TIP3    H159510   0.649   0.881  12.804 -0.2490  0.5520 -0.4601
12673TIP3    H259511   0.770   0.972  12.799 -0.3054  0.6467 -0.1539
12674TIP3   OH259512   1.977   1.190  13.292  0.3951  0.5151 -0.5512
12674TIP3    H159513   2.034   1.175  13.367 -0.1454  2.2101  0.2493
12674TIP3    H259514   1.897   1.141  13.311 -0.0367  1.5460  0.3759
12675TIP3   OH259515   5.983   4.617   4.499  0.0212 -0.1403  0.5277
12675TIP3    H159516   5.961   4.649   4.412 -2.9452  0.5344  1.4199
12675TIP3    H259517   5.989   4.696   4.553  1.8154 -0.5461  0.9812
12676TIP3   OH259518   4.505   3.924   4.263  0.0125 -0.4793 -0.2110
12676TIP3    H159519   4.418   3.951   4.234  0.1195 -0.8227 -0.8647
12676TIP3    H259520   4.558   3.924   4.184 -0.1715 -3.4187 -0.4509
12677TIP3   OH259521   3.977   3.660   4.148  0.5027  0.1394 -0.0383
12677TIP3    H159522   3.914   3.596   4.180  1.7629 -1.4849 -0.6463
12677TIP3    H259523   3.937   3.699   4.071 -1.3130  1.9574  1.6815
12678TIP3   OH259524   2.379   4.963   5.402 -0.2296  0.3437  0.5084
12678TIP3    H159525   2.401   4.945   5.493 -0.5818 -1.0305  0.3307
12678TIP3    H259526   2.286   4.941   5.395  0.2488 -1.4954 -0.6409
12679TIP3   OH259527   3.216   0.509  13.085  0.0907 -0.2086 -0.3907
12679TIP3    H159528   3.258   0.423  13.077 -2.3226 -1.5596  0.4588
12679TIP3    H259529   3.156   0.500  13.159 -0.8503  1.9417 -0.8164
12680TIP3   OH259530   2.914   0.829  16.240 -0.5411 -0.6258 -0.4681
12680TIP3    H159531   2.979   0.810  16.308 -0.3067 -1.0245 -0.7934
12680TIP3    H259532   2.835   0.782  16.269 -0.4536 -0.7644 -0.4507
12681TIP3   OH259533   2.571   6.013   5.221 -0.0009 -0.5624 -0.7331
12681TIP3    H159534   2.579   5.995   5.127  2.4530 -1.5336 -0.3989
12681TIP3    H259535   2.489   5.970   5.247  0.6982 -2.7316 -1.9179
12682TIP3   OH259536   1.647   6.655  16.723 -0.2163  0.7938 -0.0031
12682TIP3    H159537   1.632   6.561  16.729 -1.6009  1.0561  1.1905
12682TIP3    H259538   1.563   6.691  16.695  1.0592  1.4716 -3.4960
12683TIP3   OH259539   4.822   3.654   1.893 -0.1684  0.1201 -0.1689
12683TIP3    H159540   4.915   3.668   1.912  0.0541  0.8843 -1.6955
12683TIP3    H259541   4.776   3.722   1.942  0.3188  1.4964 -1.5551
12684TIP3   OH259542   6.011   1.691  14.036  0.1086 -0.5317  0.2864
12684TIP3    H159543   6.091   1.743  14.036  1.1507 -2.0407 -1.1629
12684TIP3    H259544   5.976   1.701  13.948 -0.5889 -0.9653  0.5049
12685TIP3   OH259545   5.740   3.192   4.767  0.4233 -0.1450  0.1238
12685TIP3    H159546   5.727   3.098   4.753  2.1071 -0.5859  1.2609
12685TIP3    H259547   5.653   3.230   4.753 -0.8853 -2.1735  1.9961
12686TIP3   OH259548   1.153   1.182  15.962 -0.1810  0.2584 -0.2468
12686TIP3    H159549   1.065   1.155  15.989  0.3088 -1.4469 -0.2957
12686TIP3    H259550   1.179   1.118  15.897  1.4078  0.3025  0.3217
12687TIP3   OH259551   3.917   1.532   0.535  0.2200  0.1784 -0.1249
12687TIP3    H159552   3.868   1.502   0.458 -0.7096 -2.4763  1.3881
12687TIP3    H259553   3.851   1.571   0.592  0.5979  0.4422  0.1363
12688TIP3   OH259554   4.500   6.702   1.610  0.1960  0.1460  0.0958
12688TIP3    H159555   4.488   6.703   1.516 -1.5890 -0.0022  0.2996
12688TIP3    H259556   4.593   6.681   1.622  0.1316 -1.2870 -1.5936
12689TIP3   OH259557   0.169   1.413  10.822  0.0255  0.3933  0.3218
12689TIP3    H159558   0.168   1.509  10.818 -1.3852  0.3571 -1.2428
12689TIP3    H259559   0.115   1.385  10.747  0.9875 -1.6380  0.3199
12690TIP3   OH259560   5.857   4.709  14.081 -0.2743  0.0688  0.1811
12690TIP3    H159561   5.877   4.731  14.172 -2.7409 -1.1609  1.1309
12690TIP3    H259562   5.917   4.637  14.060  0.9532  0.9713  0.4664
12691TIP3   OH259563   6.461   1.766  15.231  0.3086 -0.4034 -0.4110
12691TIP3    H159564   6.480   1.673  15.243  0.7926 -0.0366  1.9622
12691TIP3    H259565   6.543   1.811  15.250 -0.3393  0.5969  0.1210
12692TIP3   OH259566   0.635   0.740  11.587  0.1483  0.5424  0.1310
12692TIP3    H159567   0.560   0.696  11.627  0.3239 -0.2237 -0.3573
12692TIP3    H259568   0.669   0.797  11.656  0.4237 -0.7193  1.0885
12693TIP3   OH259569   4.492   3.682   1.531 -0.1047 -0.7661 -0.8222
12693TIP3    H159570   4.526   3.753   1.477 -0.1147 -0.7944 -0.8659
12693TIP3    H259571   4.558   3.669   1.599 -0.8430  0.3774  0.1506
12694TIP3   OH259572   4.752   5.393  16.358 -0.8146 -0.1208  0.8242
12694TIP3    H159573   4.809   5.381  16.434 -0.1640 -0.7945  0.2575
12694TIP3    H259574   4.664   5.402  16.394 -0.2678  1.7312  1.7614
12695TIP3   OH259575   5.841   0.207   4.594 -0.3173 -0.3444 -0.2049
12695TIP3    H159576   5.787   0.251   4.528 -0.2146 -0.1767 -0.1775
12695TIP3    H259577   5.835   0.114   4.572 -0.1392 -0.2721 -0.5545
12696TIP3   OH259578   4.224   2.999  13.892  0.1714  0.4137  0.2975
12696TIP3    H159579   4.180   3.068  13.942 -0.5148  1.1756 -1.2949
12696TIP3    H259580   4.280   3.047  13.831  1.2806 -0.5104  0.5695
12697TIP3   OH259581   1.248   5.871   5.989  0.2781 -0.0295 -0.0013
12697TIP3    H159582   1.177   5.923   6.028  0.1990 -0.4287  0.3902
12697TIP3    H259583   1.206   5.822   5.919  0.5825  1.3445 -1.2006
12698TIP3   OH259584   1.559   5.889  10.639 -0.3602  0.5614  0.3719
12698TIP3    H159585   1.550   5.979  10.609 -1.9958  1.4468  3.1810
12698TIP3    H259586   1.640   5.888  10.689 -0.7699  0.7306  1.0543
12699TIP3   OH259587   5.892   1.922   5.448 -0.6541 -0.4235 -0.6576
12699TIP3    H159588   5.887   2.017   5.439  0.0185 -0.3921 -0.7336
12699TIP3    H259589   5.930   1.892   5.365  1.2885 -0.5503  0.2397
12700TIP3   OH259590   4.937   0.439   2.004 -0.3221 -0.1329 -0.1150
12700TIP3    H159591   4.911   0.347   2.004 -1.7262  0.2463 -0.6020
12700TIP3    H259592   4.915   0.471   1.916  0.0231  0.6979  0.0896
12701TIP3   OH259593   0.472   2.905   5.849  0.3031 -0.2512 -0.5282
12701TIP3    H159594   0.531   2.979   5.838 -0.1698  0.3542  0.7541
12701TIP3    H259595   0.388   2.936   5.816  0.2398 -0.4231 -0.5293
12702TIP3   OH259596   5.207   1.385   1.033 -0.1713 -0.2075 -0.2301
12702TIP3    H159597   5.213   1.343   0.947  1.5450 -1.6306  0.5273
12702TIP3    H259598   5.172   1.317   1.091  0.5733  0.0859  0.5894
12703TIP3   OH259599   4.234   1.581  11.949  0.4399 -0.5577  0.4286
12703TIP3    H159600   4.259   1.500  11.993  0.6879 -0.2382  0.8909
12703TIP3    H259601   4.174   1.554  11.880 -1.4315 -0.8994  2.1037
12704TIP3   OH259602   1.529   5.391   2.197 -0.5053  0.0159  0.6621
12704TIP3    H159603   1.524   5.352   2.284  0.6626  2.7396  2.0673
12704TIP3    H259604   1.548   5.317   2.138 -1.8058 -1.9721  2.5915
12705TIP3   OH259605   2.718   2.398   5.200  0.2462 -0.0202 -0.3155
12705TIP3    H159606   2.768   2.411   5.281  0.2782  1.2608 -0.5207
12705TIP3    H259607   2.784   2.384   5.133  0.2833  0.5118 -0.3901
12706TIP3   OH259608   3.735   2.739   4.384  0.4072  0.2004 -0.1994
12706TIP3    H159609   3.743   2.834   4.379 -2.0189  0.3800 -2.2366
12706TIP3    H259610   3.689   2.723   4.467  0.8350  0.7653  0.1533
12707TIP3   OH259611   2.601   3.256   4.886  0.0097 -0.9178 -0.7295
12707TIP3    H159612   2.549   3.260   4.966  0.5761  2.5565 -0.3817
12707TIP3    H259613   2.669   3.191   4.905 -0.4997 -0.9550  1.2022
12708TIP3   OH259614   0.756   6.775   5.861  0.8946 -0.1326  0.4891
12708TIP3    H159615   0.720   6.781   5.773  2.2531 -1.1764 -0.1897
12708TIP3    H259616   0.731   6.688   5.891  0.7943  0.0584  0.9568
12709TIP3   OH259617   3.661   5.534   3.513 -0.9886 -0.6561 -0.0544
12709TIP3    H159618   3.653   5.453   3.562  0.4673 -1.2581 -0.7351
12709TIP3    H259619   3.628   5.602   3.572  1.0513 -1.2826  1.9453
12710TIP3   OH259620   5.850   5.362  13.394 -0.0633  0.3624 -0.0137
12710TIP3    H159621   5.805   5.445  13.377  0.1050  0.4179 -0.1824
12710TIP3    H259622   5.840   5.312  13.313 -0.4355  0.0923  0.1952
12711TIP3   OH259623   0.923   0.887   3.721  0.0586  0.2927 -0.7033
12711TIP3    H159624   0.932   0.891   3.626 -2.0279 -1.2195 -1.0351
12711TIP3    H259625   0.884   0.801   3.738  0.8958  0.2905  1.5796
12712TIP3   OH259626   2.063   6.051   4.902 -0.3841 -0.4371  0.3098
12712TIP3    H159627   2.082   6.026   4.812 -0.6847 -0.0693  0.1412
12712TIP3    H259628   2.131   6.008   4.954 -1.8670 -3.0712  0.2400
12713TIP3   OH259629   1.493   5.976  11.894  0.0377 -0.3983  0.9074
12713TIP3    H159630   1.498   5.930  11.811 -2.1260 -2.0974  1.6146
12713TIP3    H259631   1.537   6.059  11.879 -0.0814 -0.7635 -1.8551
12714TIP3   OH259632   5.039   3.629   0.254  0.4109 -1.2431  0.0713
12714TIP3    H159633   4.987   3.632   0.334  0.4280 -1.6320  0.1022
12714TIP3    H259634   5.076   3.540   0.253  1.2044 -0.9211  0.1338
12715TIP3   OH259635   4.530   5.418  12.550  0.3313  0.1383  0.2391
12715TIP3    H159636   4.552   5.500  12.506 -1.3557 -0.2447 -1.4431
12715TIP3    H259637   4.514   5.443  12.641  1.0587  1.4513  0.0256
12716TIP3   OH259638   2.992   1.343  16.457 -0.0914 -0.0510 -0.0603
12716TIP3    H159639   3.048   1.420  16.447 -0.5718  0.0995 -2.0138
12716TIP3    H259640   2.903   1.375  16.438 -0.1935 -1.2060 -1.8045
12717TIP3   OH259641   0.544   1.116   5.050 -0.2937  0.1307  0.4363
12717TIP3    H159642   0.499   1.153   5.125 -1.4864 -0.4743  0.0431
12717TIP3    H259643   0.628   1.085   5.085  0.2532  2.0533  1.0105
12718TIP3   OH259644   0.659   4.021  14.588 -0.2206  0.0237 -0.0700
12718TIP3    H159645   0.615   4.008  14.504 -1.4964 -0.3437  0.6308
12718TIP3    H259646   0.701   3.937  14.607 -0.6146 -0.1480  0.0433
12719TIP3   OH259647   5.993   5.641  13.156 -0.5849  0.4249  0.4495
12719TIP3    H159648   5.996   5.616  13.249 -1.4957  2.8402  1.1980
12719TIP3    H259649   6.035   5.727  13.153 -0.9986  0.5989 -1.3242
12720TIP3   OH259650   3.025   0.111   1.875  0.0161 -0.2042  0.1446
12720TIP3    H159651   3.045   0.190   1.924  1.5755 -0.1728 -0.5044
12720TIP3    H259652   2.943   0.131   1.830  0.1796  0.8811  0.3070
12721TIP3   OH259653   5.772   4.847   5.477  0.2026  0.2385  0.1420
12721TIP3    H159654   5.791   4.754   5.487 -2.5111 -0.4671 -0.6659
12721TIP3    H259655   5.801   4.886   5.559 -1.3531 -1.8175  1.7621
12722TIP3   OH259656   6.491   0.978  13.013  0.8248 -0.1744 -0.4975
12722TIP3    H159657   6.501   0.968  12.919 -0.0029 -0.8758 -0.5219
12722TIP3    H259658   6.482   1.073  13.026 -1.2020 -0.1935 -1.3725
12723TIP3   OH259659   4.459   6.358  16.376  0.6496 -0.1095  0.4959
12723TIP3    H159660   4.420   6.316  16.453  1.8292  0.4925  1.4427
12723TIP3    H259661   4.501   6.437  16.410  1.1855  0.1735 -0.7706
12724TIP3   OH259662   2.520   5.356  12.279  0.0813  0.1346 -0.0462
12724TIP3    H159663   2.477   5.306  12.209 -0.2113 -0.3570  0.4785
12724TIP3    H259664   2.613   5.351  12.258 -0.0729  0.8187 -0.9367
12725TIP3   OH259665   5.954   1.454   4.510 -0.4180 -0.2603  0.0829
12725TIP3    H159666   5.914   1.518   4.569 -1.3536 -1.5913  0.9680
12725TIP3    H259667   5.930   1.369   4.547 -0.6082 -1.1587 -1.9368
12726TIP3   OH259668   4.190   1.330   3.991 -0.0539 -0.5200  0.1129
12726TIP3    H159669   4.095   1.325   4.003 -0.0050 -1.7384  0.1550
12726TIP3    H259670   4.223   1.253   4.036  0.8027 -1.0328 -1.3199
12727TIP3   OH259671   5.509   2.224   1.836  0.5939 -0.3392 -0.1553
12727TIP3    H159672   5.541   2.304   1.877 -2.6582  0.5352  1.0315
12727TIP3    H259673   5.557   2.154   1.880  1.4886  0.8408  0.8279
12728TIP3   OH259674   4.054   1.436   3.390 -0.7275  0.1809 -0.8029
12728TIP3    H159675   3.961   1.442   3.367 -1.1583  0.0301  0.8047
12728TIP3    H259676   4.080   1.526   3.409 -0.8084  0.1018 -0.3067
12729TIP3   OH259677   6.210   5.007  15.810 -0.6406  0.2731 -0.0857
12729TIP3    H159678   6.266   4.942  15.851 -0.4297  0.9339  0.6885
12729TIP3    H259679   6.161   4.958  15.744  0.2146 -0.4738 -0.1767
12730TIP3   OH259680   3.584   5.529  14.425  0.2676  0.0643  0.2296
12730TIP3    H159681   3.588   5.560  14.335 -0.0769  0.1302  0.2389
12730TIP3    H259682   3.491   5.520  14.444  0.2072  2.3700  1.3717
12731TIP3   OH259683   3.407   0.441  12.286  0.1995  0.0592  0.1348
12731TIP3    H159684   3.435   0.388  12.211 -0.6955 -0.3646  0.0858
12731TIP3    H259685   3.316   0.463  12.267  0.4194  1.2450  0.3759
12732TIP3   OH259686   2.117   5.163   3.781 -0.3885 -0.2220 -0.3035
12732TIP3    H159687   2.145   5.137   3.868  0.8564 -1.3629 -1.0081
12732TIP3    H259688   2.170   5.240   3.760 -0.2369 -0.3257 -0.2986
12733TIP3   OH259689   1.205   6.124  14.992  0.3928  0.8644 -0.2729
12733TIP3    H159690   1.194   6.208  15.036 -1.4507  0.0169  1.0468
12733TIP3    H259691   1.273   6.079  15.043  0.9092  1.2751 -0.5840
12734TIP3   OH259692   1.317   1.120   5.790 -0.1587  0.1531 -0.0703
12734TIP3    H159693   1.271   1.039   5.769 -0.4201  0.5896 -1.2124
12734TIP3    H259694   1.255   1.189   5.771 -0.1176  0.6330  1.3763
12735TIP3   OH259695   5.858   3.676  15.722 -0.2387  0.1041  0.7805
12735TIP3    H159696   5.850   3.586  15.690 -1.6085  0.8586 -1.2028
12735TIP3    H259697   5.777   3.691  15.771  0.1176  0.1857  1.3554
12736TIP3   OH259698   4.275   2.670   3.912  0.0266  0.6438 -0.0243
12736TIP3    H159699   4.237   2.648   3.827 -1.0313 -0.1587  0.6464
12736TIP3    H259700   4.363   2.701   3.891  0.2732 -0.8137 -1.3108
12737TIP3   OH259701   6.129   5.515   2.335 -0.2443 -0.1348  0.4059
12737TIP3    H159702   6.105   5.444   2.394 -0.3913  0.5408  1.1761
12737TIP3    H259703   6.092   5.593   2.376 -1.1132  0.2382 -1.0418
12738TIP3   OH259704   0.187   1.720   4.984  0.5245  0.4804 -0.0511
12738TIP3    H159705   0.246   1.795   4.977  1.1349  0.0369  0.2205
12738TIP3    H259706   0.110   1.745   4.933  1.7429  0.2848 -2.0875
12739TIP3   OH259707   6.232   2.308   6.253 -1.0775 -0.4645 -0.0588
12739TIP3    H159708   6.229   2.213   6.264  2.1553 -0.6630  0.1734
12739TIP3    H259709   6.282   2.340   6.328  1.6886  0.8266 -2.2537
12740TIP3   OH259710   6.236   1.903  16.336  0.3078 -0.3157 -0.1328
12740TIP3    H159711   6.217   1.898  16.242 -0.8855  0.1098  0.0737
12740TIP3    H259712   6.244   1.812  16.364  0.2893 -0.4519 -0.5648
12741TIP3   OH259713   4.611   1.105   2.280  0.3718 -0.4467  0.5586
12741TIP3    H159714   4.596   1.175   2.343 -1.4763 -1.3061  1.1132
12741TIP3    H259715   4.652   1.035   2.330  0.0126 -0.6714  0.5410
12742TIP3   OH259716   1.903   6.720  11.248 -0.3377  0.6714 -0.2076
12742TIP3    H159717   1.873   6.722  11.157 -0.7387 -0.5968 -0.1237
12742TIP3    H259718   1.963   6.646  11.252 -0.9773  0.1763  0.7390
12743TIP3   OH259719   5.407   5.566   3.607 -0.3710  0.7000  0.1177
12743TIP3    H159720   5.322   5.530   3.579 -0.0726  0.6673 -0.7965
12743TIP3    H259721   5.403   5.658   3.582 -0.4710  0.9025  0.8788
12744TIP3   OH259722   1.897   3.237   0.041  0.2525 -0.2085 -0.5601
12744TIP3    H159723   1.945   3.155   0.048  1.5595  0.5253 -0.5921
12744TIP3    H259724   1.945   3.287  -0.025  0.9389  1.5144  1.1470
12745TIP3   OH259725   0.927   1.481   4.569  0.5377 -0.5087  0.1637
12745TIP3    H159726   0.980   1.402   4.568  2.0615  0.4720 -1.3271
12745TIP3    H259727   0.978   1.545   4.519 -1.0785  1.1349  0.5127
12746TIP3   OH259728   0.114   6.298   4.471 -0.2784 -0.3850 -0.1261
12746TIP3    H159729   0.207   6.300   4.490 -0.0272  1.0638 -1.3344
12746TIP3    H259730   0.081   6.383   4.502 -1.0129 -0.4911 -0.5841
12747TIP3   OH259731   2.585   3.709  14.188  0.1046  0.2048 -0.1629
12747TIP3    H159732   2.579   3.784  14.128  0.1081  0.1878 -0.1849
12747TIP3    H259733   2.648   3.650  14.145  0.9157  0.6688  0.3763
12748TIP3   OH259734   3.014   1.655   2.247 -0.6607  0.2090 -0.2483
12748TIP3    H159735   2.969   1.739   2.243 -2.5446 -0.5439  2.1105
12748TIP3    H259736   2.946   1.593   2.276  1.4369 -1.3901  1.6690
12749TIP3   OH259737   4.546   5.142  16.804 -0.2046  0.1993  0.0043
12749TIP3    H159738   4.467   5.101  16.840  1.5322 -1.8742  1.8411
12749TIP3    H259739   4.575   5.202  16.873  1.1879 -1.0900  0.6265
12750TIP3   OH259740   6.698   3.508  11.429 -0.2489  0.1345  0.1823
12750TIP3    H159741   6.711   3.498  11.335  1.9441  1.6505  0.2496
12750TIP3    H259742   6.784   3.534  11.463 -0.8387 -0.8561  2.7040
12751TIP3   OH259743   4.378   2.579   3.234  0.0187  0.5448  0.2844
12751TIP3    H159744   4.440   2.524   3.187 -2.0843  0.5800 -2.8633
12751TIP3    H259745   4.374   2.660   3.183 -1.0129  1.3980  1.6484
12752TIP3   OH259746   5.961   2.567  15.760 -0.2439 -0.6207  0.2885
12752TIP3    H159747   5.931   2.486  15.721  1.1669 -1.2556  0.4447
12752TIP3    H259748   5.962   2.630  15.688 -1.2524 -0.7532  0.1467
12753TIP3   OH259749   3.469   6.447  15.234  0.0244  0.2920 -0.4407
12753TIP3    H159750   3.376   6.466  15.242  0.2080  0.3927  1.9760
12753TIP3    H259751   3.473   6.355  15.208 -0.7456  0.1777 -0.1615
12754TIP3   OH259752   5.065   3.438   1.200  0.5716  0.2662 -0.0743
12754TIP3    H159753   4.980   3.449   1.156  1.0023  0.8894 -0.7811
12754TIP3    H259754   5.074   3.344   1.212  0.0073  0.1569 -0.4609
12755TIP3   OH259755   5.913   4.608   1.153  0.2517  0.2512  0.1519
12755TIP3    H159756   5.988   4.591   1.209 -0.9056 -1.5745  1.2237
12755TIP3    H259757   5.840   4.620   1.213 -0.6602  0.1822 -0.9144
12756TIP3   OH259758   1.886   2.696   3.571 -0.0697  0.2422  0.8916
12756TIP3    H159759   1.921   2.770   3.520 -0.2842  0.2217  0.7136
12756TIP3    H259760   1.952   2.681   3.639  0.3837  0.0532  0.4195
12757TIP3   OH259761   0.750   5.853   4.100  0.2398 -0.1761 -0.4874
12757TIP3    H159762   0.694   5.874   4.025  1.3158 -0.0469 -1.2721
12757TIP3    H259763   0.738   5.758   4.112  1.1472 -0.4773 -1.7563
12758TIP3   OH259764   0.777   2.958  14.266  0.3414  0.3174  0.9121
12758TIP3    H159765   0.786   2.947  14.172 -1.3786  1.4932  0.5578
12758TIP3    H259766   0.856   2.918  14.303  0.8941 -0.4440 -0.9859
12759TIP3   OH259767   5.662   1.642  15.094 -0.1246  0.3706 -0.1470
12759TIP3    H159768   5.578   1.672  15.128 -1.1444 -1.7662 -0.5963
12759TIP3    H259769   5.704   1.600  15.168 -0.9891 -1.5362 -0.6691
12760TIP3   OH259770   0.681   3.888   0.527  0.1014  0.0595 -0.6568
12760TIP3    H159771   0.675   3.809   0.581  0.5387  0.5314  0.1031
12760TIP3    H259772   0.690   3.856   0.437 -2.4604 -0.7538 -0.7070
12761TIP3   OH259773   1.853   0.755  11.690  0.0381  0.2090  0.3055
12761TIP3    H159774   1.878   0.775  11.600 -0.6715 -0.6354 -0.0974
12761TIP3    H259775   1.869   0.661  11.699 -0.3203  0.1982  0.9182
12762TIP3   OH259776   6.130   1.031   3.364  0.1596  0.3801  0.0025
12762TIP3    H159777   6.073   1.029   3.287  1.2806  1.4729 -0.8905
12762TIP3    H259778   6.219   1.036   3.329  0.7141  0.5790  1.3639
12763TIP3   OH259779   3.813   2.379  14.090 -0.0651  0.3099  0.0904
12763TIP3    H159780   3.743   2.407  14.031  1.4360  0.1184 -1.8878
12763TIP3    H259781   3.894   2.398  14.042  1.1680 -2.8006  0.7007
12764TIP3   OH259782   3.310   0.548   3.963 -0.0723  0.3200  0.0265
12764TIP3    H159783   3.325   0.495   4.041  0.0104 -0.4612 -0.5109
12764TIP3    H259784   3.251   0.617   3.992  1.4927  1.1930  1.2452
12765TIP3   OH259785   0.449   6.021  16.146  0.7083  0.0545 -0.1628
12765TIP3    H159786   0.397   6.088  16.190  0.2418 -0.3060 -0.1456
12765TIP3    H259787   0.501   6.068  16.081  0.8439  0.5024  0.2608
12766TIP3   OH259788   5.346   6.818   4.682 -0.3854 -0.1411  0.2929
12766TIP3    H159789   5.388   6.737   4.654 -0.5991 -0.2488  0.2763
12766TIP3    H259790   5.289   6.791   4.754 -0.1693  0.0596  0.5418
12767TIP3   OH259791   4.417   3.372  12.402  0.1392  0.2151 -0.0946
12767TIP3    H159792   4.392   3.449  12.351 -1.4719  0.7690  1.4285
12767TIP3    H259793   4.365   3.301  12.365  2.1841 -0.3665 -1.9960
12768TIP3   OH259794   2.265   0.757  13.507  0.1975 -0.1914  0.1097
12768TIP3    H159795   2.251   0.784  13.417 -0.1456 -3.2318 -0.8765
12768TIP3    H259796   2.312   0.674  13.501  1.1641  0.0419  2.7945
12769TIP3   OH259797   5.163   2.657   0.026 -0.3596  0.1242 -0.1381
12769TIP3    H159798   5.180   2.573   0.068 -1.5402 -0.6370 -1.0962
12769TIP3    H259799   5.219   2.657  -0.052 -0.5395  0.1080 -0.2702
12770TIP3   OH259800   4.298   0.063   2.269 -0.6435 -0.2252  0.2115
12770TIP3    H159801   4.376   0.038   2.319  0.3749  1.0230 -0.6674
12770TIP3    H259802   4.225   0.046   2.328  0.4251  0.1613  1.7097
12771TIP3   OH259803   1.222   1.484   6.049 -0.2861  0.7493 -0.1490
12771TIP3    H159804   1.228   1.549   6.118  0.9901  1.2704 -0.7097
12771TIP3    H259805   1.129   1.481   6.026 -0.5344  1.4790  0.7214
12772TIP3   OH259806   1.884   2.201  15.570 -0.2319 -0.2213 -0.3159
12772TIP3    H159807   1.800   2.156  15.568 -1.2463  1.5771 -0.4450
12772TIP3    H259808   1.863   2.293  15.553  1.4911  0.6610  1.7848
12773TIP3   OH259809   3.903   1.173  13.967  0.1419 -0.0832  0.0319
12773TIP3    H159810   3.854   1.247  14.003  0.3216 -0.1093  0.3371
12773TIP3    H259811   3.948   1.209  13.891 -0.6021 -0.1407 -0.4358
12774TIP3   OH259812   2.892   1.033  10.337  0.3605 -0.8258 -1.1419
12774TIP3    H159813   2.986   1.051  10.342  0.0755  0.6633  2.8112
12774TIP3    H259814   2.885   0.938  10.346  1.5583 -0.7867  1.1018
12775TIP3   OH259815   5.242   0.966  16.052 -0.6523  0.2826  0.1699
12775TIP3    H159816   5.152   0.998  16.061  0.0550  1.8972  2.6839
12775TIP3    H259817   5.290   1.041  16.016  0.2212  0.6669  1.9842
12776TIP3   OH259818   6.175   2.317   1.244 -0.0512  0.1958  0.0263
12776TIP3    H159819   6.269   2.330   1.230  0.1187 -0.3551  0.5688
12776TIP3    H259820   6.133   2.382   1.189  0.6259 -0.2741 -1.0899
12777TIP3   OH259821   0.741   2.783   2.212  0.4953 -0.5285 -0.1639
12777TIP3    H159822   0.731   2.688   2.201  1.0316 -0.8335  1.5648
12777TIP3    H259823   0.705   2.800   2.300 -1.7298  1.2563 -1.3144
12778TIP3   OH259824   2.983   2.835   2.615 -0.0567 -0.3068 -0.1631
12778TIP3    H159825   3.003   2.775   2.543 -0.7824 -2.3706  1.2669
12778TIP3    H259826   2.889   2.823   2.631  0.0716  0.1625  1.0547
12779TIP3   OH259827   4.827   4.109   5.416  0.7658 -0.2249 -0.1960
12779TIP3    H159828   4.878   4.189   5.401  1.0599 -0.4004 -0.1326
12779TIP3    H259829   4.737   4.140   5.425  0.6185 -0.0557 -1.8749
12780TIP3   OH259830   2.774   0.028   0.090 -0.3506  0.1274  0.0103
12780TIP3    H159831   2.769   0.019   0.185 -0.8768 -0.1573 -0.0461
12780TIP3    H259832   2.867   0.016   0.070 -0.2352  0.2176  0.4916
12781TIP3   OH259833   1.658   3.721  13.270 -0.1362  0.2007 -0.5277
12781TIP3    H159834   1.627   3.630  13.267 -1.3081  0.6089 -3.0979
12781TIP3    H259835   1.738   3.721  13.219  0.6318  0.3849  0.6511
12782TIP3   OH259836   1.343   1.285  16.664  0.2859  0.0913  0.2354
12782TIP3    H159837   1.391   1.203  16.659  0.4299  0.1849  0.0512
12782TIP3    H259838   1.406   1.351  16.636 -0.0287  0.1809 -0.2710
12783TIP3   OH259839   1.839   3.991  11.126  0.2150  0.0872  0.1220
12783TIP3    H159840   1.863   3.995  11.033 -0.6463 -2.3006 -0.2750
12783TIP3    H259841   1.749   4.023  11.129  0.1709 -0.0337  0.0953
12784TIP3   OH259842   5.837   4.346   1.464 -0.4486 -0.0241 -0.1365
12784TIP3    H159843   5.746   4.371   1.478 -0.0959  1.7322 -0.6038
12784TIP3    H259844   5.884   4.388   1.536 -0.0055 -0.9135  0.0987
12785TIP3   OH259845   0.939   1.521   3.964 -0.4215 -0.3066 -0.3620
12785TIP3    H159846   0.959   1.614   3.950 -1.9185 -0.1228 -1.5942
12785TIP3    H259847   0.896   1.518   4.049 -1.2980  0.3192 -0.7608
12786TIP3   OH259848   6.454   5.296  12.859 -0.1827  0.1047 -0.4435
12786TIP3    H159849   6.467   5.237  12.784  2.4020 -1.0717  0.7778
12786TIP3    H259850   6.451   5.383  12.821  1.8202 -0.3955 -1.9447
12787TIP3   OH259851   4.526   5.241   0.124  0.4308 -0.1940  0.2814
12787TIP3    H159852   4.556   5.318   0.076 -1.2170  0.7506  0.6776
12787TIP3    H259853   4.450   5.211   0.074  0.3480 -0.8432  0.7873
12788TIP3   OH259854   0.653   4.454   0.474  0.0007 -0.6223 -0.5194
12788TIP3    H159855   0.732   4.454   0.529  0.2834  0.1338 -0.9143
12788TIP3    H259856   0.666   4.382   0.412  0.8949  0.1995 -1.3043
12789TIP3   OH259857   3.934   5.342   1.398  0.1039 -0.2268 -0.1694
12789TIP3    H159858   3.926   5.251   1.371  1.4208 -0.6664  0.8418
12789TIP3    H259859   3.924   5.340   1.493  1.4291  0.5093  0.0062
12790TIP3   OH259860   2.961   5.579   3.101 -0.7633 -0.2802  0.2259
12790TIP3    H159861   2.925   5.666   3.090 -1.9438 -0.9534 -1.8781
12790TIP3    H259862   2.886   5.520   3.095  0.1772 -1.5075 -0.1259
12791TIP3   OH259863   0.950   5.315   1.390 -0.3066  0.1884  0.2382
12791TIP3    H159864   1.031   5.278   1.427  0.3617  0.5575 -0.7965
12791TIP3    H259865   0.978   5.355   1.308 -1.3682  1.2484  0.3698
12792TIP3   OH259866   3.542   4.998  13.515  0.3722  0.2307 -0.1064
12792TIP3    H159867   3.463   4.959  13.477  0.7535  1.6709 -2.6121
12792TIP3    H259868   3.612   4.974  13.456  1.1800  1.8681  0.1294
12793TIP3   OH259869   6.823   0.846   4.348 -0.0864 -0.6468  0.3535
12793TIP3    H159870   6.854   0.826   4.259 -0.4906 -0.4583  0.1662
12793TIP3    H259871   6.893   0.815   4.405  0.9270  0.7198 -0.1044
12794TIP3   OH259872   6.572   6.494   5.589  0.1230 -0.7757  0.6815
12794TIP3    H159873   6.556   6.418   5.644  2.1959 -0.8452  1.2807
12794TIP3    H259874   6.538   6.568   5.640  2.0228 -0.8342  2.1556
12795TIP3   OH259875   5.222   3.806  15.646  0.9464 -0.5069 -0.6460
12795TIP3    H159876   5.163   3.813  15.571 -0.1047  1.5807  0.2945
12795TIP3    H259877   5.284   3.878  15.636 -0.9347  1.6583  1.8055
12796TIP3   OH259878   4.049   3.000   3.690  0.1855 -0.3264 -0.5860
12796TIP3    H159879   4.043   3.093   3.712 -1.5935  0.1468 -2.6927
12796TIP3    H259880   4.139   2.988   3.662  0.1352  1.0822 -1.4345
12797TIP3   OH259881   5.723   5.133  13.543  0.0322  0.3210  0.3323
12797TIP3    H159882   5.808   5.161  13.511  0.3346 -0.9793 -0.0827
12797TIP3    H259883   5.685   5.085  13.468 -0.4788 -0.2656  0.9555
12798TIP3   OH259884   5.613   4.386  14.072 -0.5143 -0.4667 -0.2894
12798TIP3    H159885   5.633   4.304  14.026  1.9113 -1.4804  2.3383
12798TIP3    H259886   5.670   4.451  14.031 -1.6553 -0.2462 -1.6338
12799TIP3   OH259887   4.567   3.043   5.925  0.7663 -0.2815 -0.2010
12799TIP3    H159888   4.563   2.948   5.909  1.9234 -0.5541  1.0350
12799TIP3    H259889   4.494   3.078   5.874  0.5320 -1.7952 -0.9666
12800TIP3   OH259890   5.462   5.907   4.891  0.0644  0.1306 -0.1425
12800TIP3    H159891   5.415   5.885   4.811 -1.0563  2.2597 -0.1627
12800TIP3    H259892   5.489   5.998   4.878 -0.1427  0.5374  1.8682
12801TIP3   OH259893   1.025   2.938   3.336  0.2475 -0.1058 -0.3999
12801TIP3    H159894   0.980   2.938   3.421 -1.1900 -0.3555 -1.1295
12801TIP3    H259895   1.013   3.027   3.303 -0.6453 -0.4658 -1.0662
12802TIP3   OH259896   4.371   6.304  13.671  0.1244  0.0743  0.0539
12802TIP3    H159897   4.355   6.215  13.701 -2.1412  0.6738  0.8267
12802TIP3    H259898   4.465   6.307  13.655  0.4538 -2.0888  1.1614
12803TIP3   OH259899   1.998   2.212   5.147 -0.0400 -0.2689 -0.0029
12803TIP3    H159900   1.997   2.146   5.216 -0.4273 -0.0080  0.2431
12803TIP3    H259901   2.089   2.213   5.117  0.2040 -0.1658  0.7126
12804TIP3   OH259902   3.719   5.944   5.640 -0.9958  0.2093 -0.2859
12804TIP3    H159903   3.744   6.030   5.674 -0.6346  0.2558 -0.6543
12804TIP3    H259904   3.705   5.890   5.718  1.4582 -0.1660 -0.0119
12805TIP3   OH259905   1.813   6.043  13.737  0.2962 -0.2317 -0.4224
12805TIP3    H159906   1.717   6.045  13.737  0.2979  0.6216  0.7700
12805TIP3    H259907   1.834   5.950  13.748 -0.4414 -0.2418  1.3137
12806TIP3   OH259908   6.597   1.330  16.628 -0.2580  0.2921  0.1949
12806TIP3    H159909   6.580   1.242  16.663 -0.8866  0.3600  0.0635
12806TIP3    H259910   6.567   1.389  16.697 -1.4693  0.4268 -0.4180
12807TIP3   OH259911   3.030   2.296   5.674 -0.5045  0.4690 -0.2058
12807TIP3    H159912   3.096   2.272   5.610  0.7244 -1.2403  1.5689
12807TIP3    H259913   2.975   2.218   5.682  0.8350 -0.3169  2.4660
12808TIP3   OH259914   2.928   0.059  14.751  0.1575  0.0122 -0.2935
12808TIP3    H159915   2.922   0.046  14.845  0.4935 -0.6711 -0.3591
12808TIP3    H259916   2.904  -0.026  14.713  0.6483  0.0899 -0.8004
12809TIP3   OH259917   3.211   4.696  16.588 -0.2883  0.6085  0.3136
12809TIP3    H159918   3.297   4.672  16.553  0.0783  3.0765 -0.6417
12809TIP3    H259919   3.230   4.746  16.667 -0.9331  0.0577  0.8343
12810TIP3   OH259920   3.316   2.644  15.755 -0.1270 -0.3779 -0.1992
12810TIP3    H159921   3.402   2.682  15.736  0.6736 -1.2391  1.4226
12810TIP3    H259922   3.331   2.591  15.833 -2.3598  0.2568  0.7420
12811TIP3   OH259923   5.412   4.704   2.381  0.0521 -0.0272 -0.3801
12811TIP3    H159924   5.465   4.698   2.460  0.4130 -1.7922 -0.7009
12811TIP3    H259925   5.331   4.746   2.409 -0.0227 -1.0653  1.0526
12812TIP3   OH259926   5.162   5.186   2.119  0.4592 -0.2273 -0.0202
12812TIP3    H159927   5.174   5.169   2.025  0.1574 -1.1125  0.0928
12812TIP3    H259928   5.164   5.099   2.160  0.0706  0.1081  0.7328
12813TIP3   OH259929   0.072   4.077  14.577 -0.4338  0.3478  0.7047
12813TIP3    H159930   0.102   4.004  14.631  3.0650  1.6656  0.7852
12813TIP3    H259931   0.111   4.154  14.617  1.6318  1.5181 -3.0680
12814TIP3   OH259932   2.676   5.236  11.455 -0.2877 -0.5852  0.4598
12814TIP3    H159933   2.724   5.157  11.431 -0.1723 -0.4303  0.1809
12814TIP3    H259934   2.670   5.232  11.551  0.2130 -0.6467  0.4903
12815TIP3   OH259935   3.451   0.266   4.499 -0.5767 -0.3375 -0.5497
12815TIP3    H159936   3.385   0.201   4.524 -0.0114 -0.5501  0.4469
12815TIP3    H259937   3.490   0.293   4.582  0.1228  0.2855 -1.0733
12816TIP3   OH259938   0.165   0.554   2.012 -0.1985 -0.0883  0.1384
12816TIP3    H159939   0.081   0.516   1.987  0.6411 -3.3129  1.7183
12816TIP3    H259940   0.229   0.515   1.952  0.6409 -0.8908  1.4938
12817TIP3   OH259941   4.591   5.939  15.238  0.3190  0.2199  0.3538
12817TIP3    H159942   4.619   5.906  15.152 -0.7888  1.5133 -0.5429
12817TIP3    H259943   4.553   5.863  15.281 -1.3381  0.0549 -1.2969
12818TIP3   OH259944   0.123   5.807   3.790 -0.3514 -0.2472  0.0003
12818TIP3    H159945   0.037   5.826   3.752 -0.7719  0.5857  1.3070
12818TIP3    H259946   0.103   5.769   3.875  0.5443  1.4202  1.0084
12819TIP3   OH259947   5.818   2.897  16.612 -0.5117 -0.6033 -0.0982
12819TIP3    H159948   5.771   2.945  16.543  0.8667  1.3456  0.2184
12819TIP3    H259949   5.836   2.811  16.574 -0.9534 -0.0357 -1.6597
12820TIP3   OH259950   2.765   6.378  14.273  0.3276 -0.2519 -0.3168
12820TIP3    H159951   2.811   6.461  14.259  0.8229 -0.5408 -0.4181
12820TIP3    H259952   2.740   6.348  14.186  2.1351 -1.3231 -0.5231
12821TIP3   OH259953   5.340   2.087   6.250 -0.1614 -0.5915 -0.0454
12821TIP3    H159954   5.417   2.129   6.211 -0.6713 -1.0350 -1.5742
12821TIP3    H259955   5.354   2.096   6.344  0.2950  2.0116 -0.2779
12822TIP3   OH259956   1.791   6.338   0.795 -0.2028 -0.1548  0.0800
12822TIP3    H159957   1.716   6.345   0.736 -1.2079  3.1893  1.5118
12822TIP3    H259958   1.837   6.422   0.785 -0.2612  0.4420  3.7250
12823TIP3   OH259959   1.587   1.332   0.918  0.2167 -0.0677 -0.0105
12823TIP3    H159960   1.653   1.398   0.898 -1.1356  0.9775 -1.1793
12823TIP3    H259961   1.626   1.249   0.888  1.0978  0.4723 -0.4078
12824TIP3   OH259962   2.151   3.259   2.107 -0.3305  0.4199 -0.1855
12824TIP3    H159963   2.087   3.328   2.125 -1.4399 -0.8866  1.0936
12824TIP3    H259964   2.235   3.299   2.129 -0.5950  2.2659 -2.1923
12825TIP3   OH259965   6.352   4.335  13.191 -0.4039 -0.2495  0.5123
12825TIP3    H159966   6.339   4.365  13.101 -2.1231  2.1603  1.4504
12825TIP3    H259967   6.413   4.398  13.228 -0.2719 -0.7924  1.2318
12826TIP3   OH259968   6.569   1.950  16.482  0.1710  0.5490  0.8502
12826TIP3    H159969   6.638   1.944  16.416 -0.1546  0.2360  0.5284
12826TIP3    H259970   6.503   2.007  16.442 -0.9047 -1.1366  0.0763
12827TIP3   OH259971   2.723   3.775  16.996 -0.4043  0.3305 -0.0147
12827TIP3    H159972   2.783   3.711  16.958 -0.4293  0.0867  0.3559
12827TIP3    H259973   2.636   3.739  16.981 -0.5061  0.9543 -1.0608
12828TIP3   OH259974   5.727   6.072   4.348  0.0418  0.1930  0.2143
12828TIP3    H159975   5.678   6.123   4.283 -0.1552  1.8550  1.6045
12828TIP3    H259976   5.665   6.058   4.420  1.0702  0.8635  1.2700
12829TIP3   OH259977   5.259   0.714  16.469 -0.1036  0.1133 -0.0238
12829TIP3    H159978   5.173   0.694  16.432 -0.7619  2.8756 -0.2324
12829TIP3    H259979   5.307   0.756  16.397  0.4686  0.9475  0.8214
12830TIP3   OH259980   3.428   0.706   3.604  0.5096 -0.4830  0.1294
12830TIP3    H159981   3.393   0.617   3.610 -0.6788 -0.3520 -3.0764
12830TIP3    H259982   3.521   0.695   3.588  0.8052 -1.0095  1.9268
12831TIP3   OH259983   4.991   0.518  11.202  0.7690  0.4734 -0.5326
12831TIP3    H159984   5.053   0.481  11.140  0.4978 -0.5429 -0.2189
12831TIP3    H259985   4.989   0.612  11.182  3.2499  0.7444  0.1972
12832TIP3   OH259986   2.593   3.508  13.082  0.2001 -0.2111  0.0646
12832TIP3    H159987   2.630   3.590  13.113  1.0817 -1.0232  1.2834
12832TIP3    H259988   2.498   3.519  13.091  0.1935  1.3313 -1.5982
12833TIP3   OH259989   3.339   3.876  12.658  0.8729 -0.2497 -0.6353
12833TIP3    H159990   3.268   3.831  12.613  0.2210 -2.4719  2.3691
12833TIP3    H259991   3.311   3.881  12.749  3.2176  1.7390  0.0905
12834TIP3   OH259992   1.700   5.168  15.716  0.1512  0.4177  0.0366
12834TIP3    H159993   1.639   5.130  15.780  0.0634  1.2055  0.4318
12834TIP3    H259994   1.644   5.221  15.659  0.1426 -0.7523 -1.0859
12835TIP3   OH259995   4.314   5.335   0.613  0.3704  0.1482  0.2650
12835TIP3    H159996   4.243   5.386   0.651 -0.3540  0.5426 -1.5125
12835TIP3    H259997   4.393   5.373   0.650 -0.2305  1.5308  0.1938
12836TIP3   OH259998   6.396   5.921  15.562  0.1090 -0.1800  0.6951
12836TIP3    H159999   6.374   5.970  15.482  0.2510 -2.3822 -0.7873
12836TIP3    H260000   6.326   5.856  15.571  0.1674 -0.0578  2.3270
12837TIP3   OH260001   3.909   2.666  11.122 -0.1447 -0.3679  0.0051
12837TIP3    H160002   4.001   2.683  11.102 -0.6447  1.2177 -1.1047
12837TIP3    H260003   3.905   2.571  11.137  1.9972 -0.2172  2.0270
12838TIP3   OH260004   3.413   6.510   0.671 -0.3387  0.3194 -0.1032
12838TIP3    H160005   3.492   6.562   0.655  0.1837 -0.3932  0.1415
12838TIP3    H260006   3.402   6.458   0.591 -0.9968  0.9505 -0.4456
12839TIP3   OH260007   0.376   3.981   1.715  0.0338 -0.6379 -1.1019
12839TIP3    H160008   0.385   3.900   1.666 -1.4602 -1.1351 -0.6174
12839TIP3    H260009   0.380   3.955   1.807  1.3897  0.0973 -0.9275
12840TIP3   OH260010   2.220   3.704   5.339 -0.0641  0.3583 -0.1105
12840TIP3    H160011   2.271   3.738   5.412 -0.2379  0.6775 -0.1380
12840TIP3    H260012   2.130   3.727   5.359 -0.0575  0.9044 -0.6726
12841TIP3   OH260013   6.071   3.308  12.725 -0.4377  0.2497 -0.4605
12841TIP3    H160014   6.134   3.375  12.752 -1.7380  1.3354 -0.0114
12841TIP3    H260015   5.994   3.358  12.698 -1.4782 -1.0812 -0.0103
12842TIP3   OH260016   5.228   3.080  12.279  0.1898  0.1982 -0.8757
12842TIP3    H160017   5.292   3.121  12.339 -0.4142  0.6311 -0.5123
12842TIP3    H260018   5.266   3.092  12.192  0.5421  0.5900 -0.6756
12843TIP3   OH260019   3.826   4.118   0.186  0.1478  0.1271 -0.6959
12843TIP3    H160020   3.741   4.108   0.229  0.4269 -0.9045 -0.3493
12843TIP3    H260021   3.860   4.201   0.219 -0.1726 -0.0742  0.1683
12844TIP3   OH260022   4.026   3.986   4.206  0.1625 -0.2884 -0.0564
12844TIP3    H160023   3.985   4.072   4.205  0.6428  0.0052  1.5806
12844TIP3    H260024   3.954   3.925   4.221  0.0899  0.0620  1.1017
12845TIP3   OH260025   3.206   1.916   5.557 -0.5396  0.3228  0.5555
12845TIP3    H160026   3.285   1.866   5.538  0.6253  1.9136  0.9757
12845TIP3    H260027   3.170   1.939   5.471  0.8804  1.7093  0.2992
12846TIP3   OH260028   0.453   5.249  15.981  0.2160 -0.8644  0.5374
12846TIP3    H160029   0.520   5.310  16.011  0.7871 -0.4829 -1.3486
12846TIP3    H260030   0.406   5.223  16.060 -1.5531  3.6822  1.2944
12847TIP3   OH260031   6.566   6.198  13.627  0.1436  0.0893 -0.1751
12847TIP3    H160032   6.611   6.255  13.564 -0.5694 -0.5983 -1.3555
12847TIP3    H260033   6.473   6.219  13.616  0.0596  0.6334  1.3628
12848TIP3   OH260034   6.207   1.785  14.577  0.2257  0.0730 -0.0475
12848TIP3    H160035   6.148   1.770  14.651 -0.7361  0.4759 -0.7201
12848TIP3    H260036   6.195   1.709  14.520  1.3391 -0.4855  0.4258
12849TIP3   OH260037   1.802   3.208   5.358  0.2935 -0.4679  0.5090
12849TIP3    H160038   1.889   3.208   5.397  0.8519  0.0151 -0.6610
12849TIP3    H260039   1.760   3.287   5.392  0.6040 -0.2911  0.4835
12850TIP3   OH260040   5.446   1.752  12.820 -0.2509 -0.1217 -0.2117
12850TIP3    H160041   5.521   1.811  12.809  0.1303 -0.4652  0.4575
12850TIP3    H260042   5.404   1.782  12.901 -0.7679 -0.0130 -0.5143
12851TIP3   OH260043   1.731   1.065   0.749 -0.3601  0.2947 -0.3054
12851TIP3    H160044   1.820   1.092   0.773 -1.4705  4.1184  0.0707
12851TIP3    H260045   1.713   1.112   0.668 -2.6341  1.0573  0.5767
12852TIP3   OH260046   5.357   0.025  11.404 -0.2018 -0.2498 -0.0945
12852TIP3    H160047   5.448   0.000  11.420 -0.2572  0.2082  0.9550
12852TIP3    H260048   5.363   0.099  11.344 -0.0296 -2.6045 -3.2991
12853TIP3   OH260049   0.953   6.652   3.030  0.2519 -0.3396 -0.2529
12853TIP3    H160050   0.992   6.734   3.059  0.9209  0.1839 -2.4178
12853TIP3    H260051   1.028   6.601   2.998 -0.3553 -1.1324 -0.4320
12854TIP3   OH260052   3.529   4.825  11.278  0.4662  0.3600  0.5554
12854TIP3    H160053   3.553   4.881  11.205  0.8428  1.4610  1.4912
12854TIP3    H260054   3.567   4.739  11.258  1.7790  1.0288  0.1426
12855TIP3   OH260055   0.151   5.550   0.617 -0.1251  0.7592 -0.2390
12855TIP3    H160056   0.081   5.576   0.557  0.2919  0.3866 -0.8978
12855TIP3    H260057   0.167   5.627   0.670 -2.6341  0.2125  1.5303
12856TIP3   OH260058   3.795   5.321   4.156 -0.4676  0.3304  0.1321
12856TIP3    H160059   3.834   5.381   4.092 -0.0731 -1.3579 -1.2714
12856TIP3    H260060   3.867   5.263   4.181 -1.3834 -1.1004 -0.4138
12857TIP3   OH260061   3.883   0.249  14.429  0.7965 -0.3713 -0.1095
12857TIP3    H160062   3.793   0.265  14.459  0.2066 -2.3436 -0.6553
12857TIP3    H260063   3.938   0.290  14.496 -0.4987  0.6547  0.3743
12858TIP3   OH260064   0.763   3.680  11.750 -0.0467 -0.3675 -0.0112
12858TIP3    H160065   0.809   3.643  11.674  0.0524  0.4663 -0.3710
12858TIP3    H260066   0.670   3.665  11.731  0.0261 -1.0908  0.1994
12859TIP3   OH260067   2.773   1.829  11.283  0.0671 -0.1369 -0.5837
12859TIP3    H160068   2.839   1.766  11.256 -0.4745 -0.9193 -0.1341
12859TIP3    H260069   2.693   1.802  11.238 -0.1500  0.2847 -0.4611
12860TIP3   OH260070   4.186   4.734   3.636  0.9620 -0.0202  0.1454
12860TIP3    H160071   4.095   4.759   3.618  1.0998  1.3376  1.1274
12860TIP3    H260072   4.182   4.642   3.661 -0.1590  0.0407  0.2254
12861TIP3   OH260073   2.369   2.579  16.149 -0.0541 -0.4025  0.1792
12861TIP3    H160074   2.372   2.645  16.080 -0.0729 -0.0655  0.4963
12861TIP3    H260075   2.316   2.619  16.218  1.2341 -0.0902  1.0312
12862TIP3   OH260076   6.396   1.446   2.894 -0.0754  0.2789 -0.2480
12862TIP3    H160077   6.455   1.373   2.878  1.9635  2.1002 -1.5394
12862TIP3    H260078   6.402   1.461   2.989 -0.1105 -0.8655 -0.0530
12863TIP3   OH260079   3.332   5.703  13.900 -0.0027  0.0439 -0.1209
12863TIP3    H160080   3.375   5.650  13.967  0.5490  0.0762 -0.4480
12863TIP3    H260081   3.332   5.649  13.822  0.1783  0.3585 -0.3416
12864TIP3   OH260082   5.208   6.053   2.409  0.2558 -0.1017  0.2817
12864TIP3    H160083   5.227   6.138   2.448  1.5247 -0.6490  0.9047
12864TIP3    H260084   5.154   6.073   2.333 -1.4173  1.0850  1.6970
12865TIP3   OH260085   3.905   3.926  14.410  0.0417 -0.4967 -0.8378
12865TIP3    H160086   3.873   3.857  14.353  0.0650 -2.0173  0.8969
12865TIP3    H260087   3.934   3.881  14.489  2.2280  1.2603 -0.5062
12866TIP3   OH260088   5.108   6.684   3.318 -0.5467  0.0159  0.3593
12866TIP3    H160089   5.072   6.764   3.279  1.7102  0.3941 -1.1464
12866TIP3    H260090   5.097   6.696   3.412 -1.9107  1.2575  0.0774
12867TIP3   OH260091   5.939   2.789   4.314  0.1450 -0.4047 -0.1331
12867TIP3    H160092   5.909   2.873   4.280 -2.6490 -1.0401  0.5158
12867TIP3    H260093   6.031   2.803   4.335 -0.2260  2.4984 -0.0525
12868TIP3   OH260094   0.821   1.794   6.275 -0.0435 -0.2058 -0.0847
12868TIP3    H160095   0.872   1.749   6.343 -0.3734 -1.7414 -0.8237
12868TIP3    H260096   0.732   1.799   6.311 -0.2096 -0.9834 -0.3741
12869TIP3   OH260097   3.183   5.562  14.753 -0.7527 -0.4752 -0.1230
12869TIP3    H160098   3.200   5.514  14.834  1.1363  3.2619  1.9917
12869TIP3    H260099   3.099   5.606  14.768  0.1663  1.1814  0.4463
12870TIP3   OH260100   1.402   3.135  11.221  0.2339 -0.4284 -0.0667
12870TIP3    H160101   1.365   3.061  11.270 -0.5656 -0.7465 -1.1022
12870TIP3    H260102   1.338   3.152  11.152 -0.1135  1.9293  0.7517
12871TIP3   OH260103   2.833   1.481   5.354 -0.0806 -0.4879 -0.0596
12871TIP3    H160104   2.805   1.445   5.270 -1.6837 -1.7392  0.9623
12871TIP3    H260105   2.777   1.557   5.367  1.1153  0.5514 -0.7165
12872TIP3   OH260106   3.529   0.072   2.239  0.4714 -0.0411  0.2455
12872TIP3    H160107   3.502   0.117   2.159 -1.6242  4.7375  3.2138
12872TIP3    H260108   3.451   0.025   2.268  0.3363  0.5025  0.7894
12873TIP3   OH260109   6.242   6.590   1.047  0.1444  0.3470  0.3321
12873TIP3    H160110   6.178   6.643   1.000 -0.3258 -0.4003  0.1098
12873TIP3    H260111   6.198   6.567   1.129  1.9824  4.0913  2.6473
12874TIP3   OH260112   0.538   0.123  17.012 -0.2234 -0.1365  0.1891
12874TIP3    H160113   0.593   0.056  17.054 -1.8728 -1.1883  0.7711
12874TIP3    H260114   0.551   0.202  17.065  0.5708 -0.4250  0.4339
12875TIP3   OH260115   0.216   4.061   4.929 -0.1195 -0.8482  0.7240
12875TIP3    H160116   0.293   4.023   4.970 -0.8025 -1.7299  1.2302
12875TIP3    H260117   0.201   4.142   4.978  0.0930 -1.0166  1.0788
12876TIP3   OH260118   6.053   1.381  14.786 -0.2662 -0.4197 -0.4181
12876TIP3    H160119   6.019   1.452  14.840 -0.8267 -0.0544 -1.2293
12876TIP3    H260120   6.023   1.301  14.829 -2.8941 -0.1225 -1.4931
12877TIP3   OH260121   0.279   4.157  16.588 -0.4576 -0.1304  0.1996
12877TIP3    H160122   0.341   4.194  16.651  0.1612 -1.6330  0.5067
12877TIP3    H260123   0.276   4.064  16.608 -1.0584 -0.4691 -1.3165
12878TIP3   OH260124   3.303   3.663  15.316 -0.0456 -0.3910 -0.9346
12878TIP3    H160125   3.296   3.667  15.411 -1.3455 -0.0884 -1.0344
12878TIP3    H260126   3.376   3.604  15.301  0.3822 -0.2030  0.2498
12879TIP3   OH260127   3.810   4.256   1.696  0.1775  0.4266 -0.7559
12879TIP3    H160128   3.722   4.266   1.733  0.2347 -0.9424 -0.1999
12879TIP3    H260129   3.844   4.177   1.737  1.4478  0.6128 -1.4229
12880TIP3   OH260130   0.598   2.417  15.964  0.1173 -0.4768  0.0493
12880TIP3    H160131   0.548   2.450  15.889  0.9413 -1.4406 -0.9626
12880TIP3    H260132   0.605   2.323  15.948  1.1841 -0.5424  0.8131
12881TIP3   OH260133   1.932   3.307  14.024 -0.5100  0.3590  1.0466
12881TIP3    H160134   1.907   3.400  14.029 -0.3274  0.5065 -0.3423
12881TIP3    H260135   1.974   3.289  14.107  0.9682  1.9874  0.7033
12882TIP3   OH260136   5.940   2.305   5.828 -0.2679  0.2662  0.6314
12882TIP3    H160137   6.008   2.308   5.761 -1.7902  4.0447 -1.0216
12882TIP3    H260138   5.983   2.336   5.908  0.5905 -0.1593  0.3419
12883TIP3   OH260139   1.460   3.799   4.188 -0.2379  0.2555  0.4782
12883TIP3    H160140   1.417   3.715   4.176  0.0822  0.0681  0.6129
12883TIP3    H260141   1.547   3.788   4.149 -0.4296  0.7342 -0.0893
12884TIP3   OH260142   0.527   4.838   0.701 -0.8125  0.4406 -0.1109
12884TIP3    H160143   0.575   4.913   0.736  0.9047 -0.6663  0.0304
12884TIP3    H260144   0.522   4.854   0.607  2.5221 -0.7468 -0.6242
12885TIP3   OH260145   4.837   4.642  14.679 -0.7308 -0.4639 -0.7508
12885TIP3    H160146   4.792   4.558  14.688 -0.0996 -0.6513  1.0314
12885TIP3    H260147   4.767   4.707  14.674 -1.2085 -1.0004 -1.3128
12886TIP3   OH260148   2.759   2.839  11.912  0.0934  0.4519 -0.6879
12886TIP3    H160149   2.680   2.790  11.936 -1.1630  1.9830 -1.5397
12886TIP3    H260150   2.812   2.839  11.992  0.4527 -2.7480 -0.8075
12887TIP3   OH260151   5.220   3.336   1.496 -0.0289 -0.3876 -0.7025
12887TIP3    H160152   5.308   3.336   1.534 -0.4476  1.2600  0.3301
12887TIP3    H260153   5.164   3.302   1.566 -0.3480 -0.5331 -1.0270
12888TIP3   OH260154   2.388   1.967   5.203 -0.3030 -0.3739  0.0079
12888TIP3    H160155   2.412   2.060   5.205  1.2698 -0.7563  1.1335
12888TIP3    H260156   2.442   1.927   5.271 -2.0395 -1.8847  0.5641
12889TIP3   OH260157   3.244   4.237  14.988  0.1063 -0.5518 -0.5341
12889TIP3    H160158   3.168   4.208  15.038  0.5337 -0.8752 -0.0554
12889TIP3    H260159   3.319   4.212  15.043  0.5664 -0.5569 -1.1584
12890TIP3   OH260160   2.950   0.949  13.154  0.0881  0.0141 -0.1508
12890TIP3    H160161   2.904   0.869  13.178  0.6657 -0.0156  0.9262
12890TIP3    H260162   3.041   0.933  13.180  0.6240  0.2781 -1.7201
12891TIP3   OH260163   2.377   2.116   2.813  0.6431 -1.0618  0.1131
12891TIP3    H160164   2.347   2.139   2.901  1.0871  0.3089 -0.0636
12891TIP3    H260165   2.352   2.025   2.802 -2.1020 -0.4309  0.5239
12892TIP3   OH260166   1.943   4.928  12.015  0.1513  0.2200 -0.4647
12892TIP3    H160167   1.848   4.916  12.015  0.2770 -1.5131  1.8567
12892TIP3    H260168   1.964   4.953  12.105  1.9615 -0.3453 -0.6886
12893TIP3   OH260169   2.121   3.283  16.245 -0.1396  0.3024  0.3716
12893TIP3    H160170   2.037   3.326  16.229  0.1383  0.7393  0.0644
12893TIP3    H260171   2.156   3.325  16.323  0.3265  0.9489 -0.1682
12894TIP3   OH260172   4.693   3.071   4.093  0.7297 -0.3318  0.2727
12894TIP3    H160173   4.702   3.005   4.161  0.9169 -1.6662 -0.9808
12894TIP3    H260174   4.783   3.085   4.062  1.0427  2.2927  2.0548
12895TIP3   OH260175   5.177   2.659   5.244 -0.3861  0.1611  0.1574
12895TIP3    H160176   5.135   2.696   5.166 -2.9653 -0.0041  1.3531
12895TIP3    H260177   5.177   2.730   5.308 -2.1733 -0.8102  1.3245
12896TIP3   OH260178   1.875   4.053   4.752  0.1800 -1.1907 -1.0474
12896TIP3    H160179   1.921   4.071   4.834 -0.3527 -0.6209 -0.8613
12896TIP3    H260180   1.916   4.113   4.688 -1.4561  0.6348 -0.4745
12897TIP3   OH260181   3.537   0.457  15.518  0.2212  0.0844 -0.1919
12897TIP3    H160182   3.527   0.513  15.441  2.3864  1.6561  0.5928
12897TIP3    H260183   3.603   0.393  15.492  1.3736  0.9634  0.4870
12898TIP3   OH260184   4.047   3.901  14.018  0.4194 -0.2047  0.3273
12898TIP3    H160185   3.971   3.952  14.043  0.1934 -0.0108 -0.7227
12898TIP3    H260186   4.063   3.924  13.926  2.0446  0.1384  0.6669
12899TIP3   OH260187   1.465   4.891  11.735  0.2573  0.7053  0.0455
12899TIP3    H160188   1.449   4.984  11.721 -1.1010  0.5348  0.2572
12899TIP3    H260189   1.467   4.880  11.830  0.9869  0.6047  0.0208
12900TIP3   OH260190   3.565   4.221   1.851  0.2657 -0.3328  0.2216
12900TIP3    H160191   3.485   4.274   1.847  1.8499  2.1811 -0.2564
12900TIP3    H260192   3.602   4.240   1.937  1.1874 -0.1250 -0.2152
12901TIP3   OH260193   1.403   0.679  17.101  0.1909 -0.3059 -0.0193
12901TIP3    H160194   1.446   0.644  17.179  1.5918  0.4886 -0.3899
12901TIP3    H260195   1.333   0.617  17.082  0.9704 -1.4880  0.8165
12902TIP3   OH260196   3.216   1.188   1.358 -0.0670 -0.1645 -0.0653
12902TIP3    H160197   3.311   1.195   1.354 -0.2077  2.6483 -1.0234
12902TIP3    H260198   3.196   1.177   1.451  1.1690  0.3290  0.2724
12903TIP3   OH260199   2.644   2.726  13.137  0.1518  0.0432  0.0146
12903TIP3    H160200   2.623   2.680  13.218 -1.8563 -1.2868 -1.1871
12903TIP3    H260201   2.581   2.798  13.133  1.0477  0.8563  0.2047
12904TIP3   OH260202   2.630   6.460  15.213  0.6658  0.6388  0.4249
12904TIP3    H160203   2.672   6.526  15.159 -1.7165  0.8179 -1.3706
12904TIP3    H260204   2.634   6.379  15.161 -0.7394  0.5693  0.3718
12905TIP3   OH260205   6.413   4.150   4.350 -0.0468 -0.0271  0.4926
12905TIP3    H160206   6.442   4.068   4.390 -2.2088 -1.2317 -0.1689
12905TIP3    H260207   6.418   4.133   4.255 -1.0492  0.3593  0.3530
12906TIP3   OH260208   6.578   3.062   1.115 -0.6142 -0.9165  0.0093
12906TIP3    H160209   6.508   3.124   1.134 -2.2013 -2.8433  0.7886
12906TIP3    H260210   6.621   3.097   1.037 -1.7624  0.8529  0.1230
12907TIP3   OH260211   1.363   2.027   4.631 -0.2250  0.0368  0.3851
12907TIP3    H160212   1.280   2.006   4.588 -0.0647 -0.9442  0.5321
12907TIP3    H260213   1.355   1.988   4.718 -0.3447  1.5617  1.0740
12908TIP3   OH260214   3.885   3.147   0.356  0.6135 -0.4124  0.8885
12908TIP3    H160215   3.830   3.209   0.405 -2.4611 -0.5859 -1.9944
12908TIP3    H260216   3.955   3.200   0.320 -1.0839  1.1591 -0.2404
12909TIP3   OH260217   3.352   2.997  15.149  0.4606  0.3429  0.6458
12909TIP3    H160218   3.327   3.072  15.203  0.5731  0.7172  0.1786
12909TIP3    H260219   3.431   3.026  15.103 -0.2617  0.4452 -0.5847
12910TIP3   OH260220   4.957   4.328  15.298  0.2004 -0.5408  0.2992
12910TIP3    H160221   4.901   4.255  15.324 -2.2903  1.4703  1.0681
12910TIP3    H260222   4.986   4.367  15.380  1.9546 -0.9485 -0.0963
12911TIP3   OH260223   2.233   3.700   4.398  0.3303  0.4355 -0.0259
12911TIP3    H160224   2.327   3.682   4.400  0.3358  0.4887  0.1679
12911TIP3    H260225   2.226   3.785   4.354  0.2574 -0.3449 -1.5829
12912TIP3   OH260226   6.110   5.451   4.456 -0.5139  0.6314 -0.0277
12912TIP3    H160227   6.038   5.400   4.492  0.2834  0.1879  0.9959
12912TIP3    H260228   6.152   5.392   4.393  0.0079  0.2359  0.6731
12913TIP3   OH260229   6.116   3.807   1.426 -0.2040 -0.0764 -0.1821
12913TIP3    H160230   6.063   3.855   1.490  0.2032  0.8893 -0.5533
12913TIP3    H260231   6.072   3.723   1.418 -2.2146  0.9987 -1.1469
12914TIP3   OH260232   6.633   3.886   2.097 -0.2572  0.2417  0.0532
12914TIP3    H160233   6.563   3.918   2.154 -1.7516 -0.0457 -1.5184
12914TIP3    H260234   6.678   3.819   2.149 -0.0336  1.6221  1.7109
12915TIP3   OH260235   1.780   2.607   0.068 -0.1626 -0.3453  0.0618
12915TIP3    H160236   1.863   2.601   0.115  0.4588  0.7491 -0.8413
12915TIP3    H260237   1.716   2.630   0.135  0.2996 -0.9819  0.7340
12916TIP3   OH260238   4.799   5.114   0.634 -0.0052 -0.3276  0.2588
12916TIP3    H160239   4.755   5.101   0.551 -1.7663  1.0306  0.9307
12916TIP3    H260240   4.783   5.033   0.683 -1.8080  0.1250  0.4757
12917TIP3   OH260241   6.288   1.371   3.243 -0.4138 -0.1589  0.5980
12917TIP3    H160242   6.290   1.276   3.234 -0.9543 -0.0772 -0.5188
12917TIP3    H260243   6.195   1.395   3.233 -0.1472  0.5781 -0.2523
12918TIP3   OH260244   6.830   6.786   6.025  0.1138  0.3704  0.0930
12918TIP3    H160245   6.888   6.747   5.960 -0.8424 -2.0564  0.5614
12918TIP3    H260246   6.888   6.836   6.083  1.8078 -1.9194  0.5358
12919TIP3   OH260247   4.390   4.564   5.086 -0.0820 -0.1293 -0.3077
12919TIP3    H160248   4.394   4.647   5.134 -0.6266 -0.8036  0.9540
12919TIP3    H260249   4.447   4.577   5.010  0.0360  1.3070  0.0061
12920TIP3   OH260250   0.501   3.820   2.257  0.9463  0.2886  0.1873
12920TIP3    H160251   0.538   3.803   2.344  0.6294  0.8277  0.4318
12920TIP3    H260252   0.499   3.916   2.250 -0.1465  0.2702  0.0695
12921TIP3   OH260253   4.541   3.637   2.369  0.2786 -0.6525 -0.0006
12921TIP3    H160254   4.506   3.580   2.438 -1.1191  0.5642  0.3458
12921TIP3    H260255   4.583   3.709   2.416  2.3461 -1.5183 -0.4305
12922TIP3   OH260256   3.034   3.858   1.156  0.0215  0.2553  0.2454
12922TIP3    H160257   3.030   3.812   1.072  1.1592  2.3644 -1.0414
12922TIP3    H260258   3.119   3.833   1.192  0.2075  0.5467  0.0163
12923TIP3   OH260259   0.816   4.118   0.521  0.1673  0.1502 -0.5003
12923TIP3    H160260   0.777   4.032   0.536 -0.9579  0.4717 -1.4689
12923TIP3    H260261   0.777   4.174   0.588 -1.5147  0.5894 -1.7805
12924TIP3   OH260262   5.114   6.706   4.490 -0.2483 -0.1075 -0.6993
12924TIP3    H160263   5.107   6.612   4.474 -0.4442 -0.2339  0.0802
12924TIP3    H260264   5.164   6.713   4.571  0.2717  0.4863 -1.0602
12925TIP3   OH260265   4.386   6.123   4.101  0.3238 -0.0175  0.0637
12925TIP3    H160266   4.440   6.198   4.127 -0.2588  0.2153  0.6288
12925TIP3    H260267   4.444   6.069   4.047  0.5992  1.1018 -0.8102
12926TIP3   OH260268   2.478   3.904  15.272  0.5786 -0.0414 -0.1429
12926TIP3    H160269   2.556   3.931  15.320  0.4002  1.6915 -0.7330
12926TIP3    H260270   2.510   3.879  15.185  0.5766 -0.3079 -0.0684
12927TIP3   OH260271   2.326   3.581  13.163  0.2796  0.2410 -0.1440
12927TIP3    H160272   2.269   3.505  13.172 -0.1397  0.5250 -0.3875
12927TIP3    H260273   2.289   3.631  13.091 -0.5347  1.6182  1.1836
12928TIP3   OH260274   0.677   5.235   5.011  0.2621 -0.3960  0.1839
12928TIP3    H160275   0.663   5.145   5.039  0.9992 -0.4718  0.3198
12928TIP3    H260276   0.700   5.282   5.091 -0.0121 -0.1009  0.0979
12929TIP3   OH260277   3.896   0.856  14.952  0.1266 -0.4054 -0.3095
12929TIP3    H160278   3.865   0.797  14.883  0.9927  0.9168 -1.9212
12929TIP3    H260279   3.974   0.814  14.987 -0.8126 -1.5145  0.5228
12930TIP3   OH260280   2.060   6.809  13.312 -0.1666  0.1802 -0.0582
12930TIP3    H160281   2.002   6.734  13.295  0.0327  0.2642 -1.1798
12930TIP3    H260282   2.128   6.803  13.245  0.1140  1.1082  0.1257
12931TIP3   OH260283   3.668   0.893  11.709 -0.2495  0.5138  0.5671
12931TIP3    H160284   3.609   0.819  11.694  0.4290  0.3786 -2.0154
12931TIP3    H260285   3.616   0.970  11.689  0.3985  0.3761 -2.1290
12932TIP3   OH260286   0.332   6.208   2.202  0.2742 -0.2289  0.2089
12932TIP3    H160287   0.239   6.226   2.217 -0.0463 -0.8271 -0.8993
12932TIP3    H260288   0.345   6.119   2.234 -0.3904 -1.4724 -2.6353
12933TIP3   OH260289   6.039   1.345  13.764  0.2175  0.6403 -0.1052
12933TIP3    H160290   5.981   1.413  13.729 -0.5828 -0.3881 -0.8362
12933TIP3    H260291   5.982   1.270  13.780  0.3990  1.1392  3.9467
12934TIP3   OH260292   3.195   0.124   3.131  0.2721 -0.2302 -0.2777
12934TIP3    H160293   3.260   0.100   3.065 -0.4016  1.0047 -1.4405
12934TIP3    H260294   3.118   0.071   3.109 -0.7591  1.8271 -2.0235
12935TIP3   OH260295   1.758   3.669   0.379  0.0508  0.3102 -0.4968
12935TIP3    H160296   1.853   3.668   0.393  0.1386  0.2486 -1.0750
12935TIP3    H260297   1.746   3.635   0.290 -0.5470 -0.1381 -0.2500
12936TIP3   OH260298   5.277   0.473  12.083  0.0333 -0.5581  0.3288
12936TIP3    H160299   5.214   0.504  12.148  0.9817 -0.0174  1.0066
12936TIP3    H260300   5.254   0.521  12.003  1.4164  1.9945  1.3270
12937TIP3   OH260301   3.476   2.174   2.819 -0.0473 -0.2061 -0.2494
12937TIP3    H160302   3.412   2.217   2.763  0.2476 -0.8412 -1.0896
12937TIP3    H260303   3.560   2.190   2.778  0.1886 -0.5584  0.0844
12938TIP3   OH260304   1.103   4.057  16.296  0.7271  0.5760 -0.5774
12938TIP3    H160305   1.159   4.134  16.283  0.5575  0.7107 -0.5092
12938TIP3    H260306   1.083   4.027  16.208  3.7128 -1.5405 -0.7249
12939TIP3   OH260307   2.588   1.330   1.715  0.4705 -0.4268 -0.1547
12939TIP3    H160308   2.506   1.379   1.705  0.3341 -0.7786 -0.7334
12939TIP3    H260309   2.656   1.398   1.711  0.1633  0.0794  1.8695
12940TIP3   OH260310   1.630   6.705  15.122 -0.0918 -0.0721 -0.8860
12940TIP3    H160311   1.706   6.664  15.163  0.5029  1.0305 -0.8332
12940TIP3    H260312   1.574   6.731  15.195  0.5814  1.1626 -0.7898
12941TIP3   OH260313   5.124   1.228  14.927 -0.1868  0.5071  0.3110
12941TIP3    H160314   5.096   1.316  14.904 -1.1857  0.8270  2.5047
12941TIP3    H260315   5.192   1.241  14.993 -0.7749 -0.3312  1.1132
12942TIP3   OH260316   6.552   5.816  13.870  0.1389  0.3245 -0.4034
12942TIP3    H160317   6.536   5.725  13.845 -0.6161  0.7003 -1.3679
12942TIP3    H260318   6.466   5.858  13.862  0.9100  1.6862 -2.4810
12943TIP3   OH260319   4.519   4.943   4.651  0.1411 -0.4095 -0.0540
12943TIP3    H160320   4.524   4.962   4.557  1.2595  0.2179  0.1165
12943TIP3    H260321   4.441   4.888   4.660 -0.5178  0.2739 -1.2222
12944TIP3   OH260322   1.935   5.478   2.146 -0.2549 -0.1641 -0.5188
12944TIP3    H160323   1.902   5.565   2.170 -0.2115 -0.2107 -0.2810
12944TIP3    H260324   2.006   5.494   2.084 -0.6040 -0.0527 -0.8928
12945TIP3   OH260325   2.052   6.633   2.984  0.2553  0.2842 -0.3524
12945TIP3    H160326   1.988   6.574   3.025  0.3159  0.1484 -0.4556
12945TIP3    H260327   2.124   6.576   2.957  0.8318  0.5438  0.5573
12946TIP3   OH260328   4.696   6.316  12.009 -0.1657  0.1258 -0.2743
12946TIP3    H160329   4.732   6.244  12.060 -1.3384 -0.0742  0.3105
12946TIP3    H260330   4.683   6.386  12.073 -0.7065  0.2190 -0.4769
12947TIP3   OH260331   5.076   3.460  16.484  0.3299 -0.7156 -0.2036
12947TIP3    H160332   4.984   3.434  16.486 -0.2084  1.0383  1.9649
12947TIP3    H260333   5.089   3.493  16.395 -1.7972  1.0056  0.0328
12948TIP3   OH260334   4.287   3.868   4.619 -0.4910 -0.1009 -0.0685
12948TIP3    H160335   4.323   3.925   4.687  0.7479  0.8191 -1.4316
12948TIP3    H260336   4.343   3.790   4.621 -0.1071  0.1636 -0.3885
12949TIP3   OH260337   5.702   2.324  16.276 -0.0315 -0.3728 -0.3401
12949TIP3    H160338   5.702   2.337  16.181 -1.7139 -1.2077 -0.4973
12949TIP3    H260339   5.779   2.269  16.292 -0.6407 -1.6260 -1.4739
12950TIP3   OH260340   5.448   6.004   4.445 -0.0817 -0.2199 -0.0042
12950TIP3    H160341   5.401   6.085   4.469  2.6328  1.6200 -0.4352
12950TIP3    H260342   5.496   5.981   4.525 -1.1688 -1.7396  0.2493
12951TIP3   OH260343   5.475   4.096   3.423  0.0971 -0.7744 -0.0364
12951TIP3    H160344   5.560   4.051   3.429 -1.0684 -2.9961  1.4046
12951TIP3    H260345   5.426   4.065   3.499 -1.1894  2.3638  0.5681
12952TIP3   OH260346   4.617   0.497  13.201 -0.1579  0.1518 -0.4276
12952TIP3    H160347   4.548   0.562  13.198 -0.4965 -0.1970 -0.2331
12952TIP3    H260348   4.571   0.413  13.202  0.2782 -0.1068 -1.0708
12953TIP3   OH260349   3.545   5.931  16.544  0.5097  0.3035 -0.2308
12953TIP3    H160350   3.452   5.946  16.563  0.2130 -0.8595 -0.6919
12953TIP3    H260351   3.568   6.002  16.484 -0.2904  0.1696 -0.7112
12954TIP3   OH260352   5.776   5.828  13.234 -0.2535  0.1644 -0.8422
12954TIP3    H160353   5.706   5.893  13.245 -0.5265  0.1644 -2.3722
12954TIP3    H260354   5.857   5.879  13.238 -0.2748  0.1254  1.2617
12955TIP3   OH260355   2.043   3.196   3.972  0.2771  0.0210  0.1255
12955TIP3    H160356   2.060   3.240   3.888  2.5466 -0.4357  0.2886
12955TIP3    H260357   2.072   3.259   4.038 -2.6976  0.9241  0.7282
12956TIP3   OH260358   5.980   1.365   1.677 -0.4879  0.0719 -0.7353
12956TIP3    H160359   5.939   1.279   1.668  1.0872 -0.6053 -1.8109
12956TIP3    H260360   5.945   1.400   1.759 -0.5130 -1.9530  0.1658
12957TIP3   OH260361   5.321   1.118  11.726 -0.1981  0.1223 -0.1707
12957TIP3    H160362   5.375   1.144  11.801 -0.4146  0.0388  0.0161
12957TIP3    H260363   5.312   1.024  11.735 -2.1144  0.3533  0.9996
12958TIP3   OH260364   1.900   4.590   4.593  0.4568 -0.0788 -0.0054
12958TIP3    H160365   1.995   4.593   4.593  0.5889 -2.4606 -0.8556
12958TIP3    H260366   1.873   4.651   4.524  1.4900 -1.0665 -1.3265
12959TIP3   OH260367   4.236   6.334   1.099  0.3865  0.1381 -0.8156
12959TIP3    H160368   4.191   6.366   1.178  1.9694  1.1716 -0.2771
12959TIP3    H260369   4.188   6.372   1.026 -1.3308 -1.1333 -0.4083
12960TIP3   OH260370   5.065   3.591   4.124  0.8521  0.1997 -0.1250
12960TIP3    H160371   5.045   3.659   4.059 -0.8402  0.5533  0.7307
12960TIP3    H260372   5.088   3.639   4.203  0.7742 -0.2324  0.1640
12961TIP3   OH260373   3.049   3.906   0.634 -0.3996 -0.5184  0.6418
12961TIP3    H160374   2.988   3.963   0.587 -0.4962 -0.2896  1.0413
12961TIP3    H260375   3.004   3.886   0.716 -0.2517 -0.9555  0.6229
12962TIP3   OH260376   6.446   2.443  14.257 -0.5327  0.3009  0.3157
12962TIP3    H160377   6.528   2.445  14.208 -0.2258  0.9874  0.8521
12962TIP3    H260378   6.424   2.350  14.263 -0.0621  0.1512 -0.2725
12963TIP3   OH260379   0.090   4.477  11.052  0.1211  0.8377 -0.4206
12963TIP3    H160380   0.008   4.464  11.003  0.1072  0.1138 -0.2226
12963TIP3    H260381   0.063   4.516  11.135 -0.2031 -0.7203  0.2403
12964TIP3   OH260382   6.318   0.070  13.160  0.3395  0.2228 -0.3401
12964TIP3    H160383   6.341   0.109  13.245  0.1884 -1.9791  0.7658
12964TIP3    H260384   6.398   0.028  13.130  0.2203  0.4555 -1.0170
12965TIP3   OH260385   4.747   5.636  16.593  0.5824 -0.1242 -0.1926
12965TIP3    H160386   4.789   5.718  16.566  1.5154 -1.1833 -2.1173
12965TIP3    H260387   4.655   5.648  16.571  0.7124  0.4046 -0.4535
12966TIP3   OH260388   4.690   1.912   0.053 -1.4355 -0.3621 -0.1180
12966TIP3    H160389   4.690   1.965   0.133  0.9196  1.5607 -1.2420
12966TIP3    H260390   4.622   1.950  -0.001 -3.7897 -2.3541  1.2608
12967TIP3   OH260391   3.094   2.237   0.261 -0.9540  0.3981  0.7085
12967TIP3    H160392   3.166   2.173   0.262 -1.7019 -0.4861 -0.2273
12967TIP3    H260393   3.067   2.243   0.353  0.6627  1.1850  1.1704
12968TIP3   OH260394   0.161   0.358   6.453 -0.1706 -0.8944 -0.2985
12968TIP3    H160395   0.095   0.370   6.522 -0.6620 -2.2004 -0.5144
12968TIP3    H260396   0.221   0.432   6.465 -0.5886 -0.7488  1.1301
12969TIP3   OH260397   1.042   5.551  14.851 -0.5208 -0.1854 -0.4279
12969TIP3    H160398   0.987   5.629  14.846  0.4733  0.5518 -0.2586
12969TIP3    H260399   1.102   5.560  14.777  0.2900 -0.2432  0.2089
12970TIP3   OH260400   5.860   6.597   4.358 -0.3909 -0.2644  0.0926
12970TIP3    H160401   5.846   6.502   4.358 -1.5833 -0.1133 -0.0883
12970TIP3    H260402   5.951   6.608   4.385  0.7067 -1.5598 -2.6509
12971TIP3   OH260403   1.804   1.397  11.191 -0.1316 -0.5104  0.3881
12971TIP3    H160404   1.877   1.378  11.250  0.0093 -1.5833 -0.1118
12971TIP3    H260405   1.737   1.332  11.213 -0.7078  0.0930  0.4394
12972TIP3   OH260406   2.607   0.868  13.434 -0.4816 -0.2017  0.6346
12972TIP3    H160407   2.703   0.874  13.443 -0.3808 -1.1191  0.2172
12972TIP3    H260408   2.586   0.934  13.368 -0.0598 -0.4206  0.2719
12973TIP3   OH260409   1.375   1.604  16.585 -0.5264 -0.0252 -0.1802
12973TIP3    H160410   1.287   1.568  16.573 -0.4581  0.0509 -0.9187
12973TIP3    H260411   1.362   1.682  16.639 -0.9412  0.1268 -0.5000
12974TIP3   OH260412   4.129   6.683   2.754 -0.4809  0.0305 -0.0536
12974TIP3    H160413   4.039   6.650   2.757  0.0115 -1.3506  0.3041
12974TIP3    H260414   4.135   6.745   2.827 -0.7995 -0.8184  0.7142
12975TIP3   OH260415   6.065   6.455   1.197 -0.4564  0.3075  0.1577
12975TIP3    H160416   6.135   6.397   1.227 -1.1448 -1.1657 -0.9635
12975TIP3    H260417   6.022   6.407   1.126 -1.5678  1.8697 -0.2951
12976TIP3   OH260418   0.078   5.367  13.528  0.4316 -0.4398 -0.5171
12976TIP3    H160419   0.096   5.437  13.466 -0.3100 -1.4599 -1.9293
12976TIP3    H260420   0.142   5.298  13.507 -1.5305 -1.8986 -2.0279
12977TIP3   OH260421   4.285   2.759  12.370  0.0025  0.5420 -0.8306
12977TIP3    H160422   4.287   2.676  12.324  2.4790 -0.1295  0.2979
12977TIP3    H260423   4.376   2.776  12.393 -0.9295  0.8731  3.5813
12978TIP3   OH260424   5.013   1.287  16.104  0.1085  0.3207  0.6775
12978TIP3    H160425   4.942   1.345  16.078  0.6927  0.1250 -1.5870
12978TIP3    H260426   5.092   1.341  16.099  0.3688 -0.0282  0.9692
12979TIP3   OH260427   4.242   6.417   3.230  0.0770 -0.2744 -0.4056
12979TIP3    H160428   4.292   6.408   3.149 -0.0377 -0.1676 -0.4894
12979TIP3    H260429   4.186   6.493   3.215 -0.7253 -0.8916 -0.6505
12980TIP3   OH260430   0.075   5.969   5.770  0.3030 -0.6543 -0.0751
12980TIP3    H160431   0.012   5.979   5.698  0.6160  0.3311 -0.2254
12980TIP3    H260432   0.095   5.875   5.771 -0.2106 -0.7846 -0.8381
12981TIP3   OH260433   3.370   5.975   3.560 -0.2304  0.9152  0.4488
12981TIP3    H160434   3.335   5.969   3.471  1.8364  0.2918 -0.3751
12981TIP3    H260435   3.427   6.052   3.558  1.5699 -0.3759  0.5651
12982TIP3   OH260436   0.771   0.844   4.410  0.6419 -0.5437  0.0177
12982TIP3    H160437   0.814   0.803   4.335 -0.0531 -0.1110 -0.6368
12982TIP3    H260438   0.684   0.805   4.412 -0.4267  1.5760 -1.2771
12983TIP3   OH260439   0.649   0.678  16.240 -0.5950 -0.5009  0.1835
12983TIP3    H160440   0.627   0.589  16.214  0.6297 -1.3585  1.9346
12983TIP3    H260441   0.741   0.674  16.265 -0.5253  1.2569  0.3176
12984TIP3   OH260442   4.691   0.035   3.260 -0.0556 -0.1904  0.9655
12984TIP3    H160443   4.650   0.040   3.347 -0.1257 -1.2014  1.0073
12984TIP3    H260444   4.619   0.047   3.199 -0.0589  0.2082  1.0475
12985TIP3   OH260445   5.677   5.260   4.129 -0.1962 -0.0584  0.2694
12985TIP3    H160446   5.745   5.279   4.064  0.4920  1.0523  1.2780
12985TIP3    H260447   5.680   5.165   4.139 -1.7225 -0.5452 -2.7845
12986TIP3   OH260448   2.879   4.297  16.003  0.2982  0.0457  0.0121
12986TIP3    H160449   2.858   4.226  16.064 -1.1964  0.7676  0.3926
12986TIP3    H260450   2.971   4.285  15.982  0.3357 -1.3763  0.8972
12987TIP3   OH260451   1.157   6.541  13.229 -0.3078  0.1334  0.2153
12987TIP3    H160452   1.150   6.575  13.318  1.0678 -0.3658  0.5405
12987TIP3    H260453   1.241   6.574  13.197  0.0917 -1.2227 -0.2034
12988TIP3   OH260454   5.303   4.147   3.154  0.1767  1.1021 -0.2701
12988TIP3    H160455   5.319   4.190   3.238  1.9479  0.8624 -0.4472
12988TIP3    H260456   5.364   4.073   3.153 -1.0981  0.0227 -1.0091
12989TIP3   OH260457   2.610   2.985   4.519 -0.5176  0.0360  0.4823
12989TIP3    H160458   2.610   3.036   4.438  1.1205 -0.7987 -0.0974
12989TIP3    H260459   2.549   3.031   4.577  1.7764  3.4134  0.4970
12990TIP3   OH260460   3.290   6.499  10.918 -1.0049 -0.1650  0.0779
12990TIP3    H160461   3.195   6.504  10.909 -0.8939  0.6101 -0.8568
12990TIP3    H260462   3.322   6.485  10.829 -0.0206  4.2918 -0.5184
12991TIP3   OH260463   1.760   1.530   3.805 -0.3109  0.1278  0.2895
12991TIP3    H160464   1.740   1.593   3.874  0.1323 -0.4247  0.9335
12991TIP3    H260465   1.808   1.460   3.850 -0.2891 -0.3850 -0.5224
12992TIP3   OH260466   1.145   3.176   4.052 -0.0786  0.0057 -0.6643
12992TIP3    H160467   1.181   3.113   3.991 -0.1858  0.1015 -0.8277
12992TIP3    H260468   1.076   3.128   4.098  1.2245 -0.6432  0.7212
12993TIP3   OH260469   1.235   4.055  13.827 -0.1450 -0.1948  0.0944
12993TIP3    H160470   1.284   3.974  13.817 -1.0405 -0.8278  0.7024
12993TIP3    H260471   1.191   4.046  13.911  0.0418  1.0940  0.3506
12994TIP3   OH260472   3.100   4.673  14.711 -0.3454 -0.1684  0.1256
12994TIP3    H160473   3.148   4.603  14.755  0.0409  0.0892  0.1159
12994TIP3    H260474   3.026   4.629  14.668 -0.8130 -0.4153  1.1471
12995TIP3   OH260475   4.244   1.993   5.757  0.4122  0.3546 -0.3123
12995TIP3    H160476   4.235   1.911   5.709 -0.0048  0.4787 -0.4461
12995TIP3    H260477   4.267   2.058   5.691 -0.7613  0.6458 -0.4445
12996TIP3   OH260478   2.608   3.161   1.881  0.1693  0.0889  0.1044
12996TIP3    H160479   2.558   3.207   1.814 -0.7168  1.4222  1.6058
12996TIP3    H260480   2.675   3.114   1.833  0.0576  1.6229 -1.6663
12997TIP3   OH260481   0.459   6.821   2.686  0.1648  0.0727 -0.0915
12997TIP3    H160482   0.540   6.837   2.638  1.1408  0.2089  1.5413
12997TIP3    H260483   0.400   6.890   2.656  0.5853 -0.1028 -1.3970
12998TIP3   OH260484   5.300   0.793  14.848 -0.0432 -0.1348 -0.4567
12998TIP3    H160485   5.388   0.825  14.868 -0.1519  0.5597 -1.0390
12998TIP3    H260486   5.290   0.714  14.902  0.1599  0.9068  1.1824
12999TIP3   OH260487   5.210   1.110   4.415  0.0325  0.5863  0.4602
12999TIP3    H160488   5.257   1.045   4.363  0.2442 -0.3264  1.7425
12999TIP3    H260489   5.158   1.059   4.477 -0.4988  1.6287  0.9112
13000TIP3   OH260490   5.217   6.248   1.852 -0.0887  0.1309  0.3702
13000TIP3    H160491   5.285   6.213   1.794 -0.6199 -1.8115  0.8548
13000TIP3    H260492   5.143   6.266   1.794  0.5230  1.4080 -0.0280
13001TIP3   OH260493   6.007   2.215  15.338  0.5072  0.2926  0.0223
13001TIP3    H160494   6.010   2.265  15.256 -2.4985  1.4045  0.4591
13001TIP3    H260495   5.985   2.126  15.311  2.1231  0.0001 -0.4843
13002TIP3   OH260496   5.158   4.245  14.005  0.1075  0.2061 -0.2179
13002TIP3    H160497   5.149   4.313  13.939  1.4387 -0.0583 -0.6927
13002TIP3    H260498   5.251   4.246  14.029  0.2648 -1.6776 -0.5254
13003TIP3   OH260499   2.652   0.866   1.642 -0.3757 -0.4536 -0.4345
13003TIP3    H160500   2.568   0.873   1.687 -0.3089 -0.8206 -0.2453
13003TIP3    H260501   2.655   0.942   1.584 -0.7517 -0.3336 -0.2995
13004TIP3   OH260502   6.304   4.223   3.418  0.1464 -0.0462 -0.1128
13004TIP3    H160503   6.261   4.272   3.489  2.4240  1.7394  0.1354
13004TIP3    H260504   6.364   4.164   3.463  0.0619 -0.4302 -0.5032
13005TIP3   OH260505   5.901   5.289   2.965 -0.3796 -0.0829 -0.6418
13005TIP3    H160506   5.868   5.351   2.900 -2.4117 -0.9316 -0.4744
13005TIP3    H260507   5.926   5.344   3.039 -0.8883  0.6380 -0.9932
13006TIP3   OH260508   4.781   1.109  12.495 -0.2253 -0.2037 -0.6186
13006TIP3    H160509   4.820   1.159  12.424 -2.2458  0.0164 -1.6364
13006TIP3    H260510   4.816   1.149  12.575  0.9310  0.4967 -1.4485
13007TIP3   OH260511   5.299   0.514  14.540  0.1160  0.4308  0.3794
13007TIP3    H160512   5.208   0.517  14.572  0.7159 -0.2266  2.2778
13007TIP3    H260513   5.314   0.422  14.521  0.5603  0.4451  0.6524
13008TIP3   OH260514   1.817   6.758   4.219  0.3997  0.3340 -0.2503
13008TIP3    H160515   1.741   6.794   4.173  0.7548 -0.1250 -1.2107
13008TIP3    H260516   1.797   6.773   4.312 -0.4650  1.0004 -0.5233
13009TIP3   OH260517   5.458   0.420   6.720  0.0646  0.0189 -0.3522
13009TIP3    H160518   5.523   0.417   6.650  0.4207  0.9676 -0.0801
13009TIP3    H260519   5.506   0.455   6.795 -0.7389  0.6230 -0.1155
13010TIP3   OH260520   3.361   3.230   3.009 -0.1810 -1.0001  0.5990
13010TIP3    H160521   3.300   3.164   2.976 -0.5232 -0.7145  0.6514
13010TIP3    H260522   3.446   3.204   2.973 -0.9168  0.9004 -3.0648
13011TIP3   OH260523   4.667   4.231  13.994  0.1253  0.1011  0.1445
13011TIP3    H160524   4.642   4.310  14.042  0.8163  0.5453 -0.2089
13011TIP3    H260525   4.741   4.195  14.043 -2.0012 -2.0342  2.0482
13012TIP3   OH260526   1.108   1.025  12.121  0.2155 -0.1912  0.0559
13012TIP3    H160527   1.158   0.957  12.077 -0.0878 -1.1249  1.1160
13012TIP3    H260528   1.088   0.989  12.208  0.4959  1.4546  0.8474
13013TIP3   OH260529   4.489   6.197   3.390  0.0260  0.1034  0.8377
13013TIP3    H160530   4.411   6.230   3.345 -0.4941 -0.9382  0.9362
13013TIP3    H260531   4.469   6.205   3.483 -0.2485 -0.7455  0.8681
13014TIP3   OH260532   2.023   1.701   5.083 -0.0500  0.5542  0.0312
13014TIP3    H160533   2.006   1.696   5.177 -1.0872  0.8119 -0.1253
13014TIP3    H260534   1.962   1.638   5.045  0.3945  0.4198 -0.4648
13015TIP3   OH260535   5.623   2.182   3.202  0.1103 -0.3157  0.1923
13015TIP3    H160536   5.588   2.211   3.118 -1.1383 -0.7528  0.5334
13015TIP3    H260537   5.554   2.127   3.239 -0.2794  1.5060  2.4272
13016TIP3   OH260538   4.792   6.563  11.371 -0.5392 -0.4841  0.4228
13016TIP3    H160539   4.713   6.542  11.421  0.8442 -1.4691  2.3025
13016TIP3    H260540   4.831   6.478  11.351 -0.5001 -0.0673 -1.4972
13017TIP3   OH260541   4.160   3.988  13.472  1.0260 -0.0624 -0.3454
13017TIP3    H160542   4.179   4.081  13.459 -0.9652  0.8197  2.2297
13017TIP3    H260543   4.071   3.977  13.438  0.7383 -0.6956  0.5759
13018TIP3   OH260544   2.962   3.632  15.698  0.1827 -0.0636  0.0359
13018TIP3    H160545   2.867   3.645  15.704 -0.1262 -2.1789  0.4023
13018TIP3    H260546   2.982   3.571  15.769  2.1409  1.6787  1.0970
13019TIP3   OH260547   0.561   1.623  16.133  0.3098  0.2621  0.5943
13019TIP3    H160548   0.592   1.682  16.064  0.8271 -0.9616 -0.2666
13019TIP3    H260549   0.466   1.634  16.133  0.3523  0.6915  0.0663
13020TIP3   OH260550   0.950   1.349   1.148 -0.8909 -0.1868  0.0669
13020TIP3    H160551   0.955   1.260   1.113  3.8031 -0.0936 -0.2271
13020TIP3    H260552   0.954   1.405   1.070  0.4043  0.1347  0.3313
13021TIP3   OH260553   2.744   5.653  16.089  0.2448  0.2978 -0.2211
13021TIP3    H160554   2.705   5.568  16.072  0.0117  0.6782 -1.8411
13021TIP3    H260555   2.750   5.694  16.002  0.9450  1.6682  0.4356
13022TIP3   OH260556   5.679   6.480   0.915 -0.6881  0.2671  0.1760
13022TIP3    H160557   5.684   6.572   0.938 -0.0587  0.3735 -0.3667
13022TIP3    H260558   5.660   6.436   0.998 -0.4978  0.8326  0.5261
13023TIP3   OH260559   1.066   3.764   4.336 -0.5231 -0.0312  0.3507
13023TIP3    H160560   0.998   3.748   4.270  0.2554  0.7242 -0.6820
13023TIP3    H260561   1.140   3.709   4.308 -0.6683 -0.7829  1.4143
13024TIP3   OH260562   1.166   5.804   1.819 -0.5038 -0.4916  0.1207
13024TIP3    H160563   1.169   5.741   1.746 -0.3717 -2.0367  1.4102
13024TIP3    H260564   1.257   5.834   1.828 -0.1694 -1.6579  0.7741
13025TIP3   OH260565   3.083   2.935  13.421  0.2478  0.4793  0.3651
13025TIP3    H160566   3.096   2.843  13.442  0.7263  0.4283 -0.1048
13025TIP3    H260567   3.168   2.963  13.385 -0.1102  0.9102 -0.1564
13026TIP3   OH260568   0.995   4.802  11.884 -0.2091  0.6674 -0.2512
13026TIP3    H160569   1.055   4.729  11.870  0.8289  1.4466  0.0377
13026TIP3    H260570   0.929   4.768  11.944  0.1854 -0.0609 -0.2180
13027TIP3   OH260571   6.787   1.183   3.753 -0.2050 -0.0717  0.3207
13027TIP3    H160572   6.845   1.252   3.721 -1.4070  0.9745  0.3429
13027TIP3    H260573   6.717   1.229   3.799 -1.0926 -1.3005  0.2559
13028TIP3   OH260574   0.393   6.337  10.562  0.1759 -0.6784 -0.0869
13028TIP3    H160575   0.466   6.369  10.509 -0.5381  1.1773 -0.0005
13028TIP3    H260576   0.406   6.376  10.648  0.0347 -1.7918  0.4645
13029TIP3   OH260577   1.438   1.473   4.379  0.1632  0.1190 -0.1129
13029TIP3    H160578   1.397   1.554   4.408 -0.0600  0.2930 -0.9009
13029TIP3    H260579   1.508   1.457   4.443  2.3454  2.6293 -1.6812
13030TIP3   OH260580   2.058   1.423   5.929 -0.1609 -0.8852 -0.9356
13030TIP3    H160581   2.145   1.462   5.938 -1.1861  1.0762  2.0793
13030TIP3    H260582   2.072   1.330   5.950  1.4061 -0.9810 -2.2042
13031TIP3   OH260583   4.615   3.695   3.279  0.0011 -0.6799  0.2728
13031TIP3    H160584   4.681   3.636   3.314  0.4182 -0.0209  0.6198
13031TIP3    H260585   4.541   3.638   3.256  0.9099 -1.5187 -0.7160
13032TIP3   OH260586   2.284   1.363  11.421 -0.6384 -0.3255  0.1027
13032TIP3    H160587   2.319   1.329  11.504  1.2475  0.4495 -0.3184
13032TIP3    H260588   2.339   1.322  11.354  0.4275  1.9445 -0.5176
13033TIP3   OH260589   1.053   5.035  14.223  0.3179 -0.1580 -0.5151
13033TIP3    H160590   0.961   5.039  14.198 -0.0021 -0.9366  0.4717
13033TIP3    H260591   1.063   5.099  14.293  0.8444  0.8542 -1.4769
13034TIP3   OH260592   2.203   6.049  10.799  0.2273  0.8464  0.1257
13034TIP3    H160593   2.279   6.049  10.741  0.8947  1.3570  0.9697
13034TIP3    H260594   2.129   6.070  10.743  0.3557 -1.7143 -1.1218
13035TIP3   OH260595   4.916   3.544   3.102 -0.0588 -0.0112  0.2569
13035TIP3    H160596   5.010   3.526   3.107  0.0661  0.4380 -0.3325
13035TIP3    H260597   4.875   3.458   3.113  0.3467 -0.0175  2.0136
13036TIP3   OH260598   2.982   1.065  16.103 -0.8390  0.8029  0.2059
13036TIP3    H160599   2.889   1.085  16.092 -1.4391 -1.3900  0.9286
13036TIP3    H260600   2.984   0.984  16.154  1.5021  1.8203  1.9547
13037TIP3   OH260601   4.302   0.235  15.018  0.5369 -0.3580  0.2722
13037TIP3    H160602   4.299   0.154  15.069 -2.2376 -0.9860 -0.7369
13037TIP3    H260603   4.258   0.300  15.073 -1.6915 -0.8292 -0.8427
13038TIP3   OH260604   3.871   6.682   2.810  0.5178 -0.1192 -0.0736
13038TIP3    H160605   3.857   6.765   2.765 -0.5169  0.7056  1.6639
13038TIP3    H260606   3.824   6.692   2.893  0.1451 -2.5491  0.0663
13039TIP3   OH260607   1.613   5.504  16.635  0.0062 -0.3969  0.0652
13039TIP3    H160608   1.647   5.530  16.549 -1.6318  1.0278 -0.2047
13039TIP3    H260609   1.676   5.540  16.697  1.6170 -2.0733 -0.4837
13040TIP3   OH260610   1.172   5.689  10.722 -0.2831  0.0915  0.3736
13040TIP3    H160611   1.243   5.628  10.740  0.1895  1.1255  2.3893
13040TIP3    H260612   1.210   5.775  10.737 -1.3108  0.8217 -1.0059
13041TIP3   OH260613   5.536   1.602   1.312 -0.0772  0.2343  0.6521
13041TIP3    H160614   5.589   1.631   1.238  0.5941 -0.5244  0.8208
13041TIP3    H260615   5.504   1.683   1.352  0.2418  0.6730  0.0326
13042TIP3   OH260616   6.004   0.540  14.784  0.3560  0.2396 -0.0181
13042TIP3    H160617   5.975   0.575  14.868 -2.7157 -1.5613 -0.1805
13042TIP3    H260618   5.942   0.576  14.721  0.8456 -0.6870 -1.0670
13043TIP3   OH260619   2.055   4.070  12.823  0.5555 -0.3226 -0.2284
13043TIP3    H160620   2.139   4.025  12.830  0.8735  0.0065 -1.7124
13043TIP3    H260621   1.997   4.006  12.781  0.2962 -0.2351 -0.0082
13044TIP3   OH260622   4.229   1.134   6.087 -0.1227  0.1334 -0.1836
13044TIP3    H160623   4.265   1.213   6.048 -0.3259  0.0124 -0.6189
13044TIP3    H260624   4.190   1.086   6.014  0.1329 -0.4415  0.0445
13045TIP3   OH260625   1.941   5.955  15.199  0.5513  0.0182 -0.0129
13045TIP3    H160626   1.889   6.022  15.154  0.0150 -0.1938  0.2865
13045TIP3    H260627   2.023   5.952  15.149  0.2197  0.2432 -0.5880
13046TIP3   OH260628   1.216   3.836   5.589  0.1020 -0.6384  0.3121
13046TIP3    H160629   1.226   3.924   5.625 -0.4674 -1.5157  2.8282
13046TIP3    H260630   1.223   3.847   5.494 -1.7559  2.3933  0.4096
13047TIP3   OH260631   0.928   1.270   0.592 -0.4937  0.1220 -0.2508
13047TIP3    H160632   0.993   1.255   0.660 -1.3392 -1.7104  0.2027
13047TIP3    H260633   0.844   1.273   0.639 -1.0655 -0.9467 -1.1555
13048TIP3   OH260634   5.753   5.678  12.546 -0.1428 -0.1975 -0.2760
13048TIP3    H160635   5.715   5.590  12.545 -1.6276  0.3703  1.2263
13048TIP3    H260636   5.678   5.736  12.534  0.6711  0.9017 -0.1849
13049TIP3   OH260637   0.242   1.776  15.997  0.1605 -0.5128  0.4041
13049TIP3    H160638   0.300   1.759  15.923 -0.5519  1.6662 -0.7447
13049TIP3    H260639   0.154   1.771  15.960 -0.1727  2.7578  0.4522
13050TIP3   OH260640   5.791   5.506   3.531 -0.3804 -0.3660 -0.0688
13050TIP3    H160641   5.742   5.555   3.466 -0.9249  0.3079  0.8421
13050TIP3    H260642   5.867   5.472   3.483 -1.2793 -0.7170 -1.2819
13051TIP3   OH260643   2.257   4.168  14.604  0.5220  0.2418  0.0522
13051TIP3    H160644   2.257   4.083  14.647  3.8582 -0.4818 -1.1571
13051TIP3    H260645   2.228   4.150  14.514 -0.3267  0.7187  0.2089
13052TIP3   OH260646   0.935   5.378   4.037 -0.6528 -0.1023 -0.2299
13052TIP3    H160647   0.880   5.321   4.091 -0.3508  0.2502  0.4678
13052TIP3    H260648   1.004   5.319   4.005 -1.2859 -0.4898 -0.9115
13053TIP3   OH260649   4.643   3.875   2.491  0.4223 -0.2675  0.4512
13053TIP3    H160650   4.705   3.923   2.436 -1.2566  0.8296 -0.5639
13053TIP3    H260651   4.561   3.922   2.481 -0.7886 -2.1366  1.1238
13054TIP3   OH260652   0.093   5.619  13.974 -0.4286  0.6449  0.6279
13054TIP3    H160653   0.077   5.558  14.046 -0.2879  0.5298  0.5612
13054TIP3    H260654   0.187   5.611  13.956 -0.8666 -1.1421 -1.1849
13055TIP3   OH260655   5.420   1.372  10.567 -0.5249 -0.2042  0.2713
13055TIP3    H160656   5.501   1.324  10.551 -0.4270  0.2501 -0.6823
13055TIP3    H260657   5.361   1.308  10.606 -0.7002 -1.3585 -1.7695
13056TIP3   OH260658   3.288   2.333   5.101  0.2201 -0.1815  0.4042
13056TIP3    H160659   3.283   2.413   5.153  0.9216 -0.6176  1.1672
13056TIP3    H260660   3.326   2.360   5.018 -1.8543  0.7202 -0.3368
13057TIP3   OH260661   2.420   1.426  14.769 -0.1282 -0.1896 -0.5534
13057TIP3    H160662   2.359   1.449  14.839  1.0984  2.8834 -0.3164
13057TIP3    H260663   2.376   1.455  14.689  0.7392  1.5998 -0.4255
13058TIP3   OH260664   1.369   4.159   2.123 -0.4648  0.4731  0.2898
13058TIP3    H160665   1.277   4.148   2.096 -0.5571  1.9326 -0.0426
13058TIP3    H260666   1.372   4.246   2.163  0.8321  0.5413  0.0799
13059TIP3   OH260667   1.019   2.136  13.103  0.6034  0.2919  0.2580
13059TIP3    H160668   0.997   2.192  13.178 -0.5520 -1.0058  0.9216
13059TIP3    H260669   1.008   2.194  13.027 -1.7913  0.7108  0.8178
13060TIP3   OH260670   2.161   6.740  13.829 -0.4802 -0.3009  0.9210
13060TIP3    H160671   2.143   6.805  13.762  0.3799 -1.4599 -0.4820
13060TIP3    H260672   2.078   6.694  13.842 -0.4830 -0.5438  0.1009
13061TIP3   OH260673   5.853   4.436  13.930  0.2868 -0.1914 -0.3332
13061TIP3    H160674   5.827   4.384  13.854  1.2156 -0.1780 -0.6735
13061TIP3    H260675   5.892   4.372  13.990  0.8994  0.0233 -0.5016
13062TIP3   OH260676   6.764   5.967   1.387  0.7849  0.3087 -0.1834
13062TIP3    H160677   6.763   5.872   1.381  0.6689  0.1608  1.7151
13062TIP3    H260678   6.675   5.991   1.414  0.9559  0.9315 -0.1461
13063TIP3   OH260679   0.314   4.159  17.060  0.1297 -0.0065 -0.0646
13063TIP3    H160680   0.297   4.159  17.154  1.4736 -0.5536  0.2000
13063TIP3    H260681   0.240   4.111  17.022  1.2188 -2.8204  1.0792
13064TIP3   OH260682   4.960   0.579   2.230 -0.0208 -0.8609 -0.3145
13064TIP3    H160683   4.964   0.522   2.153 -0.6516  0.2354 -1.1907
13064TIP3    H260684   5.047   0.572   2.269  0.0785 -1.9924 -0.7089
13065TIP3   OH260685   3.484   0.598  13.936  1.0284 -0.2639  0.2309
13065TIP3    H160686   3.450   0.537  13.871 -1.7713  0.2407  1.1026
13065TIP3    H260687   3.572   0.619  13.905  0.2506 -0.9227 -2.7224
13066TIP3   OH260688   2.249   0.397  15.562 -0.3323 -0.0735 -0.3998
13066TIP3    H160689   2.290   0.423  15.644  1.0085  0.1027 -1.0921
13066TIP3    H260690   2.244   0.479  15.511 -2.2470  0.0549 -0.0633
13067TIP3   OH260691   0.093   2.342  12.185  0.4444 -0.0333  0.4511
13067TIP3    H160692   0.178   2.363  12.147  0.9005 -0.8808  0.9629
13067TIP3    H260693   0.035   2.410  12.153  1.2172  0.3072 -0.2680
13068TIP3   OH260694   0.079   6.004  13.982  0.0822 -0.4494 -0.2016
13068TIP3    H160695   0.014   5.995  13.912  0.0631 -0.6007 -0.1649
13068TIP3    H260696   0.072   6.096  14.010  0.1837 -0.3542 -0.4869
13069TIP3   OH260697   5.655   3.999   5.414  0.3009 -0.0862  0.1028
13069TIP3    H160698   5.651   3.962   5.327 -0.2946  0.8117 -0.2737
13069TIP3    H260699   5.590   3.951   5.464  0.4584 -0.4259 -0.0198
13070TIP3   OH260700   0.106   4.211  13.356 -0.4265 -0.4033  0.3244
13070TIP3    H160701   0.152   4.140  13.311 -2.7714 -0.4117 -2.3776
13070TIP3    H260702   0.115   4.287  13.298 -3.2099 -0.2847 -0.1183
13071TIP3   OH260703   0.019   2.860   1.101  0.3460 -0.3018  0.0516
13071TIP3    H160704   0.111   2.886   1.095 -0.0267  1.2469  0.6371
13071TIP3    H260705   0.000   2.859   1.195 -0.8341  1.6897 -0.1212
13072TIP3   OH260706   2.607   1.567  16.046 -0.3377  0.3501  0.4608
13072TIP3    H160707   2.531   1.622  16.027 -0.6319  0.0464  0.7380
13072TIP3    H260708   2.571   1.492  16.094  0.2423  0.5899  1.3002
13073TIP3   OH260709   6.502   2.167  13.570  0.6835 -0.7850 -0.2605
13073TIP3    H160710   6.497   2.146  13.663  2.3791  0.9566  0.2975
13073TIP3    H260711   6.417   2.141  13.535 -0.8959  0.5761  2.2519
13074TIP3   OH260712   5.004   3.063  12.822  0.6916  0.1382 -0.1949
13074TIP3    H160713   4.941   3.129  12.794  0.6214 -0.0839 -0.5685
13074TIP3    H260714   5.087   3.091  12.783  1.2665  1.4612  1.8031
13075TIP3   OH260715   2.557   0.521   1.781  0.4952 -0.3200  0.1696
13075TIP3    H160716   2.509   0.442   1.807 -1.1812  0.3523 -0.7486
13075TIP3    H260717   2.566   0.514   1.686  2.4498 -0.5196  0.3372
13076TIP3   OH260718   0.705   6.456   6.150 -0.1183  0.0348  0.5517
13076TIP3    H160719   0.665   6.475   6.065 -1.0812 -0.6281  0.8405
13076TIP3    H260720   0.794   6.490   6.143  0.0161 -0.5649 -0.9322
13077TIP3   OH260721   6.303   0.326   3.504 -0.4063  0.6397 -0.0545
13077TIP3    H160722   6.222   0.365   3.537 -1.2758 -0.8619 -0.3350
13077TIP3    H260723   6.280   0.293   3.417  0.2414 -0.5838  0.2148
13078TIP3   OH260724   0.583   0.130  12.177 -0.1721 -0.0125 -0.0440
13078TIP3    H160725   0.601   0.210  12.227 -0.1880 -0.0885  0.0830
13078TIP3    H260726   0.504   0.152  12.128 -1.9965 -0.9374  2.2649
13079TIP3   OH260727   1.334   6.409  12.472 -0.6401 -0.0685  0.1109
13079TIP3    H160728   1.240   6.409  12.491 -0.3274 -2.2264  2.1083
13079TIP3    H260729   1.346   6.337  12.409  0.0471 -2.4958  2.8273
13080TIP3   OH260730   3.020   0.179   0.640 -0.1159 -0.4438  0.3478
13080TIP3    H160731   3.000   0.268   0.614 -1.2591 -0.7960 -0.0562
13080TIP3    H260732   3.115   0.174   0.639 -0.0597  0.0852 -2.0096
13081TIP3   OH260733   1.374   2.248  11.628  0.1743  0.1606 -0.1091
13081TIP3    H160734   1.401   2.318  11.686  0.2733 -0.1207  0.1865
13081TIP3    H260735   1.399   2.168  11.673 -1.0620 -0.1138  0.1223
13082TIP3   OH260736   3.118   4.603  15.839  0.6807 -0.1450  0.3481
13082TIP3    H160737   3.201   4.563  15.865  1.1552 -0.1533 -1.1086
13082TIP3    H260738   3.130   4.626  15.747 -0.5055  0.9736  0.4441
13083TIP3   OH260739   1.243   1.408  13.651 -0.1137  0.2372  0.0281
13083TIP3    H160740   1.148   1.415  13.662 -0.0965  0.2713  0.1611
13083TIP3    H260741   1.258   1.317  13.627 -0.2275  0.3573 -0.5025
13084TIP3   OH260742   0.521   0.500  15.036  0.2299 -0.5251 -0.4852
13084TIP3    H160743   0.605   0.542  15.055 -1.3015  2.3802  0.4542
13084TIP3    H260744   0.516   0.427  15.098  1.7872 -0.4137 -0.1875
13085TIP3   OH260745   5.588   2.492   0.963  0.1803  0.1360  0.2547
13085TIP3    H160746   5.601   2.578   1.002  2.6080  0.5672 -1.2898
13085TIP3    H260747   5.654   2.437   1.005  0.2925 -0.3420 -0.5284
13086TIP3   OH260748   5.644   4.277   1.770 -0.1937 -0.2558 -0.5090
13086TIP3    H160749   5.576   4.210   1.764  1.6946 -2.2439 -0.7326
13086TIP3    H260750   5.646   4.316   1.682 -1.3852  0.2155 -0.3452
13087TIP3   OH260751   5.516   1.043   4.132 -0.1130 -1.1895  0.2575
13087TIP3    H160752   5.515   0.948   4.128 -0.2325 -1.1909  0.3022
13087TIP3    H260753   5.608   1.067   4.128 -0.1212 -1.2682 -0.8646
13088TIP3   OH260754   4.100   0.601   2.240 -0.6512 -0.3055 -0.0526
13088TIP3    H160755   4.008   0.575   2.237 -1.2952  1.2214  2.7679
13088TIP3    H260756   4.104   0.680   2.185 -1.9210  1.6170  2.4001
13089TIP3   OH260757   6.230   4.834   1.343 -0.7697  0.4104 -0.1415
13089TIP3    H160758   6.175   4.869   1.272  0.6708 -1.6113 -2.4113
13089TIP3    H260759   6.193   4.748   1.361  0.1028  0.0911  0.1473
13090TIP3   OH260760   4.078   1.785  12.363  0.0086 -0.5230 -0.0209
13090TIP3    H160761   4.137   1.776  12.289 -0.5764 -1.9356 -0.3413
13090TIP3    H260762   3.990   1.787  12.324 -0.2274  0.7524  0.5043
13091TIP3   OH260763   0.343   3.236  15.809 -0.7666  0.0224  0.4795
13091TIP3    H160764   0.425   3.202  15.843  0.4246  1.8593 -0.3968
13091TIP3    H260765   0.318   3.306  15.869 -2.4921 -1.4103  1.5342
13092TIP3   OH260766   5.300   0.226  14.496 -0.8877  0.2464  0.3217
13092TIP3    H160767   5.266   0.206  14.409  0.7069  2.5904 -0.9402
13092TIP3    H260768   5.388   0.187  14.497  0.3773  2.8636 -0.4190
13093TIP3   OH260769   6.037   3.139   2.375  0.2232  0.4674  0.6781
13093TIP3    H160770   6.124   3.178   2.369 -0.0331  1.2663  1.7400
13093TIP3    H260771   5.982   3.193   2.319 -0.0151  1.3348  1.7092
13094TIP3   OH260772   1.209   0.682  10.785 -0.7442  0.6175 -0.5204
13094TIP3    H160773   1.160   0.623  10.843  0.5087  0.5341  0.4789
13094TIP3    H260774   1.188   0.770  10.816 -1.4840  0.6673 -1.1106
13095TIP3   OH260775   3.256   5.156   1.838  0.0117 -0.0939 -0.4082
13095TIP3    H160776   3.350   5.173   1.844 -0.1842  0.5052  2.4776
13095TIP3    H260777   3.215   5.243   1.846 -0.8046 -0.4875 -0.2147
13096TIP3   OH260778   0.260   0.942   2.904 -0.0436  0.3364 -0.3265
13096TIP3    H160779   0.264   0.960   2.810 -0.0643 -0.3419 -0.4607
13096TIP3    H260780   0.345   0.904   2.926 -0.5232 -0.8097 -0.3604
13097TIP3   OH260781   5.462   0.310  10.931  0.0080 -0.4545 -0.2890
13097TIP3    H160782   5.439   0.385  10.875 -2.1688 -1.5691 -1.0338
13097TIP3    H260783   5.557   0.302  10.922 -0.0586  0.4009 -2.5914
13098TIP3   OH260784   3.045   2.831   3.529 -0.3995  0.4732 -0.2047
13098TIP3    H160785   3.037   2.924   3.507 -0.9439  0.8333  1.3862
13098TIP3    H260786   2.958   2.806   3.559 -0.2610 -0.5718 -0.6449
13099TIP3   OH260787   4.218   4.646   0.694  0.2346  0.0880  0.2641
13099TIP3    H160788   4.275   4.624   0.620 -1.3590 -2.0156 -0.4504
13099TIP3    H260789   4.219   4.741   0.698  1.0101  0.2239 -1.9631
13100TIP3   OH260790   4.888   5.213   3.151  0.3012 -0.2240 -0.1704
13100TIP3    H160791   4.937   5.293   3.167 -0.7002  0.2489  0.6069
13100TIP3    H260792   4.956   5.145   3.143  1.0734  0.0949  2.5900
13101TIP3   OH260793   1.214   6.561  15.740 -0.1747  0.7731  0.2680
13101TIP3    H160794   1.124   6.590  15.752 -0.5597  0.5261 -1.6489
13101TIP3    H260795   1.225   6.490  15.803 -1.8183 -0.1544 -0.4129
13102TIP3   OH260796   6.049   0.789   1.365  0.1507 -0.2692 -0.2429
13102TIP3    H160797   5.991   0.865   1.355 -1.2797 -0.8854  2.4141
13102TIP3    H260798   6.007   0.719   1.315 -2.2756 -1.0432  2.5603
13103TIP3   OH260799   6.172   2.898   2.212 -0.4013  0.4094 -0.3461
13103TIP3    H160800   6.081   2.884   2.186 -0.1260 -3.3368  0.1416
13103TIP3    H260801   6.174   2.874   2.305  1.1276  0.1552 -0.4234
13104TIP3   OH260802   0.038   3.760   0.435 -0.2582 -0.4461  0.4898
13104TIP3    H160803  -0.002   3.844   0.415  0.7827 -0.5938 -2.6875
13104TIP3    H260804   0.076   3.731   0.352  1.5352 -2.9143  2.0510
13105TIP3   OH260805   3.929   0.427   5.789 -0.3032  0.4255  0.3440
13105TIP3    H160806   3.844   0.414   5.830 -0.6525  0.6669 -0.2841
13105TIP3    H260807   3.989   0.446   5.861 -0.9905  1.2776  0.7011
13106TIP3   OH260808   6.017   4.720  11.524  0.4649 -0.5229 -0.4207
13106TIP3    H160809   6.083   4.738  11.456  0.2111 -0.3131 -0.6189
13106TIP3    H260810   5.991   4.807  11.555  1.7540 -0.6395  1.1132
13107TIP3   OH260811   1.468   2.278   5.268 -0.4042 -0.1191 -0.2916
13107TIP3    H160812   1.388   2.308   5.224 -0.8548 -0.1914  0.4614
13107TIP3    H260813   1.530   2.264   5.197 -0.5898  1.3344 -0.7800
13108TIP3   OH260814   3.863   1.067  13.499  0.3570  0.1270  0.2207
13108TIP3    H160815   3.946   1.084  13.543  0.3667  3.0115 -0.7048
13108TIP3    H260816   3.886   1.019  13.420  1.1441  0.6889  0.0961
13109TIP3   OH260817   1.528   2.214  12.800  0.2783  0.6424  0.1856
13109TIP3    H160818   1.592   2.276  12.766  1.5663 -0.9349 -0.4196
13109TIP3    H260819   1.502   2.249  12.885  2.2101  1.1743  0.5931
13110TIP3   OH260820   6.330   1.811   5.772 -0.6442 -0.0350  0.5459
13110TIP3    H160821   6.393   1.768   5.831 -1.2740 -0.6397  0.7880
13110TIP3    H260822   6.263   1.845   5.830  0.4608  2.4429  0.4911
13111TIP3   OH260823   2.483   0.517   1.487 -0.2031  0.1950  0.0866
13111TIP3    H160824   2.539   0.584   1.449 -0.8968  0.2742 -0.8373
13111TIP3    H260825   2.503   0.438   1.437 -0.0353 -0.0661  0.5680
13112TIP3   OH260826   3.008   6.345   6.001  0.1364 -0.4204 -0.4765
13112TIP3    H160827   2.925   6.300   6.018  1.6922 -3.1639  0.6318
13112TIP3    H260828   2.984   6.437   5.990 -2.8017 -0.6794  2.2241
13113TIP3   OH260829   3.252   3.854  11.786 -0.0936 -0.0302  0.3416
13113TIP3    H160830   3.300   3.905  11.851 -3.7354  2.0925  1.6502
13113TIP3    H260831   3.313   3.783  11.762  3.6219  2.3875  1.6415
13114TIP3   OH260832   5.018   1.891  14.980 -0.2907  0.1704 -0.3141
13114TIP3    H160833   4.977   1.977  14.980 -0.9362 -0.1125 -1.4800
13114TIP3    H260834   5.002   1.857  14.892  0.0989 -1.0712  0.0754
13115TIP3   OH260835   2.532   1.635  12.388 -0.1928  0.5911 -0.0562
13115TIP3    H160836   2.548   1.557  12.442 -0.6410 -0.0245 -0.8030
13115TIP3    H260837   2.578   1.705  12.434  0.3700 -0.1464  0.5324
13116TIP3   OH260838   5.947   0.028  15.046  0.1793  0.3437  0.1538
13116TIP3    H160839   6.034   0.052  15.077  0.3868 -0.1400 -0.0394
13116TIP3    H260840   5.952   0.037  14.951  0.5420 -1.2483 -0.0220
13117TIP3   OH260841   2.124   3.921  15.907 -0.3763  0.4997 -0.0571
13117TIP3    H160842   2.044   3.893  15.862 -1.0572  0.6014  1.0458
13117TIP3    H260843   2.093   3.982  15.975  0.4367 -0.7083  1.4747
13118TIP3   OH260844   0.753   5.592   4.100 -0.0934 -0.1574  0.0160
13118TIP3    H160845   0.833   5.548   4.073  0.5771  1.6544 -1.1739
13118TIP3    H260846   0.693   5.522   4.124  1.7400 -1.5746  0.6764
13119TIP3   OH260847   5.515   3.483   5.001  0.6121  0.2321 -0.5881
13119TIP3    H160848   5.513   3.415   5.068  1.6230  1.5379  0.8548
13119TIP3    H260849   5.435   3.533   5.014  0.3688 -0.0442 -0.9782
13120TIP3   OH260850   3.199   3.821  13.182  0.6533 -1.1801 -0.1968
13120TIP3    H160851   3.256   3.750  13.212 -0.5514 -2.1703 -0.2067
13120TIP3    H260852   3.216   3.893  13.244  3.0799 -0.8415 -1.1180
13121TIP3   OH260853   1.239   0.900   0.589 -0.1282 -0.2306 -0.3159
13121TIP3    H160854   1.327   0.926   0.615  0.8696 -0.8778 -2.7833
13121TIP3    H260855   1.229   0.935   0.500 -1.0548 -2.9190 -1.3653
13122TIP3   OH260856   6.303   2.782  13.164  0.3039 -0.4992 -0.1177
13122TIP3    H160857   6.345   2.794  13.249  0.5829  0.1236 -0.3347
13122TIP3    H260858   6.211   2.803  13.180 -0.1544 -2.7612  0.5664
13123TIP3   OH260859   3.380   3.007  15.868 -0.0130  0.4401 -0.6623
13123TIP3    H160860   3.431   3.018  15.948  0.6963  1.5002 -1.2443
13123TIP3    H260861   3.432   2.946  15.815 -0.3195  0.0010 -0.4678
13124TIP3   OH260862   4.708   0.056  14.830 -0.2093 -0.0616  0.0129
13124TIP3    H160863   4.673  -0.010  14.771 -0.9548  1.9071 -1.9196
13124TIP3    H260864   4.758   0.007  14.895 -1.7503 -2.5606 -0.5537
13125TIP3   OH260865   1.742   2.021   0.785 -0.7980 -0.1138  0.4504
13125TIP3    H160866   1.821   2.053   0.740 -0.9504 -1.2223 -0.6461
13125TIP3    H260867   1.774   1.951   0.841 -0.7677  0.5825  1.3273
13126TIP3   OH260868   5.369   5.243  10.858 -0.6352 -0.6042 -0.2520
13126TIP3    H160869   5.349   5.157  10.822 -2.8911 -0.4072  0.3701
13126TIP3    H260870   5.302   5.258  10.925  0.5847  1.0259  0.7010
13127TIP3   OH260871   5.834   0.551  16.261  0.4247 -0.2422  0.2437
13127TIP3    H160872   5.866   0.476  16.311 -1.1174 -1.4435 -0.5051
13127TIP3    H260873   5.774   0.514  16.197 -0.6670  1.6778  0.0827
13128TIP3   OH260874   3.601   4.436  11.468  0.6359  0.3176  0.8099
13128TIP3    H160875   3.537   4.366  11.463 -1.0894  1.8881 -1.5597
13128TIP3    H260876   3.677   4.403  11.422  0.3219 -0.4407  0.8252
13129TIP3   OH260877   4.284   3.478  11.048  0.0076 -0.1940  0.8549
13129TIP3    H160878   4.351   3.410  11.042 -0.6830 -0.7940 -0.5524
13129TIP3    H260879   4.312   3.545  10.986  0.4047  0.5869  1.8458
13130TIP3   OH260880   4.975   2.783  11.878  0.1835 -0.9337 -0.5882
13130TIP3    H160881   4.893   2.790  11.926 -0.7050 -0.5234 -2.1223
13130TIP3    H260882   4.999   2.873  11.858  0.4389 -1.1128 -1.1045
13131TIP3   OH260883   1.491   4.754   1.940 -0.0635  0.3891 -0.4425
13131TIP3    H160884   1.436   4.719   1.870  0.1258 -0.7033 -0.0631
13131TIP3    H260885   1.531   4.677   1.979 -1.1093  0.8610  1.6740
13132TIP3   OH260886   0.890   0.186   2.758 -0.3696 -0.0420  0.6386
13132TIP3    H160887   0.979   0.171   2.789 -0.3199 -1.0325  0.0273
13132TIP3    H260888   0.850   0.241   2.827  0.5522  0.0127  1.1421
13133TIP3   OH260889   0.985   2.985   5.062 -0.3535 -0.1013  0.2972
13133TIP3    H160890   1.011   3.077   5.055 -0.8820 -0.0234 -0.7388
13133TIP3    H260891   0.892   2.988   5.083 -0.3388 -0.4068  0.4096
13134TIP3   OH260892   2.399   2.902   4.934 -0.4083  0.4096  0.2385
13134TIP3    H160893   2.434   2.960   5.001 -0.5517 -0.0375  0.7087
13134TIP3    H260894   2.474   2.885   4.875  0.1566 -0.4356  1.1636
13135TIP3   OH260895   1.528   3.033  11.915 -0.3661 -0.2687  0.2342
13135TIP3    H160896   1.587   3.073  11.979 -0.5147 -0.5784  0.5593
13135TIP3    H260897   1.584   2.973  11.865  0.1791  1.2750 -1.1370
13136TIP3   OH260898   5.680   4.624   3.833  0.5714  0.1506  0.0444
13136TIP3    H160899   5.744   4.610   3.764 -0.6957  1.6882 -1.5254
13136TIP3    H260900   5.648   4.713   3.819 -1.8160 -0.5068  0.8375
13137TIP3   OH260901   2.988   2.015   4.050  0.3500 -0.6503  0.1626
13137TIP3    H160902   2.927   1.971   3.991 -0.2836 -0.8478  0.9506
13137TIP3    H260903   3.032   2.080   3.995 -0.6493 -0.4297 -0.3935
13138TIP3   OH260904   3.628   0.791   1.899 -0.1325 -0.1425  0.0031
13138TIP3    H160905   3.607   0.884   1.902 -0.8131 -0.0886 -3.1043
13138TIP3    H260906   3.616   0.760   1.989 -2.7393  2.1709  0.5633
13139TIP3   OH260907   1.617   4.047  16.307  0.1869 -0.4958  0.3669
13139TIP3    H160908   1.523   4.035  16.303  0.2840 -1.3353  0.4879
13139TIP3    H260909   1.643   4.006  16.390  0.6941 -0.5636  0.1817
13140TIP3   OH260910   3.725   0.795   3.743 -0.1767  0.6363 -0.1412
13140TIP3    H160911   3.731   0.745   3.824 -0.3223 -0.3832 -0.7497
13140TIP3    H260912   3.631   0.806   3.727 -0.3369 -2.3669 -2.0495
13141TIP3   OH260913   2.765   4.223   0.032  0.2456  0.5211 -0.0834
13141TIP3    H160914   2.840   4.216   0.092  0.6779 -0.3055 -0.6961
13141TIP3    H260915   2.689   4.209   0.087  0.2575  4.3963  1.1584
13142TIP3   OH260916   2.039   0.711   4.851 -0.3569  0.4184 -0.1044
13142TIP3    H160917   2.069   0.658   4.925 -0.9424  1.2411  0.7457
13142TIP3    H260918   2.072   0.799   4.870 -1.9453  1.0015  0.0536
13143TIP3   OH260919   3.830   2.763   0.530 -0.6954  0.5890  0.2640
13143TIP3    H160920   3.757   2.787   0.472 -0.7773  0.7194  0.4218
13143TIP3    H260921   3.883   2.842   0.535 -0.5285  0.4880  0.1315
13144TIP3   OH260922   0.746   4.022   5.779 -0.0293 -0.4335 -0.4591
13144TIP3    H160923   0.764   3.991   5.868  0.0046 -0.2221 -0.3907
13144TIP3    H260924   0.832   4.030   5.738 -0.1180 -1.7178 -0.9201
13145TIP3   OH260925   4.740   1.294  16.279 -0.0166  0.0476  0.2082
13145TIP3    H160926   4.799   1.345  16.223 -0.5474 -0.4044 -0.7843
13145TIP3    H260927   4.653   1.310  16.242 -0.4698  0.3019  1.3491
13146TIP3   OH260928   5.275   4.569   3.762 -0.1237  0.0247 -0.3092
13146TIP3    H160929   5.259   4.657   3.727 -0.1142 -1.4726 -4.6725
13146TIP3    H260930   5.188   4.537   3.784 -0.5519  0.0267 -1.8771
13147TIP3   OH260931   6.140   1.398  16.466 -0.8919  0.1445 -0.2848
13147TIP3    H160932   6.082   1.417  16.540  0.7910 -1.4034  1.5673
13147TIP3    H260933   6.187   1.480  16.450 -1.4624  0.5690  0.2050
13148TIP3   OH260934   1.971   2.626  16.714  0.5154  0.2691  0.0123
13148TIP3    H160935   1.940   2.670  16.793  2.8999  0.4416  0.9362
13148TIP3    H260936   2.065   2.644  16.712  0.5633  0.1514 -2.8162
13149TIP3   OH260937   5.348   1.909   5.191 -0.0677 -0.3275 -0.3769
13149TIP3    H160938   5.365   1.823   5.152  0.2938 -0.0668 -0.8076
13149TIP3    H260939   5.317   1.890   5.279 -0.2927 -0.9107 -0.5778
13150TIP3   OH260940   4.438   1.148  16.657 -0.1081  0.3362  0.2900
13150TIP3    H160941   4.405   1.061  16.681  0.8344  0.2631  1.4169
13150TIP3    H260942   4.532   1.144  16.675 -0.3129  2.1258  2.1042
13151TIP3   OH260943   6.157   2.998   6.660 -0.2964  0.2642  0.4400
13151TIP3    H160944   6.082   3.028   6.712 -0.4498 -1.6550  1.3968
13151TIP3    H260945   6.234   3.031   6.706 -0.4416  3.2564 -1.1659
13152TIP3   OH260946   6.255   5.364  13.662  0.3003 -0.0031 -0.7186
13152TIP3    H160947   6.260   5.459  13.673  0.4893  0.0220 -1.0048
13152TIP3    H260948   6.306   5.329  13.734  1.5386  0.1590 -1.4756
13153TIP3   OH260949   4.898   0.460   0.761  0.9781 -0.5970  0.0746
13153TIP3    H160950   4.829   0.521   0.736  2.4950  1.0082 -0.4343
13153TIP3    H260951   4.887   0.450   0.856  1.4958  1.6323  0.4361
13154TIP3   OH260952   0.281   0.460   0.373 -0.0098 -0.5772  0.8840
13154TIP3    H160953   0.235   0.390   0.327  0.3442 -1.2375  1.5095
13154TIP3    H260954   0.356   0.417   0.413  0.2959  0.1930  1.1578
13155TIP3   OH260955   3.736   1.474   1.715 -0.4272  0.0382 -0.2987
13155TIP3    H160956   3.674   1.547   1.713  1.6222  1.8154 -1.2701
13155TIP3    H260957   3.690   1.403   1.670 -2.2931  0.8258  0.2603
13156TIP3   OH260958   1.067   2.592   5.646  0.3129  0.2367  0.0343
13156TIP3    H160959   1.025   2.508   5.661 -0.0685  0.1984 -1.1402
13156TIP3    H260960   1.144   2.591   5.702 -0.8090 -0.0064  1.6705
13157TIP3   OH260961   4.293   5.060  14.365 -0.0921  0.0578  0.0258
13157TIP3    H160962   4.261   5.026  14.281  0.1195  0.0645 -0.0601
13157TIP3    H260963   4.223   5.118  14.396 -0.0430  0.2917 -0.2938
13158TIP3   OH260964   2.831   3.511   0.772  0.0761  0.2509  0.7858
13158TIP3    H160965   2.771   3.518   0.698 -1.2935 -0.5858  1.7752
13158TIP3    H260966   2.909   3.468   0.736 -1.1042 -1.4086  0.1003
13159TIP3   OH260967   3.869   1.791  12.177  0.4969 -0.0025 -0.2360
13159TIP3    H160968   3.784   1.836  12.173 -0.0002 -0.9158 -0.2747
13159TIP3    H260969   3.856   1.712  12.124  1.2955 -0.2760 -0.0308
13160TIP3   OH260970   3.320   5.236   4.881  0.1439  0.1891 -0.1951
13160TIP3    H160971   3.240   5.238   4.933 -0.2465 -0.0233 -0.7893
13160TIP3    H260972   3.294   5.200   4.797  1.2433 -1.8276  0.2573
13161TIP3   OH260973   0.353   2.880  14.813 -0.4769 -0.2463  0.2013
13161TIP3    H160974   0.352   2.811  14.747 -3.2814 -1.0602  0.9568
13161TIP3    H260975   0.302   2.951  14.774  0.5218  0.5542  0.3030
13162TIP3   OH260976   3.031   5.118   0.599 -0.4738 -0.5650  0.8073
13162TIP3    H160977   3.035   5.088   0.509 -1.6225  0.7482  0.2669
13162TIP3    H260978   3.092   5.062   0.647  1.9666  0.2227 -1.1966
13163TIP3   OH260979   5.649   1.315   1.972 -0.3986 -0.4344 -0.1655
13163TIP3    H160980   5.721   1.377   1.963 -1.2549  0.3920 -1.5891
13163TIP3    H260981   5.687   1.241   2.019  1.5495 -0.2770 -1.3833
13164TIP3   OH260982   1.924   5.016  12.761 -0.4284  0.5316  0.2019
13164TIP3    H160983   2.011   5.045  12.787 -0.1331 -1.0804  1.1076
13164TIP3    H260984   1.933   4.990  12.670 -0.6843  3.0585 -0.6308
13165TIP3   OH260985   5.528   2.945   4.417  0.6164  0.0781  0.2763
13165TIP3    H160986   5.510   3.028   4.461 -1.4468 -0.5279  0.7237
13165TIP3    H260987   5.593   2.902   4.473 -0.2558  0.3033  1.5050
13166TIP3   OH260988   1.629   6.455   4.415 -0.4733 -0.2423 -0.2843
13166TIP3    H160989   1.687   6.424   4.485 -0.3995 -1.3504 -0.8163
13166TIP3    H260990   1.682   6.449   4.335 -0.8875  0.0136 -0.5799
13167TIP3   OH260991   3.881   1.016   5.725 -0.7468 -0.0120 -0.0091
13167TIP3    H160992   3.804   0.971   5.760 -0.3191 -0.8236 -0.0971
13167TIP3    H260993   3.846   1.096   5.685 -1.5983 -0.5949 -0.4560
13168TIP3   OH260994   0.982   5.999  13.038 -0.1476 -0.6017 -0.3045
13168TIP3    H160995   0.898   5.989  12.993  0.2465 -0.2846 -1.1305
13168TIP3    H260996   0.964   5.972  13.128 -0.8446 -1.6926 -0.7445
13169TIP3   OH260997   3.664   5.398   5.698 -0.2868  0.4147  0.2607
13169TIP3    H160998   3.630   5.353   5.776 -0.1792  1.4962  0.9413
13169TIP3    H260999   3.615   5.479   5.694  0.3122  0.7541 -0.3100
13170TIP3   OH261000   1.365   2.451  16.383  0.3944 -0.1362 -0.0083
13170TIP3    H161001   1.356   2.546  16.369  0.9049 -0.2785 -1.5457
13170TIP3    H261002   1.287   2.427  16.433  0.9143  1.2899  1.5954
13171TIP3   OH261003   5.202   6.260   2.880 -0.4278  0.1862  0.1963
13171TIP3    H161004   5.182   6.324   2.949  1.6513  1.2828 -0.1317
13171TIP3    H261005   5.245   6.188   2.926 -0.2035  0.3287  0.2108
13172TIP3   OH261006   3.942   1.900  11.900  0.1998 -0.2232  0.0082
13172TIP3    H161007   3.937   1.841  11.825 -0.6143 -0.3376  0.1445
13172TIP3    H261008   3.860   1.885  11.947  0.8132 -0.3490  1.0680
13173TIP3   OH261009   4.038   1.970   4.072 -0.1277  0.4642 -0.5929
13173TIP3    H161010   3.997   1.883   4.077 -0.9938  0.9177  2.9120
13173TIP3    H261011   3.974   2.024   4.026 -0.8017 -0.1713 -0.4314
13174TIP3   OH261012   2.227   6.575   0.033 -0.6198  0.6142 -0.4853
13174TIP3    H161013   2.265   6.562  -0.054  1.1850  0.8005  0.2363
13174TIP3    H261014   2.234   6.490   0.075 -2.8879  0.1042 -0.9701
13175TIP3   OH261015   1.424   6.434  11.352  0.0225 -0.0313 -0.3932
13175TIP3    H161016   1.340   6.443  11.397  0.5383  0.5748  0.4909
13175TIP3    H261017   1.489   6.432  11.423  0.7270 -0.9023 -1.0370
13176TIP3   OH261018   2.028   0.201  15.644  0.2021 -0.0008 -0.5315
13176TIP3    H161019   2.104   0.143  15.652 -0.4916 -0.9345 -0.5371
13176TIP3    H261020   2.064   0.284  15.613  0.9311 -1.1688 -3.0051
13177TIP3   OH261021   6.399   2.928  13.970 -0.0358  0.3857  0.4680
13177TIP3    H161022   6.360   2.862  13.912  1.0773 -0.1721  0.3234
13177TIP3    H261023   6.325   2.965  14.018 -0.9614  0.6441 -1.0751
13178TIP3   OH261024   1.325   3.228  10.897  0.1818  0.2331 -0.4387
13178TIP3    H161025   1.283   3.311  10.876 -0.3912  0.2779  0.7892
13178TIP3    H261026   1.336   3.184  10.813  2.2640  2.3374 -1.3471
13179TIP3   OH261027   2.977   6.507   5.204  0.5643 -0.1457 -0.2491
13179TIP3    H161028   3.000   6.476   5.116 -1.4685 -0.2333 -0.7885
13179TIP3    H261029   3.062   6.528   5.244  1.5144  1.2680 -2.7129
13180TIP3   OH261030   1.685   5.701   5.371 -0.1777 -0.0162 -0.1035
13180TIP3    H161031   1.739   5.653   5.433  0.5102 -2.7533 -2.5984
13180TIP3    H261032   1.652   5.634   5.311 -1.9712  2.2638 -1.8571
13181TIP3   OH261033   0.130   4.736   1.522  0.7718  0.0415  0.3570
13181TIP3    H161034   0.134   4.672   1.592  0.0876 -0.2268  0.1574
13181TIP3    H261035   0.222   4.755   1.501  0.9923 -1.2545  0.0688
13182TIP3   OH261036   0.544   0.311   3.481  0.3144 -0.5936 -0.0909
13182TIP3    H161037   0.551   0.249   3.554  1.9615  1.4238  1.6217
13182TIP3    H261038   0.623   0.295   3.429  0.3946 -0.3981 -0.0301
13183TIP3   OH261039   1.166   0.817  13.956 -0.1343 -0.5740 -0.0612
13183TIP3    H161040   1.259   0.838  13.950 -0.5720  1.2182 -1.1022
13183TIP3    H261041   1.150   0.757  13.883 -0.0438  0.1589 -0.6950
13184TIP3   OH261042   1.938   6.609  14.377 -0.3532 -0.7978  0.7066
13184TIP3    H161043   1.898   6.681  14.426 -1.2043 -0.4078 -0.5188
13184TIP3    H261044   1.876   6.536  14.387 -0.5546 -0.7013  0.1866
13185TIP3   OH261045   4.701   2.133  11.357  0.2080  0.0638  0.6540
13185TIP3    H161046   4.653   2.063  11.402 -1.1951  0.8365  0.4442
13185TIP3    H261047   4.793   2.108  11.363 -0.2670 -1.9049  0.3748
13186TIP3   OH261048   3.205   0.212  14.988  0.0332 -0.5279  0.2141
13186TIP3    H161049   3.117   0.241  15.011  0.0673 -0.6012  0.4486
13186TIP3    H261050   3.208   0.214  14.893 -0.6817 -1.9012  0.1478
13187TIP3   OH261051   3.683   1.763  13.231  0.3048  0.6354 -0.0923
13187TIP3    H161052   3.624   1.821  13.279  0.5777  0.9428 -0.1302
13187TIP3    H261053   3.647   1.675  13.246 -0.6442  0.8843 -0.7786
13188TIP3   OH261054   0.752   2.822  11.096  0.4456  0.5673  0.4388
13188TIP3    H161055   0.657   2.831  11.107  0.5660 -0.1493  2.4415
13188TIP3    H261056   0.762   2.785  11.008 -1.0708  1.2796 -0.0778
13189TIP3   OH261057   5.684   4.864   4.736 -0.0025  0.4455 -0.0443
13189TIP3    H161058   5.752   4.899   4.679  1.2623 -2.1751 -0.2708
13189TIP3    H261059   5.693   4.914   4.818  2.9820 -0.5217  0.3278
13190TIP3   OH261060   0.922   3.318  13.562  0.1662  0.6547 -0.3276
13190TIP3    H161061   0.829   3.299  13.573  0.2099  0.3431 -0.4582
13190TIP3    H261062   0.961   3.297  13.647  0.0899  0.9573 -0.2191
13191TIP3   OH261063   2.374   5.418  14.438  0.1656 -0.1433  0.7971
13191TIP3    H161064   2.281   5.438  14.444  0.5184  1.7787  0.4344
13191TIP3    H261065   2.418   5.500  14.458  1.7177 -0.0133 -2.4807
13192TIP3   OH261066   5.286   0.048  13.541 -0.0902  0.0006  0.2100
13192TIP3    H161067   5.343   0.009  13.475  1.2328  1.7313  0.2531
13192TIP3    H261068   5.341   0.058  13.618 -0.5484  1.2550  0.4066
13193TIP3   OH261069   3.396   1.368   4.069  0.3233  0.6926 -0.1806
13193TIP3    H161070   3.458   1.329   4.007  0.8885  0.8262  0.2835
13193TIP3    H261071   3.317   1.315   4.060  0.2719  0.9315 -1.2550
13194TIP3   OH261072   2.933   5.855   0.481  0.0998 -0.2095 -0.6145
13194TIP3    H161073   2.999   5.869   0.414 -0.0754 -0.6700 -0.8907
13194TIP3    H261074   2.964   5.905   0.557  1.0222 -0.8157 -0.5733
13195TIP3   OH261075   5.964   1.269   5.244  0.3998  0.2624  0.5159
13195TIP3    H161076   5.997   1.196   5.192  1.6240  1.1769 -0.0303
13195TIP3    H261077   5.925   1.328   5.180  1.9656  1.4192  0.5799
13196TIP3   OH261078   6.141   0.077   1.221 -0.3266  0.5867  0.3497
13196TIP3    H161079   6.192   0.126   1.156  1.1234  0.7628  1.5825
13196TIP3    H261080   6.067   0.135   1.242 -0.8523  0.5048 -1.1402
13197TIP3   OH261081   4.002   1.417  15.565  0.0776 -0.6743 -0.4456
13197TIP3    H161082   3.945   1.405  15.641  0.6369  0.2684  0.1405
13197TIP3    H261083   3.971   1.352  15.502 -0.2552 -1.6475  0.6675
13198TIP3   OH261084   4.629   0.683   2.704 -0.5245 -0.2053 -0.2060
13198TIP3    H161085   4.597   0.600   2.670 -2.6212 -0.3337  1.7986
13198TIP3    H261086   4.569   0.748   2.668  0.5085  0.3586 -0.9702
13199TIP3   OH261087   2.960   6.152   5.305  0.4588  0.1297 -0.0532
13199TIP3    H161088   2.988   6.239   5.332 -1.0119  0.9228 -0.9105
13199TIP3    H261089   2.958   6.156   5.209 -2.6434  0.2672 -0.0966
13200TIP3   OH261090   6.326   4.378   1.898  0.1424 -0.3741 -0.0741
13200TIP3    H161091   6.380   4.359   1.974  2.0000 -1.6348 -1.5966
13200TIP3    H261092   6.236   4.372   1.929  0.8204  1.2328  2.4437
13201TIP3   OH261093   3.717   3.201   6.028 -0.2154  0.6162  0.2084
13201TIP3    H161094   3.629   3.173   6.055  0.6923 -1.7323  0.9073
13201TIP3    H261095   3.722   3.175   5.936 -0.2791  0.8861  0.1261
13202TIP3   OH261096   0.826   3.186   2.378 -0.2836  0.6370 -0.6198
13202TIP3    H161097   0.892   3.181   2.448  0.9379  1.0106 -1.6948
13202TIP3    H261098   0.855   3.260   2.324 -0.9298  0.0767 -1.7683
13203TIP3   OH261099   4.794   3.198   4.580 -0.5863  0.7341  0.3383
13203TIP3    H161100   4.753   3.188   4.494 -0.1919 -0.7959  0.2944
13203TIP3    H261101   4.748   3.272   4.620 -0.8614  1.3960 -1.1252
13204TIP3   OH261102   6.719   5.059  13.615 -0.4705  0.8508 -0.0059
13204TIP3    H161103   6.775   5.091  13.686 -0.4450  1.0301 -0.1073
13204TIP3    H261104   6.641   5.114  13.618 -0.1587  1.3286 -0.5719
13205TIP3   OH261105   0.998   6.780   1.364 -0.4677 -0.1507  0.2552
13205TIP3    H161106   0.939   6.830   1.421  0.9498  0.4602  1.2431
13205TIP3    H261107   0.948   6.768   1.283 -1.7105  0.8778  0.8282
13206TIP3   OH261108   0.962   3.916  15.746 -0.6283  0.1432 -0.8333
13206TIP3    H161109   0.922   3.849  15.802  0.2205  0.9649  0.8491
13206TIP3    H261110   0.891   3.977  15.727 -0.6125  0.6509  0.6372
13207TIP3   OH261111   1.606   2.376   0.401 -0.1527 -0.4249 -0.0962
13207TIP3    H161112   1.673   2.382   0.470 -0.6942  1.3130  0.3108
13207TIP3    H261113   1.580   2.467   0.385 -1.7171 -0.9972 -0.9476
13208TIP3   OH261114   2.422   5.255  16.073 -0.2447  0.0674 -0.0798
13208TIP3    H161115   2.363   5.211  16.011 -0.4921  0.6235 -0.2394
13208TIP3    H261116   2.412   5.348  16.054  1.2145  0.1459 -0.5780
13209TIP3   OH261117   6.679   4.274   0.003  0.1228 -0.4265  0.2135
13209TIP3    H161118   6.711   4.336  -0.062  0.4860 -0.5856  0.2413
13209TIP3    H261119   6.585   4.266  -0.016  0.2845 -0.7157 -0.4900
13210TIP3   OH261120   3.918   1.427   4.940  0.2029  0.2234  0.2189
13210TIP3    H161121   3.947   1.336   4.947  0.8699  0.3634 -0.5325
13210TIP3    H261122   3.894   1.438   4.848  0.2468  0.8384  0.2709
13211TIP3   OH261123   3.882   3.971  13.372  0.3901 -0.1723 -0.2663
13211TIP3    H161124   3.878   3.960  13.277 -0.0134  1.5646 -0.4774
13211TIP3    H261125   3.843   4.057  13.388  2.1099  0.3608  1.3137
13212TIP3   OH261126   3.917   3.919   3.225  0.1340  0.2091 -0.2428
13212TIP3    H161127   3.963   3.865   3.160  1.4042 -0.4059  1.0875
13212TIP3    H261128   3.824   3.904   3.208  0.4464 -0.5001 -1.4493
13213TIP3   OH261129   6.685   4.263  13.895  0.5689  0.0312 -0.2535
13213TIP3    H161130   6.643   4.226  13.973  1.5009 -0.4804  0.0167
13213TIP3    H261131   6.612   4.296  13.842 -0.0587  0.8943  1.0803
13214TIP3   OH261132   1.935   1.270  13.944 -0.0975  0.8759  0.0775
13214TIP3    H161133   1.999   1.319  13.996  0.6700  2.5870 -2.3119
13214TIP3    H261134   1.861   1.329  13.935  0.2797  1.1186 -1.7265
13215TIP3   OH261135   4.787   4.163   1.432  0.1924 -0.3674  0.1724
13215TIP3    H161136   4.759   4.242   1.478  2.4186  0.5660  0.0124
13215TIP3    H261137   4.719   4.148   1.366 -1.6033 -0.1285  1.8630
13216TIP3   OH261138   2.141   2.118  11.811 -0.1177  0.4209  0.3513
13216TIP3    H161139   2.073   2.132  11.877 -0.3216 -1.0585  0.4977
13216TIP3    H261140   2.102   2.055  11.751  1.4823 -1.2954  1.0338
13217TIP3   OH261141   2.495   1.672   3.310 -0.2279  0.6126  0.0822
13217TIP3    H161142   2.526   1.611   3.244 -2.0555 -0.6608  0.3427
13217TIP3    H261143   2.403   1.651   3.322 -0.2880  1.7127  2.0657
13218TIP3   OH261144   3.961   3.090   2.086 -0.2529 -0.4268 -0.2410
13218TIP3    H161145   3.880   3.057   2.126 -0.0187  0.0798  0.6967
13218TIP3    H261146   4.031   3.047   2.134  0.0474  0.9014  0.5803
13219TIP3   OH261147   4.607   4.966  16.463 -0.2754  0.0571 -0.4693
13219TIP3    H161148   4.694   4.933  16.441  0.0526  0.7597 -0.2282
13219TIP3    H261149   4.609   4.980  16.558  0.7143  3.8791 -0.9021
13220TIP3   OH261150   4.215   0.512   2.481  0.1260  0.1707  0.0271
13220TIP3    H161151   4.183   0.423   2.465 -1.0663  0.8733 -1.8507
13220TIP3    H261152   4.203   0.557   2.398  1.7552  1.8096  0.6080
13221TIP3   OH261153   0.445   5.696   1.824 -0.2538  0.1094  0.0231
13221TIP3    H161154   0.533   5.697   1.786  0.1381 -1.2279  0.8179
13221TIP3    H261155   0.458   5.660   1.912 -1.5773  0.0834  0.2194
13222TIP3   OH261156   6.130   4.068   4.532  0.0471 -0.1950  0.1998
13222TIP3    H161157   6.055   4.128   4.538  1.7676  2.0455  0.6518
13222TIP3    H261158   6.132   4.042   4.440 -1.1180 -0.1122  0.1298
13223TIP3   OH261159   2.387   2.518   5.819 -0.1927 -0.2179  0.2289
13223TIP3    H161160   2.351   2.438   5.780  0.9623 -0.8553  0.4104
13223TIP3    H261161   2.437   2.487   5.894  2.7959  0.3052 -1.4070
13224TIP3   OH261162   0.520   5.812   4.287  0.1627 -0.8022 -0.2876
13224TIP3    H161163   0.431   5.835   4.260 -0.2904 -1.7330  0.3334
13224TIP3    H261164   0.574   5.825   4.209 -0.6636 -0.9904 -0.8997
13225TIP3   OH261165   3.096   6.791  16.238 -0.3684  0.6392  0.2849
13225TIP3    H161166   3.142   6.874  16.253  0.8629 -0.0147  0.3030
13225TIP3    H261167   3.096   6.781  16.143  1.9553 -0.6044  0.3323
13226TIP3   OH261168   4.404   3.080   4.579 -0.6208 -0.4998 -0.1364
13226TIP3    H161169   4.474   3.104   4.640 -1.2236  0.1757  0.3029
13226TIP3    H261170   4.449   3.032   4.509  0.2524 -0.2447  0.2354
13227TIP3   OH261171   5.731   6.517  11.794 -0.1667  0.4836 -0.0590
13227TIP3    H161172   5.789   6.498  11.721  1.0647  1.3633  0.6529
13227TIP3    H261173   5.673   6.587  11.762  1.5193  2.1349  0.3046
13228TIP3   OH261174   4.319   5.991  13.632  0.4129  0.2283  0.8065
13228TIP3    H161175   4.350   5.900  13.635  0.6788  0.3444  2.0288
13228TIP3    H261176   4.339   6.020  13.543 -0.3106 -1.1237  0.1740
13229TIP3   OH261177   2.778   1.542  11.951  0.5068  0.0089 -0.0986
13229TIP3    H161178   2.823   1.511  12.029  1.9899  2.0410 -0.0687
13229TIP3    H261179   2.686   1.550  11.977  0.5787 -1.5258  0.7047
13230TIP3   OH261180   2.826   0.592  15.250 -0.2127  0.3828  0.1853
13230TIP3    H161181   2.736   0.560  15.252 -0.3351  0.6965 -0.2440
13230TIP3    H261182   2.879   0.513  15.247 -0.5164  0.2075 -1.0504
13231TIP3   OH261183   5.047   3.303  11.869  0.3893 -0.2817 -0.4932
13231TIP3    H161184   5.115   3.328  11.931 -0.2528 -0.8652  0.4687
13231TIP3    H261185   5.060   3.362  11.794  1.1271  0.4850  0.2231
13232TIP3   OH261186   3.531   2.183  16.087 -0.3187  0.6780 -0.4328
13232TIP3    H161187   3.607   2.124  16.088 -1.8112 -1.3501 -0.1794
13232TIP3    H261188   3.529   2.217  15.998  2.1024  2.5249  0.1201
13233TIP3   OH261189   5.290   4.502   5.888 -0.2588  0.1127 -0.1592
13233TIP3    H161190   5.220   4.567   5.888  1.6636  2.3536  0.4706
13233TIP3    H261191   5.354   4.535   5.825  0.5567 -1.5031 -0.2414
13234TIP3   OH261192   1.015   2.348   4.748 -0.0821  0.4850  0.2733
13234TIP3    H161193   1.030   2.259   4.780  0.5427  0.2102 -0.7384
13234TIP3    H261194   1.091   2.397   4.778  0.3296  0.3087 -0.4498
13235TIP3   OH261195   5.936   0.961   3.170  0.5948 -0.2043 -0.4937
13235TIP3    H161196   6.011   0.919   3.129  0.7416 -0.7304  0.2829
13235TIP3    H261197   5.888   1.002   3.098  0.4225 -1.7534 -1.2983
13236TIP3   OH261198   3.073   2.989  13.112  0.0618 -0.8920  0.3143
13236TIP3    H161199   3.035   3.047  13.177  0.2690  1.9195 -1.8740
13236TIP3    H261200   3.166   2.986  13.134  0.5273  1.7315 -0.8505
13237TIP3   OH261201   0.668   5.932  13.051  0.0911  0.2242 -0.8313
13237TIP3    H161202   0.716   5.867  13.103  1.3733  2.3361  0.7698
13237TIP3    H261203   0.576   5.911  13.067  0.4563  0.2123  1.5989
13238TIP3   OH261204   1.995   6.182  13.890 -0.6625  0.0990  0.0302
13238TIP3    H161205   2.003   6.114  13.958  3.6987 -1.1499 -1.3873
13238TIP3    H261206   1.932   6.145  13.827 -0.0097 -1.6900  0.3628
13239TIP3   OH261207   1.618   4.577  15.764  0.1910  0.4491 -0.8937
13239TIP3    H161208   1.549   4.562  15.699 -2.1493  1.5127  1.1780
13239TIP3    H261209   1.582   4.542  15.845  2.7547 -0.2617  0.0243
13240TIP3   OH261210   5.211   3.061  16.015 -0.1452  0.0444 -0.0295
13240TIP3    H161211   5.158   2.984  15.994 -2.2113  1.2660  0.3611
13240TIP3    H261212   5.176   3.091  16.099  0.8116  1.2375 -0.0404
13241TIP3   OH261213   1.433   3.610   1.210  0.6342 -0.7529 -0.1249
13241TIP3    H161214   1.441   3.635   1.118  1.5438  0.1595  0.1863
13241TIP3    H261215   1.339   3.611   1.227  0.5085 -0.0902 -0.8160
13242TIP3   OH261216   3.756   1.019   1.194 -0.3827  0.4517 -0.3316
13242TIP3    H161217   3.686   0.969   1.236 -1.7566  2.8567  0.4335
13242TIP3    H261218   3.730   1.023   1.101 -0.6740  0.4104 -0.2531
13243TIP3   OH261219   4.579   5.286  16.566  0.4743 -0.1678  0.4045
13243TIP3    H161220   4.572   5.220  16.634 -0.7144 -1.2806 -0.7363
13243TIP3    H261221   4.504   5.269  16.508  0.4176  1.8704 -0.1988
13244TIP3   OH261222   4.615   1.544  13.104  0.0593 -0.3941 -0.4887
13244TIP3    H161223   4.607   1.451  13.123  0.1372 -0.3274 -0.1203
13244TIP3    H261224   4.615   1.550  13.008  0.8372 -0.8423 -0.5252
13245TIP3   OH261225   5.255   4.614  11.544 -0.2598 -0.4973 -0.0882
13245TIP3    H161226   5.189   4.681  11.527 -0.8008 -0.3329  2.2506
13245TIP3    H261227   5.305   4.648  11.618  1.0833 -1.5769 -0.4639
13246TIP3   OH261228   0.424   6.129   3.391  0.3418  0.2234  0.4395
13246TIP3    H161229   0.434   6.125   3.296 -1.1606  2.3061  0.1428
13246TIP3    H261230   0.372   6.051   3.413  0.1218  0.0854 -0.5294
13247TIP3   OH261231   3.679   0.201   0.291 -0.1753 -0.1493  0.4255
13247TIP3    H161232   3.751   0.255   0.260 -0.8367  0.3882 -0.1886
13247TIP3    H261233   3.714   0.112   0.291  0.6452  0.1703  0.6245
13248TIP3   OH261234   2.667   3.651   5.105  0.6408 -0.4187 -0.4572
13248TIP3    H161235   2.712   3.660   5.190  0.6621  1.2605 -0.6069
13248TIP3    H261236   2.709   3.576   5.063 -0.2088 -2.0971  1.5008
13249TIP3   OH261237   1.037   1.344   3.668  0.6921 -0.3164  0.0816
13249TIP3    H161238   1.093   1.421   3.678 -0.0662  0.3521 -0.6661
13249TIP3    H261239   0.962   1.362   3.724 -0.0585  0.0670 -1.0101
13250TIP3   OH261240   3.516   5.958   4.686 -0.2567 -0.4975 -0.4362
13250TIP3    H161241   3.480   6.040   4.652 -2.2658 -0.3884  1.6930
13250TIP3    H261242   3.541   5.978   4.776  0.1855 -1.9741 -0.1978
13251TIP3   OH261243   6.250   3.054  14.696  0.1180 -0.1065 -0.0313
13251TIP3    H161244   6.217   3.100  14.773 -0.0265  0.9172 -0.6917
13251TIP3    H261245   6.189   2.980  14.685 -0.4313  0.2907  0.2662
13252TIP3   OH261246   3.310   6.270   1.646  0.1511 -0.7173 -0.3335
13252TIP3    H161247   3.281   6.185   1.612 -0.8639 -1.0968  1.3525
13252TIP3    H261248   3.280   6.271   1.737  0.8996  1.1092 -0.0577
13253TIP3   OH261249   3.784   2.129  11.017  0.0780  0.2285 -0.0257
13253TIP3    H161250   3.773   2.115  10.923 -0.4073 -0.2145  0.0893
13253TIP3    H261251   3.815   2.219  11.025  0.3921  0.1770 -0.6238
13254TIP3   OH261252   3.309   6.480  14.498 -0.0611  0.1869 -0.1553
13254TIP3    H161253   3.306   6.386  14.481  1.4133 -0.0566  0.6916
13254TIP3    H261254   3.268   6.520  14.421 -0.3412 -1.1211 -0.7173
13255TIP3   OH261255   0.351   5.903   1.621 -0.1177 -0.1733 -0.0999
13255TIP3    H161256   0.296   5.949   1.685  0.8392 -0.8132  1.2165
13255TIP3    H261257   0.372   5.819   1.663 -0.3654 -1.0893 -1.7149
13256TIP3   OH261258   5.308   3.770   1.287  0.5599 -0.0847 -0.2853
13256TIP3    H161259   5.361   3.849   1.292  1.8327 -0.9429  0.4628
13256TIP3    H261260   5.358   3.711   1.230 -0.8235 -0.0518 -1.6137
13257TIP3   OH261261   1.492   0.080   2.451 -0.8213  0.5218  0.3210
13257TIP3    H161262   1.496   0.038   2.537 -1.2023  1.1502  0.6510
13257TIP3    H261263   1.553   0.029   2.397  0.6311  1.0800  1.3743
13258TIP3   OH261264   3.702   1.637   0.683 -0.1999 -0.3395 -0.2184
13258TIP3    H161265   3.651   1.693   0.741 -0.2559 -0.2707 -0.3324
13258TIP3    H261266   3.646   1.626   0.606  0.2503  0.3131 -0.6491
13259TIP3   OH261267   1.163   0.183   2.722  0.0600 -0.7913 -0.0705
13259TIP3    H161268   1.159   0.269   2.679 -0.8122 -0.0859  1.3437
13259TIP3    H261269   1.223   0.197   2.795 -0.1016 -1.3893  0.1760
13260TIP3   OH261270   4.551   4.310  16.975 -0.2819 -0.5362 -0.0739
13260TIP3    H161271   4.578   4.286  17.063 -0.5597  0.5813  0.3310
13260TIP3    H261272   4.613   4.377  16.948 -0.4600 -0.5651 -0.5638
13261TIP3   OH261273   1.073   2.272   1.068  0.2919 -0.5752 -0.1722
13261TIP3    H161274   1.151   2.326   1.085  0.1078  0.6156 -2.5993
13261TIP3    H261275   0.999   2.330   1.087  0.0760 -0.3711 -1.5512
13262TIP3   OH261276   0.583   1.460  12.396  0.0995 -0.1680  0.0296
13262TIP3    H161277   0.544   1.432  12.479 -0.8721 -0.2010 -0.4239
13262TIP3    H261278   0.595   1.378  12.347 -0.7919 -0.0182 -0.4684
13263TIP3   OH261279   0.222   5.056   3.379  0.4809 -0.5987  0.2833
13263TIP3    H161280   0.234   5.027   3.469  0.3335  0.8499  0.8041
13263TIP3    H261281   0.178   5.141   3.387  2.3123  0.5590 -1.0250
13264TIP3   OH261282   5.408   1.382  11.926 -0.1230  0.1555 -0.0487
13264TIP3    H161283   5.421   1.287  11.932  1.4540  0.2505 -1.3970
13264TIP3    H261284   5.338   1.400  11.988  0.3540 -1.7330  1.1293
13265TIP3   OH261285   6.283   2.900   0.797 -0.0689  0.1262 -0.2712
13265TIP3    H161286   6.219   2.856   0.740 -2.3923  0.7832  1.6515
13265TIP3    H261287   6.286   2.990   0.765 -1.4392  0.5176  0.6019
13266TIP3   OH261288   1.432   3.116  13.203  0.1829 -0.2380 -0.3498
13266TIP3    H161289   1.409   3.200  13.243 -0.4590 -2.0681  3.5796
13266TIP3    H261290   1.521   3.099  13.234 -0.5040 -1.9596  0.7805
13267TIP3   OH261291   0.128   0.481   1.267 -0.0370  0.0238 -0.2908
13267TIP3    H161292   0.194   0.423   1.228 -0.4735 -1.1319  0.6191
13267TIP3    H261293   0.091   0.529   1.193 -0.4778 -1.7250 -1.2585
13268TIP3   OH261294   0.470   0.233   4.770  0.1809 -0.5499 -0.1337
13268TIP3    H161295   0.378   0.252   4.784 -0.6822 -2.5715 -2.3410
13268TIP3    H261296   0.508   0.230   4.858 -1.6070  1.2396  0.7618
13269TIP3   OH261297   3.398   4.268   0.401  0.1419 -0.2818  0.6574
13269TIP3    H161298   3.314   4.256   0.357 -0.1262 -1.5438  1.4652
13269TIP3    H261299   3.449   4.322   0.340 -1.9597  2.4342  1.1077
13270TIP3   OH261300   6.436   2.547  11.641  0.0122  0.4439 -0.4480
13270TIP3    H161301   6.347   2.573  11.618 -0.5522 -1.3585 -0.4828
13270TIP3    H261302   6.492   2.594  11.580 -0.7970  2.4515  0.2687
13271TIP3   OH261303   4.468   5.166   5.280 -0.1218  0.2532  0.1707
13271TIP3    H161304   4.421   5.238   5.321 -0.2856  0.3332 -0.1492
13271TIP3    H261305   4.420   5.087   5.307 -1.6231  0.4560 -1.6553
13272TIP3   OH261306   5.443   4.341  15.369 -0.5167  0.2577 -0.1456
13272TIP3    H161307   5.356   4.314  15.398  0.0150 -0.5249  0.8051
13272TIP3    H261308   5.501   4.272  15.401  0.4257  0.6210 -1.0017
13273TIP3   OH261309   4.333   5.306  14.191  0.3137 -0.2108 -0.4527
13273TIP3    H161310   4.282   5.364  14.249  1.9317  1.0268 -0.1835
13273TIP3    H261311   4.317   5.218  14.225 -0.2480  0.3166  0.7112
13274TIP3   OH261312   4.124   5.562  14.094  0.0911  0.2202 -0.3170
13274TIP3    H161313   4.054   5.624  14.115  0.0528 -0.3348  1.2833
13274TIP3    H261314   4.114   5.492  14.159  1.5334 -0.3504 -0.6868
13275TIP3   OH261315   5.480   0.080   1.338 -0.6475 -0.0426  0.1399
13275TIP3    H161316   5.464  -0.014   1.347  0.2358 -0.5792 -2.7821
13275TIP3    H261317   5.395   0.117   1.316 -0.6263 -0.5224 -0.7990
13276TIP3   OH261318   4.076   5.057   4.969 -0.0207 -0.3906  0.4702
13276TIP3    H161319   4.004   5.096   5.019 -0.2388 -1.8254  1.3035
13276TIP3    H261320   4.138   5.026   5.035  1.0946  0.2417 -0.2223
13277TIP3   OH261321   3.840   3.664   2.436  0.1271 -0.2958  0.2864
13277TIP3    H161322   3.828   3.588   2.379 -1.4839  0.7337 -0.8444
13277TIP3    H261323   3.931   3.689   2.424 -0.6613  1.3622 -3.9090
13278TIP3   OH261324   5.859   6.038   1.300 -0.1002 -0.9908 -1.0726
13278TIP3    H161325   5.892   6.110   1.353  1.2015 -1.3143 -1.4021
13278TIP3    H261326   5.794   6.078   1.242  0.0280 -0.2340 -0.7047
13279TIP3   OH261327   4.515   1.388   3.433  0.0835 -0.4092 -1.0364
13279TIP3    H161328   4.438   1.353   3.388  0.8158  0.3190 -2.9836
13279TIP3    H261329   4.570   1.423   3.363  0.4609  2.5205  0.5594
13280TIP3   OH261330   4.445   4.871  11.268 -0.0319  0.3025  0.5338
13280TIP3    H161331   4.439   4.883  11.363 -0.7716  0.2243  0.5036
13280TIP3    H261332   4.537   4.848  11.253  0.2528  0.9979  1.1460
13281TIP3   OH261333   6.103   6.070   3.552 -0.1094 -0.3566  0.8054
13281TIP3    H161334   6.060   5.987   3.532  0.4948 -0.9217  1.7611
13281TIP3    H261335   6.052   6.107   3.624 -1.0749  0.6994 -0.3557
13282TIP3   OH261336   6.592   2.227   3.377  0.7829  0.0179  0.2083
13282TIP3    H161337   6.665   2.251   3.319  1.5097 -0.7704  0.7729
13282TIP3    H261338   6.581   2.133   3.363 -0.6882  0.2583 -0.4790
13283TIP3   OH261339   1.095   3.746  16.959 -0.1631  0.0483  0.4600
13283TIP3    H161340   1.056   3.795  16.886  0.6689 -0.0330 -0.0441
13283TIP3    H261341   1.061   3.790  17.037  0.8510  1.6891  0.0204
13284TIP3   OH261342   6.186   3.778  15.102 -0.5668 -0.5850  0.0707
13284TIP3    H161343   6.167   3.726  15.023 -1.2343 -0.3621  0.0793
13284TIP3    H261344   6.117   3.755  15.163 -1.7903  1.4400 -0.4721
13285TIP3   OH261345   2.567   4.428  14.171  0.3492  0.1031  0.1509
13285TIP3    H161346   2.564   4.374  14.092 -1.2585  0.3864 -0.0285
13285TIP3    H261347   2.540   4.515  14.140 -0.9671  0.0625  1.1034
13286TIP3   OH261348   0.032   0.239  12.136  0.1199  0.4953  0.5064
13286TIP3    H161349  -0.009   0.196  12.211  0.0972 -0.7880 -0.2183
13286TIP3    H261350  -0.010   0.199  12.060  2.5669 -0.7734 -0.2780
13287TIP3   OH261351   1.302   0.963   2.441  0.2503 -0.1956 -0.2897
13287TIP3    H161352   1.246   0.994   2.369 -0.7858  2.1087  1.4072
13287TIP3    H261353   1.383   0.936   2.398 -1.1361 -1.0772 -2.5486
13288TIP3   OH261354   2.080   4.332   5.942 -0.1344 -0.0269 -0.2029
13288TIP3    H161355   2.011   4.270   5.918  1.7954 -1.7571 -1.5331
13288TIP3    H261356   2.092   4.320   6.036  1.4112 -3.0485 -0.6956
13289TIP3   OH261357   3.598   2.389   1.344  0.1710  0.2691  0.1072
13289TIP3    H161358   3.640   2.303   1.333  0.9527  0.9051 -2.8600
13289TIP3    H261359   3.657   2.438   1.400  0.8669 -0.4327  0.0044
13290TIP3   OH261360   6.557   4.331   5.724  0.3290 -0.1142 -0.5082
13290TIP3    H161361   6.525   4.242   5.736 -0.4141  0.4607  2.7599
13290TIP3    H261362   6.648   4.320   5.696  0.7274 -1.9613  1.2990
13291TIP3   OH261363   2.739   5.693  12.263 -0.8252  0.3827 -0.4308
13291TIP3    H161364   2.810   5.720  12.320 -0.6625 -2.2700  0.7807
13291TIP3    H261365   2.781   5.673  12.179 -0.1618 -0.7415  0.1464
13292TIP3   OH261366   4.750   3.041   2.007 -0.0305 -0.1674 -0.1533
13292TIP3    H161367   4.676   3.101   2.015 -0.8108 -0.6276 -2.8912
13292TIP3    H261368   4.798   3.073   1.931  0.5577 -1.9425 -0.5678
13293TIP3   OH261369   1.973   1.136   4.818  0.3625  0.2715 -0.0449
13293TIP3    H161370   1.907   1.115   4.752 -0.1063  2.1186 -0.2112
13293TIP3    H261371   1.969   1.063   4.880 -0.8661 -0.3267 -0.7898
13294TIP3   OH261372   4.448   5.979   1.491 -0.5906 -0.1196 -0.2565
13294TIP3    H161373   4.370   5.976   1.547 -1.6842 -1.2248 -1.7809
13294TIP3    H261374   4.431   6.051   1.430  0.6958  1.2253  0.8910
13295TIP3   OH261375   6.777   2.782   1.826 -0.1323 -0.5601 -0.2930
13295TIP3    H161376   6.870   2.803   1.828 -0.1751 -0.3792 -0.1998
13295TIP3    H261377   6.773   2.691   1.797  0.1979 -1.3542  2.0014
13296TIP3   OH261378   2.882   2.318   1.110 -0.2656 -0.4644 -0.5929
13296TIP3    H161379   2.910   2.333   1.020  0.3319  0.1191 -0.3276
13296TIP3    H261380   2.853   2.227   1.113  1.3136 -1.0188 -0.9815
13297TIP3   OH261381   6.686   5.754  16.695  0.1764  0.4943 -0.0060
13297TIP3    H161382   6.647   5.841  16.706  2.1838  1.4912 -0.2632
13297TIP3    H261383   6.653   5.724  16.610  0.6881  1.7292 -0.6732
13298TIP3   OH261384   4.039   1.018  15.316  0.5384 -0.1483 -0.2784
13298TIP3    H161385   4.012   0.942  15.369  0.9305  0.6577  1.1095
13298TIP3    H261386   4.129   1.034  15.341  0.9287 -0.0741 -1.6340
13299TIP3   OH261387   2.411   6.064  11.239  0.0577 -0.5680  0.1003
13299TIP3    H161388   2.445   6.001  11.176 -1.9684 -1.1388 -0.4815
13299TIP3    H261389   2.367   6.130  11.187  0.0367  0.0174  0.8368
13300TIP3   OH261390   0.884   2.469  16.022  0.0291  0.7039 -0.8167
13300TIP3    H161391   0.915   2.471  16.113  2.9275 -0.3624 -1.6386
13300TIP3    H261392   0.795   2.436  16.028  0.3366  0.0769  1.6204
13301TIP3   OH261393   0.073   4.101  15.673 -0.0256 -0.2518 -0.0187
13301TIP3    H161394   0.119   4.172  15.627 -0.5089 -0.5456 -0.9852
13301TIP3    H261395   0.078   4.027  15.613  1.3188 -1.3631  1.3978
13302TIP3   OH261396   6.581   4.601  12.205  0.2364 -0.0545 -0.1111
13302TIP3    H161397   6.553   4.692  12.194 -0.9687 -0.4956 -0.9944
13302TIP3    H261398   6.649   4.588  12.139  2.5174  0.9611  1.8917
13303TIP3   OH261399   3.323   5.533   2.691  0.0737 -0.1485 -0.3448
13303TIP3    H161400   3.343   5.447   2.656  0.0218 -0.3294  0.0680
13303TIP3    H261401   3.314   5.520   2.785  1.2987  0.5148 -0.1104
13304TIP3   OH261402   3.544   3.862  13.769  0.1881  0.5566  0.4834
13304TIP3    H161403   3.512   3.917  13.840  0.3545 -0.9967  1.8122
13304TIP3    H261404   3.578   3.784  13.812  1.7752  0.2527 -1.1890
13305TIP3   OH261405   0.726   5.927   2.975 -0.1416 -0.1549  0.8051
13305TIP3    H161406   0.777   5.859   3.019  0.1302 -0.4254  0.0831
13305TIP3    H261407   0.665   5.880   2.920 -0.1675  0.1826  0.5414
13306TIP3   OH261408   5.238   5.787  14.778  0.2490  0.6682 -0.0461
13306TIP3    H161409   5.231   5.882  14.789  2.1742  1.0577 -1.6347
13306TIP3    H261410   5.330   5.767  14.794 -0.3382 -1.1528  1.4298
13307TIP3   OH261411   0.008   3.979   1.091 -0.5350 -0.6430 -0.2342
13307TIP3    H161412  -0.013   3.933   1.172  1.0230  0.5421  0.9202
13307TIP3    H261413  -0.071   4.029   1.070 -1.0258 -1.1126  0.4602
13308TIP3   OH261414   2.266   4.847   3.793  0.1747 -0.0356 -0.0396
13308TIP3    H161415   2.225   4.761   3.804 -3.7289  1.5062 -0.9048
13308TIP3    H261416   2.251   4.869   3.701  1.0299  1.6033  0.1838
13309TIP3   OH261417   3.801   6.400  11.210  0.4883 -0.5487 -0.0980
13309TIP3    H161418   3.777   6.479  11.258  1.0157 -0.9443  0.8524
13309TIP3    H261419   3.842   6.432  11.130 -0.0328  0.1314 -0.0973
13310TIP3   OH261420   1.122   0.684  14.986 -0.0497 -0.2076  0.0379
13310TIP3    H161421   1.096   0.735  15.063 -1.8995 -1.5418  0.3719
13310TIP3    H261422   1.170   0.610  15.021  1.8192  0.7512 -0.3766
13311TIP3   OH261423   4.920   2.645   1.393  0.1779 -0.6135  0.1342
13311TIP3    H161424   4.829   2.628   1.419 -0.3731  1.2651 -0.4244
13311TIP3    H261425   4.949   2.561   1.356 -1.7527 -0.9318 -0.8315
13312TIP3   OH261426   5.026   6.765  13.466  0.5324 -0.2132 -0.6560
13312TIP3    H161427   5.106   6.804  13.503  1.8239 -1.6948 -1.7336
13312TIP3    H261428   5.004   6.822  13.393  0.4788  0.3331 -0.2164
13313TIP3   OH261429   4.713   4.148   4.621 -0.2305 -0.0412 -0.5087
13313TIP3    H161430   4.772   4.220   4.643 -0.1722 -0.2546  0.0501
13313TIP3    H261431   4.708   4.150   4.526  0.2520  0.3196 -0.5334
13314TIP3   OH261432   2.830   4.148  16.575 -0.2701 -0.5244 -0.2077
13314TIP3    H161433   2.892   4.128  16.504 -1.7101 -1.6162 -1.2225
13314TIP3    H261434   2.858   4.091  16.647 -0.8043 -1.9739 -1.0943
13315TIP3   OH261435   0.075   0.906  10.912 -0.2413  0.0376 -0.5153
13315TIP3    H161436   0.159   0.876  10.875  1.0806  0.1559  2.1025
13315TIP3    H261437   0.078   1.001  10.904 -0.0373  0.0497 -0.3410
13316TIP3   OH261438   5.299   2.354   6.390  0.1559  0.0950 -0.2943
13316TIP3    H161439   5.344   2.322   6.468  0.2686 -0.0508 -0.4199
13316TIP3    H261440   5.369   2.383   6.332  0.0303  1.6619  0.2779
13317TIP3   OH261441   4.252   1.260   5.825 -0.4076  0.5053 -0.8820
13317TIP3    H161442   4.330   1.295   5.782  0.6224  0.4477  0.8297
13317TIP3    H261443   4.204   1.214   5.756  0.9782  0.6942 -2.0034
13318TIP3   OH261444   3.536   6.786   0.768  1.0203 -0.1747 -0.0609
13318TIP3    H161445   3.464   6.759   0.824 -0.6628 -0.5950 -2.2890
13318TIP3    H261446   3.572   6.864   0.810 -0.7122  0.0292  1.1163
13319TIP3   OH261447   1.753   3.254  14.411  0.1776  0.1616 -0.2879
13319TIP3    H161448   1.710   3.323  14.461  1.1371  0.6070 -0.0553
13319TIP3    H261449   1.823   3.298  14.362 -0.7062 -0.2640 -2.0193
13320TIP3   OH261450   2.218   0.395   4.814 -0.3784  0.0157  0.1733
13320TIP3    H161451   2.266   0.470   4.849 -1.2432  0.4399  0.4821
13320TIP3    H261452   2.183   0.351   4.892 -0.1445 -0.5269 -0.0244
13321TIP3   OH261453   3.824   6.534   4.211 -0.5341 -0.1767  0.0765
13321TIP3    H161454   3.770   6.530   4.290 -0.6823 -0.3848 -0.0345
13321TIP3    H261455   3.765   6.568   4.143 -0.4643 -0.1974  0.0056
13322TIP3   OH261456   5.177   2.007   4.978 -0.3961 -0.2603  0.6091
13322TIP3    H161457   5.175   1.916   4.948  0.8329  0.0099 -0.3918
13322TIP3    H261458   5.205   2.002   5.069 -0.2600 -0.8803  0.5378
13323TIP3   OH261459   3.806   0.290  13.137 -0.2545  0.1637  0.4024
13323TIP3    H161460   3.865   0.249  13.074  0.6014  0.2746  1.1170
13323TIP3    H261461   3.719   0.259  13.112 -0.0145  0.6815 -1.2041
13324TIP3   OH261462   4.083   1.571  12.861  0.1447  0.0327 -0.5081
13324TIP3    H161463   3.998   1.609  12.880 -0.6336 -1.3298 -1.0930
13324TIP3    H261464   4.063   1.493  12.808  1.8341  0.4289 -1.8231
13325TIP3   OH261465   3.667   0.286   6.338 -0.6217 -0.2595 -0.5379
13325TIP3    H161466   3.610   0.250   6.270 -1.4094  1.2730 -0.7301
13325TIP3    H261467   3.621   0.267   6.420 -0.4046 -0.7924 -0.5349
13326TIP3   OH261468   1.539   2.116   0.360  0.2055  0.1938 -0.0136
13326TIP3    H161469   1.463   2.139   0.307  1.0613 -1.1810 -1.9738
13326TIP3    H261470   1.580   2.200   0.381  0.4574  0.7929 -2.5855
13327TIP3   OH261471   4.324   1.028  15.938 -0.0246 -0.0591  0.0113
13327TIP3    H161472   4.329   1.120  15.911 -2.3946  0.7252  1.9027
13327TIP3    H261473   4.282   0.984  15.865 -0.0772  0.6312 -0.3837
13328TIP3   OH261474   0.689   5.529  10.614  0.0578  0.8621 -0.0810
13328TIP3    H161475   0.750   5.562  10.680  0.4327 -3.0837  1.8143
13328TIP3    H261476   0.608   5.511  10.662 -1.1049  1.6862 -1.6180
13329TIP3   OH261477   1.257   4.138   3.114  0.1066 -0.4262  0.0579
13329TIP3    H161478   1.201   4.156   3.190 -2.5080 -1.6756 -1.4650
13329TIP3    H261479   1.286   4.048   3.127  2.3276  0.3416  1.0641
13330TIP3   OH261480   4.772   6.612  12.494  0.1368  0.0627  0.4418
13330TIP3    H161481   4.823   6.693  12.487  0.5183 -0.2041  0.1176
13330TIP3    H261482   4.694   6.628  12.441  0.3144  0.1380  0.2045
13331TIP3   OH261483   4.145   1.172   5.582  0.2962  0.0173 -0.5757
13331TIP3    H161484   4.116   1.087   5.551  0.3369 -0.0904 -0.3241
13331TIP3    H261485   4.204   1.204   5.514  2.3243 -1.2770  0.4800
13332TIP3   OH261486   0.569   1.647   5.980  0.0317 -0.2611  0.1360
13332TIP3    H161487   0.625   1.642   5.903  0.9210  0.6937  0.6987
13332TIP3    H261488   0.600   1.577   6.037 -1.6664 -2.0408 -0.9769
13333TIP3   OH261489   4.645   2.097  12.143  0.0447 -0.1322  0.2273
13333TIP3    H161490   4.678   2.182  12.115  0.5942  0.3984  2.3373
13333TIP3    H261491   4.562   2.087  12.098  1.0869  0.3892 -1.9445
13334TIP3   OH261492   6.156   6.315  15.466 -0.2256 -0.2255  0.2252
13334TIP3    H161493   6.236   6.299  15.415 -1.1337 -1.3195 -0.9241
13334TIP3    H261494   6.093   6.347  15.402 -0.3281  2.0975  1.3909
13335TIP3   OH261495   5.028   3.712  11.065  0.2099 -0.7043  0.2962
13335TIP3    H161496   4.983   3.650  11.008 -1.9786  1.1394 -0.1210
13335TIP3    H261497   5.103   3.742  11.013 -0.2525 -1.0000 -0.5537
13336TIP3   OH261498   1.959   3.614   5.064  0.4692  0.1161 -0.5666
13336TIP3    H161499   1.866   3.600   5.047  0.6275  0.4577 -1.8113
13336TIP3    H261500   1.974   3.576   5.150 -0.2069 -2.6225 -1.5524
13337TIP3   OH261501   4.110   5.928   4.936  0.1783 -0.8973 -0.5891
13337TIP3    H161502   4.053   5.948   5.010 -0.4170 -1.1675 -0.9705
13337TIP3    H261503   4.196   5.910   4.976  0.6334  1.8364 -0.1756
13338TIP3   OH261504   6.268   4.683  17.013 -0.3422 -0.0201  0.4369
13338TIP3    H161505   6.313   4.723  17.087  3.2855  0.0939 -1.5929
13338TIP3    H261506   6.244   4.756  16.957  0.6997 -0.2590 -0.3668
13339TIP3   OH261507   4.154   4.551  14.480 -0.0456 -0.0610 -0.3987
13339TIP3    H161508   4.065   4.561  14.514 -0.3244 -1.5406 -0.6124
13339TIP3    H261509   4.201   4.628  14.511 -1.2440  0.4444  0.2196
13340TIP3   OH261510   1.684   5.444   6.456 -0.2732  0.2057 -0.0370
13340TIP3    H161511   1.774   5.447   6.423 -0.5547 -0.3308 -0.9188
13340TIP3    H261512   1.671   5.527   6.500  0.3277  0.7248 -0.8142
13341TIP3   OH261513   2.164   5.223  14.841  0.6160 -0.6833 -0.0381
13341TIP3    H161514   2.200   5.233  14.753 -1.3832 -1.1038 -0.9558
13341TIP3    H261515   2.177   5.130  14.861  1.4799 -0.4964  0.3310
13342TIP3   OH261516   3.275   5.358  14.909 -0.5159 -0.0110 -0.5881
13342TIP3    H161517   3.234   5.283  14.865 -0.8021 -1.1819  1.5472
13342TIP3    H261518   3.266   5.339  15.002  2.1815  1.1530  0.0090
13343TIP3   OH261519   3.372   5.511   1.204  0.2167 -0.5298  0.1239
13343TIP3    H161520   3.304   5.450   1.231  0.9872 -1.4241  0.0787
13343TIP3    H261521   3.454   5.471   1.234  0.9164 -0.5174 -1.6444
13344TIP3   OH261522   6.542   1.499   1.537 -0.3077 -0.2193 -0.0306
13344TIP3    H161523   6.460   1.476   1.493  0.2303 -0.7305 -0.7833
13344TIP3    H261524   6.607   1.503   1.467 -0.0473  2.0806  0.2812
13345TIP3   OH261525   1.021   2.605  13.129 -0.0922  0.4597  0.2057
13345TIP3    H161526   0.981   2.691  13.141  0.7120  1.2506 -2.2127
13345TIP3    H261527   0.993   2.555  13.205 -2.4539  2.1448  0.5609
13346TIP3   OH261528   3.851   3.448  12.409 -0.0185 -0.5586  0.3505
13346TIP3    H161529   3.907   3.511  12.454  0.3860 -0.8238  0.2255
13346TIP3    H261530   3.813   3.395  12.479 -1.2655  0.5447  0.5426
13347TIP3   OH261531   1.114   3.483   2.467  0.0865 -0.8523  0.1213
13347TIP3    H161532   1.196   3.506   2.424  0.6188 -1.2947  0.8868
13347TIP3    H261533   1.046   3.515   2.407  0.7955  0.7484  0.1311
13348TIP3   OH261534   6.490   1.977   3.304  0.0725  0.2027 -0.0291
13348TIP3    H161535   6.414   1.973   3.362 -1.2505  2.2284 -1.4910
13348TIP3    H261536   6.524   1.888   3.302 -1.4514 -0.4633  1.7242
13349TIP3   OH261537   3.286   1.387   4.333 -0.1960  0.2466 -0.3342
13349TIP3    H161538   3.311   1.449   4.265  0.6284 -0.4091 -0.6311
13349TIP3    H261539   3.261   1.443   4.408  0.4910  0.9342 -0.6068
13350TIP3   OH261540   6.567   5.209  11.300  0.3779 -0.2957 -0.7811
13350TIP3    H161541   6.629   5.269  11.343 -0.2393 -1.3354  1.7805
13350TIP3    H261542   6.622   5.143  11.258  1.1960 -1.9675  2.5659
13351TIP3   OH261543   5.463   5.338  11.542  0.6145  0.3570 -0.4331
13351TIP3    H161544   5.436   5.429  11.532 -3.1121 -0.5567  0.0013
13351TIP3    H261545   5.406   5.289  11.483  0.7670 -1.9438  1.1748
13352TIP3   OH261546   4.565   2.253   3.035  0.0038 -0.4032  0.3950
13352TIP3    H161547   4.508   2.219   2.967 -2.6342  2.1680  1.1271
13352TIP3    H261548   4.649   2.269   2.991 -0.7756 -1.3383 -1.5317
13353TIP3   OH261549   4.666   6.626  14.277 -0.0460 -0.0915 -0.2954
13353TIP3    H161550   4.597   6.593  14.335  0.6584 -1.5639 -0.2562
13353TIP3    H261551   4.741   6.638  14.334 -0.5099  2.5575 -0.1212
13354TIP3   OH261552   4.140   1.534   2.752  0.1922 -0.0212  0.1280
13354TIP3    H161553   4.054   1.572   2.736 -0.7275 -0.6539  3.0536
13354TIP3    H261554   4.123   1.456   2.805  2.5128 -0.5436  0.2100
13355TIP3   OH261555   1.616   1.332  14.090 -0.4145  0.2656 -0.4447
13355TIP3    H161556   1.657   1.407  14.047 -0.5131  0.1931 -0.6718
13355TIP3    H261557   1.638   1.341  14.182 -1.0173  0.9584 -0.3616
13356TIP3   OH261558   0.999   1.123  14.297 -0.0483 -0.2128  0.4113
13356TIP3    H161559   1.091   1.117  14.270 -0.4774 -1.4939 -0.9383
13356TIP3    H261560   0.998   1.189  14.366  1.7482  0.4704 -0.1595
13357TIP3   OH261561   0.475   3.935   1.252  0.1955 -0.2532 -0.0392
13357TIP3    H161562   0.429   3.862   1.295  1.7813 -2.1545 -1.3849
13357TIP3    H261563   0.426   3.949   1.171  1.2110 -1.4682 -0.8995
13358TIP3   OH261564   4.419   6.799  14.491 -0.3512 -0.2638 -0.2165
13358TIP3    H161565   4.352   6.863  14.514  0.8248  0.5834  1.0218
13358TIP3    H261566   4.426   6.743  14.569  2.0259  1.1550  0.6773
13359TIP3   OH261567   6.484   2.674  12.562 -0.0122  0.1305  0.0480
13359TIP3    H161568   6.400   2.675  12.517 -0.1317 -0.4281  0.2553
13359TIP3    H261569   6.474   2.609  12.631  0.5253  0.2048  0.2038
13360TIP3   OH261570   2.038   5.110   3.129  0.1762 -0.3929  0.2343
13360TIP3    H161571   2.002   5.074   3.211 -1.2797  0.5888  0.0549
13360TIP3    H261572   2.091   5.039   3.093 -1.3780 -1.8329  0.6662
13361TIP3   OH261573   5.626   5.759   0.464  0.0197 -0.0745 -0.3075
13361TIP3    H161574   5.566   5.690   0.436  0.1004  0.0818 -0.8810
13361TIP3    H261575   5.705   5.713   0.491  0.3688 -0.1613 -1.4517
13362TIP3   OH261576   6.052   2.356   3.649  0.2247 -0.7276  0.3440
13362TIP3    H161577   6.054   2.267   3.614 -2.2787 -0.6747 -0.0814
13362TIP3    H261578   6.033   2.344   3.742  2.4443 -0.6760  0.8652
13363TIP3   OH261579   4.928   0.029   2.811 -0.2409 -0.1149  0.3949
13363TIP3    H161580   4.839   0.062   2.800  0.1873  1.5341  1.4787
13363TIP3    H261581   4.968   0.089   2.874  0.8405 -2.3267  1.9637
13364TIP3   OH261582   0.002   3.115   0.555 -0.1483  0.6819  0.1625
13364TIP3    H161583  -0.032   3.194   0.596 -1.0788  0.3214  0.1054
13364TIP3    H261584  -0.057   3.097   0.482  1.2717  1.1096 -1.1634
13365TIP3   OH261585   3.518   5.765   2.284  0.1546 -0.3734  0.2719
13365TIP3    H161586   3.576   5.688   2.284  1.4980  0.6020  0.6440
13365TIP3    H261587   3.559   5.825   2.346 -0.4248  0.9667 -0.6032
13366TIP3   OH261588   5.048   6.609  12.070 -0.2209  0.9807 -0.1996
13366TIP3    H161589   5.111   6.676  12.044  0.3195 -0.5201 -3.1786
13366TIP3    H261590   4.968   6.657  12.092  0.4603  2.6652 -1.2532
13367TIP3   OH261591   4.117   6.250  11.221 -0.0655  0.2972  0.0001
13367TIP3    H161592   4.168   6.182  11.266 -1.3311 -0.9175 -0.3067
13367TIP3    H261593   4.124   6.327  11.277  1.7496  0.0605  0.1511
13368TIP3   OH261594   4.586   1.657   0.371 -0.5027 -0.1124 -0.0139
13368TIP3    H161595   4.582   1.617   0.284 -2.0295  0.5444 -0.2679
13368TIP3    H261596   4.570   1.750   0.355  0.5725  0.2376  0.8356
13369TIP3   OH261597   5.995   0.445  14.463  0.3935  0.0321  0.2687
13369TIP3    H161598   5.920   0.385  14.462  0.1811  0.3024  0.0138
13369TIP3    H261599   5.960   0.528  14.494  0.6912  0.0258  0.6318
13370TIP3   OH261600   2.996   1.300  13.749 -1.0942  0.2313 -0.6694
13370TIP3    H161601   2.990   1.204  13.744 -2.6579  0.2806 -0.1948
13370TIP3    H261602   2.918   1.326  13.797 -0.6663  1.7598 -0.7724
13371TIP3   OH261603   4.515   2.646   2.866  0.8198 -0.6801 -0.2421
13371TIP3    H161604   4.446   2.580   2.856  0.4192 -0.4177  0.7323
13371TIP3    H261605   4.559   2.623   2.948  0.8292  0.1241 -0.0166
13372TIP3   OH261606   0.838   2.836   5.950  0.1238  0.2264 -0.2836
13372TIP3    H161607   0.878   2.779   6.015 -0.2757 -0.3811 -0.5680
13372TIP3    H261608   0.760   2.789   5.920 -0.6210  1.2162 -0.0023
13373TIP3   OH261609   6.478   5.224  13.577  0.6524  1.2262 -0.4642
13373TIP3    H161610   6.433   5.308  13.589 -1.0081  0.4388 -0.9571
13373TIP3    H261611   6.515   5.229  13.489  0.4518  1.3866 -0.5410
13374TIP3   OH261612   0.587   5.433   3.202  0.1375 -0.1361 -0.3089
13374TIP3    H161613   0.661   5.471   3.252 -0.2622  0.9388 -0.5013
13374TIP3    H261614   0.519   5.420   3.268  0.0475  0.0988 -0.3550
13375TIP3   OH261615   0.853   3.652   4.147 -0.3391 -0.1791 -0.2839
13375TIP3    H161616   0.824   3.570   4.106 -2.1607  0.2415  0.0509
13375TIP3    H261617   0.849   3.717   4.077 -0.2352 -0.1115 -0.2267
13376TIP3   OH261618   4.774   2.532   4.792 -0.3073 -0.6937 -0.0111
13376TIP3    H161619   4.771   2.555   4.699 -0.3874 -0.7287 -0.0174
13376TIP3    H261620   4.788   2.438   4.793 -0.3446 -0.6992  0.0116
13377TIP3   OH261621   2.576   3.774  12.845 -0.3594  0.5396 -0.0042
13377TIP3    H161622   2.551   3.681  12.849  0.7250  0.2622  2.1041
13377TIP3    H261623   2.670   3.772  12.829 -0.4311  1.3276 -0.5835
13378TIP3   OH261624   4.385   6.641   4.868  0.8944  0.0381  0.3376
13378TIP3    H161625   4.478   6.645   4.846  0.6368 -3.3937 -2.1980
13378TIP3    H261626   4.342   6.686   4.795  0.4839 -2.0190 -0.7613
13379TIP3   OH261627   6.743   2.388  16.006  0.3947  0.0602 -0.1820
13379TIP3    H161628   6.709   2.310  15.961  3.3382 -0.8649 -1.0454
13379TIP3    H261629   6.751   2.361  16.098 -0.2052 -0.0329 -0.1503
13380TIP3   OH261630   3.274   3.236  17.038  0.3078 -0.3125 -0.4334
13380TIP3    H161631   3.204   3.301  17.050  0.8214  0.4548 -1.4214
13380TIP3    H261632   3.354   3.288  17.044  0.7129 -0.7683 -1.7515
13381TIP3   OH261633   6.590   6.053   5.374  0.3849 -0.6628 -0.4083
13381TIP3    H161634   6.591   6.147   5.391  2.2992 -0.5450 -0.8979
13381TIP3    H261635   6.566   6.045   5.281  0.9015 -0.5965 -0.5520
13382TIP3   OH261636   5.683   1.906  16.698  0.2126 -0.6361 -0.5882
13382TIP3    H161637   5.738   1.959  16.641  0.9226  0.3381  0.9325
13382TIP3    H261638   5.636   1.847  16.639  1.6684 -0.3755 -2.0525
13383TIP3   OH261639   0.849   6.024  13.563  0.0979 -0.0953  0.0943
13383TIP3    H161640   0.893   5.971  13.630  0.7775  1.1969  0.7130
13383TIP3    H261641   0.852   6.113  13.598 -1.7126  0.2587 -0.5418
13384TIP3   OH261642   4.086   4.208  14.522  0.0703 -0.4011  0.3712
13384TIP3    H161643   4.101   4.153  14.446  0.8014  0.9033 -0.4674
13384TIP3    H261644   4.043   4.287  14.488  0.1597  0.0888  1.3346
13385TIP3   OH261645   5.489   0.425  12.825 -0.0340  0.3102 -0.0141
13385TIP3    H161646   5.404   0.465  12.806 -0.7529 -1.3411 -0.5466
13385TIP3    H261647   5.506   0.444  12.917 -0.9393  0.7531  0.0669
13386TIP3   OH261648   0.355   1.439   5.595 -0.4145 -0.1770  1.0783
13386TIP3    H161649   0.284   1.376   5.609  0.3882 -0.6836  3.2300
13386TIP3    H261650   0.433   1.384   5.583 -0.2349  0.3854 -0.5667
13387TIP3   OH261651   4.494   4.970  17.162 -0.1527  0.4088 -0.0183
13387TIP3    H161652   4.530   4.889  17.200 -1.5303  1.0428  2.9064
13387TIP3    H261653   4.557   5.038  17.188 -0.1220  0.5909 -0.5664
13388TIP3   OH261654   4.195   1.832   1.185  0.3477  0.7446 -0.4878
13388TIP3    H161655   4.119   1.772   1.180  1.5602 -1.1076  1.6382
13388TIP3    H261656   4.161   1.910   1.228 -0.6972  0.5406 -0.9108
13389TIP3   OH261657   6.786   0.070   0.906  0.1646  0.0521  0.4663
13389TIP3    H161658   6.853   0.020   0.953  3.8186  1.4940 -2.6835
13389TIP3    H261659   6.786   0.156   0.949 -0.1114 -0.1205  0.8177
13390TIP3   OH261660   6.288   3.022   1.890 -0.0244 -0.1268  0.1248
13390TIP3    H161661   6.280   3.105   1.936  0.4929  0.0519 -0.1081
13390TIP3    H261662   6.382   3.004   1.887 -0.0409 -0.1029 -0.9154
13391TIP3   OH261663   6.048   0.988  17.093 -0.2839 -0.4551 -0.2594
13391TIP3    H161664   6.112   1.021  17.030 -1.1942  2.0400  0.0276
13391TIP3    H261665   6.040   0.895  17.072  2.0998 -0.4783 -1.4324
13392TIP3   OH261666   0.438   4.575  14.443  0.0323 -0.4019 -0.2926
13392TIP3    H161667   0.499   4.502  14.455 -1.9229 -2.1116 -0.1802
13392TIP3    H261668   0.452   4.602  14.352  2.2954  0.5957  0.2890
13393TIP3   OH261669   6.705   5.402   0.477 -0.0284  0.1521 -0.2270
13393TIP3    H161670   6.672   5.343   0.409 -0.3891  0.5466 -0.3979
13393TIP3    H261671   6.792   5.368   0.498  0.1214  0.0735 -0.9481
13394TIP3   OH261672   3.857   6.154   5.735 -0.0268 -0.2801 -0.7076
13394TIP3    H161673   3.933   6.149   5.793 -0.4552 -2.8068 -0.2593
13394TIP3    H261674   3.800   6.219   5.775  0.6789 -0.3588  0.4598
13395TIP3   OH261675   3.759   2.218   5.752  0.7553 -0.0733 -0.4121
13395TIP3    H161676   3.766   2.176   5.838  0.3010  1.0283  0.1847
13395TIP3    H261677   3.705   2.158   5.700 -0.9089  0.3013  0.8011
13396TIP3   OH261678   5.212   6.588  16.337 -0.1054  0.0526  0.0852
13396TIP3    H161679   5.238   6.566  16.248 -0.8280 -1.3802  0.1919
13396TIP3    H261680   5.198   6.503  16.379  1.0180  0.6738  1.8164
13397TIP3   OH261681   1.635   4.281   5.618  0.2325  0.0927  0.1553
13397TIP3    H161682   1.555   4.231   5.638  1.4805 -2.1289 -0.1048
13397TIP3    H261683   1.630   4.358   5.675 -1.5268 -0.5904  0.9902
13398TIP3   OH261684   5.491   0.479   6.031  0.2414  0.0911  0.2607
13398TIP3    H161685   5.537   0.438   6.103  1.3626  0.3156 -0.3109
13398TIP3    H261686   5.432   0.410   5.998 -2.0159  0.6433  2.7658
13399TIP3   OH261687   6.385   2.966   0.101 -0.0587 -0.2398 -0.4841
13399TIP3    H161688   6.291   2.980   0.114  0.0648  1.1868 -0.9235
13399TIP3    H261689   6.393   2.934   0.012 -0.2945 -2.7935  0.3380
13400TIP3   OH261690   6.716   4.206   5.258 -0.4459 -0.6113 -0.1860
13400TIP3    H161691   6.680   4.242   5.177  0.0192  0.4675  0.0762
13400TIP3    H261692   6.652   4.140   5.286 -0.0816 -1.8166 -2.0120
13401TIP3   OH261693   2.788   6.152   2.282  0.2878 -0.2296 -0.0254
13401TIP3    H161694   2.706   6.166   2.234 -0.6904 -3.5069  0.4664
13401TIP3    H261695   2.855   6.150   2.214 -0.5527 -0.9831 -0.8611
13402TIP3   OH261696   6.357   5.502   0.936  0.2488 -0.1316  0.2133
13402TIP3    H161697   6.439   5.458   0.916 -0.0579 -1.2229  1.2027
13402TIP3    H261698   6.350   5.496   1.031 -0.7219  0.4122  0.1864
13403TIP3   OH261699   5.974   6.182   3.771  0.0193  0.3956 -0.7542
13403TIP3    H161700   5.892   6.216   3.736 -2.1710 -1.2158  2.3345
13403TIP3    H261701   5.982   6.222   3.857  1.3991 -1.0354 -0.1660
13404TIP3   OH261702   2.899   1.741   3.104  0.2185 -0.0281  0.2969
13404TIP3    H161703   2.979   1.757   3.055 -0.7372  2.0240 -0.7141
13404TIP3    H261704   2.928   1.715   3.191  1.9440 -0.5608 -0.3997
13405TIP3   OH261705   2.541   3.020  12.828  0.4412 -0.3288  0.0900
13405TIP3    H161706   2.539   3.109  12.864 -1.2821  0.1840 -1.1708
13405TIP3    H261707   2.520   2.963  12.903  0.4933  0.3933  0.6658
13406TIP3   OH261708   1.061   0.068   6.277  0.3057  0.3105  0.1446
13406TIP3    H161709   1.027   0.050   6.189  2.9098  0.5273 -0.9869
13406TIP3    H261710   0.983   0.069   6.333 -1.2881 -1.2658 -1.8990
13407TIP3   OH261711   6.033   1.744  11.454  0.3589 -0.1621  0.3441
13407TIP3    H161712   6.116   1.745  11.406  0.4356  1.6770  0.4312
13407TIP3    H261713   5.966   1.743  11.386  0.4444 -0.6586  0.2615
13408TIP3   OH261714   1.113   6.226  14.342 -0.0509  0.1998 -0.4624
13408TIP3    H161715   1.118   6.221  14.437  2.4905  0.1659 -0.5233
13408TIP3    H261716   1.037   6.282  14.325 -0.3241  0.5351  1.5746
13409TIP3   OH261717   3.299   1.437   1.512  0.0780  0.3361 -0.0633
13409TIP3    H161718   3.354   1.454   1.435  0.6045  1.5568  0.5627
13409TIP3    H261719   3.210   1.432   1.477  0.1955  1.8511 -0.6400
13410TIP3   OH261720   2.788   0.626  14.691 -0.0148  0.7114  0.1577
13410TIP3    H161721   2.859   0.639  14.753 -1.1167 -2.0284  2.2021
13410TIP3    H261722   2.824   0.568  14.624  0.0212  0.3048  0.5288
13411TIP3   OH261723   2.516   0.974  16.595  0.5530 -0.3059 -0.1502
13411TIP3    H161724   2.436   0.946  16.550 -0.2562  0.7674  0.5540
13411TIP3    H261725   2.542   0.898  16.646  0.2559 -0.8252 -0.7495
13412TIP3   OH261726   1.609   6.170  10.909  0.0270  0.0540  0.3079
13412TIP3    H161727   1.517   6.196  10.906 -0.7317 -2.4338 -1.2090
13412TIP3    H261728   1.638   6.174  10.818  0.5776 -1.6705  0.3554
13413TIP3   OH261729   5.965   3.334  16.908 -0.1740  0.6184 -0.0791
13413TIP3    H161730   5.902   3.356  16.977 -0.7248  0.2629 -0.4601
13413TIP3    H261731   6.047   3.374  16.937 -0.2920  0.1291  0.9912
13414TIP3   OH261732   2.752   6.172  16.142  0.1228 -0.4806  0.7861
13414TIP3    H161733   2.673   6.225  16.136 -1.0850 -2.2928 -0.4902
13414TIP3    H261734   2.783   6.166  16.052  1.2597 -0.4559  1.1664
13415TIP3   OH261735   0.958   4.561   1.617  0.2404  0.1122 -0.1763
13415TIP3    H161736   0.915   4.537   1.700  0.2100  1.3843  0.2025
13415TIP3    H261737   0.920   4.646   1.595  2.5461  1.3065  0.1919
13416TIP3   OH261738   4.649   3.885   4.938  0.2764  0.1312  0.3205
13416TIP3    H161739   4.603   3.810   4.976  0.5750  0.1641  0.7453
13416TIP3    H261740   4.691   3.928   5.012  1.8685 -0.5082 -0.1680
13417TIP3   OH261741   2.188   0.872   0.227 -0.1891 -0.0847 -0.2478
13417TIP3    H161742   2.192   0.864   0.132 -2.2878  0.5319 -0.4418
13417TIP3    H261743   2.236   0.953   0.247 -1.3077  0.7934 -1.0030
13418TIP3   OH261744   0.846   6.691  15.507 -0.3840 -0.1566 -0.1552
13418TIP3    H161745   0.770   6.698  15.450 -0.0721 -0.1250 -0.5776
13418TIP3    H261746   0.863   6.597  15.514 -0.9470 -0.2131  0.6060
13419TIP3   OH261747   3.026   3.954   0.096  0.5684 -0.1906 -0.1752
13419TIP3    H161748   3.080   3.897   0.151 -0.4347 -0.6472  0.3683
13419TIP3    H261749   3.031   4.040   0.138  2.1208  0.1805 -1.0221
13420TIP3   OH261750   5.763   4.226   0.604 -0.0436 -0.0146 -0.0710
13420TIP3    H161751   5.836   4.165   0.599 -0.1678 -0.1933  0.2825
13420TIP3    H261752   5.798   4.308   0.571 -0.1989 -0.5665 -1.7360
13421TIP3   OH261753   0.821   0.792   0.283 -0.3154 -0.0509  0.5803
13421TIP3    H161754   0.910   0.780   0.251 -0.4041 -0.3910  0.4616
13421TIP3    H261755   0.778   0.846   0.217  0.4304  2.0399  1.6870
13422TIP3   OH261756   1.119   3.853   1.077  0.2089 -0.0328 -0.2091
13422TIP3    H161757   1.092   3.904   1.153  2.4196  0.8911  0.0072
13422TIP3    H261758   1.077   3.768   1.090  0.3508  0.1725  1.9425
13423TIP3   OH261759   3.050   0.795  12.007 -0.5419 -0.2935  0.1755
13423TIP3    H161760   3.133   0.831  11.975 -0.5407 -0.0482  0.4472
13423TIP3    H261761   3.022   0.734  11.939 -1.3361  1.4024 -1.0980
13424TIP3   OH261762   5.616   0.422   3.307 -0.8336  0.3724 -0.0550
13424TIP3    H161763   5.552   0.456   3.245 -1.8102  0.3386  0.8899
13424TIP3    H261764   5.665   0.499   3.336 -0.1040  0.3307 -1.1440
13425TIP3   OH261765   4.439   5.189   4.803 -0.1831  0.5500  0.1006
13425TIP3    H161766   4.496   5.116   4.779 -0.9917 -1.2590  3.1624
13425TIP3    H261767   4.350   5.155   4.792 -0.5692  0.9822  1.6919
13426TIP3   OH261768   2.151   1.673  16.825  0.4014 -0.0130 -0.2679
13426TIP3    H161769   2.127   1.698  16.914  1.1788  1.3572 -0.4193
13426TIP3    H261770   2.175   1.755  16.782 -0.1047 -0.6244 -1.8004
13427TIP3   OH261771   0.295   6.636   5.382  0.1446  0.0607  0.3014
13427TIP3    H161772   0.282   6.629   5.287 -1.4662 -0.0115  0.4974
13427TIP3    H261773   0.228   6.579   5.419 -0.5457  1.6047  1.5261
13428TIP3   OH261774   1.272   3.840   2.095  0.2822  0.8553 -0.1321
13428TIP3    H161775   1.275   3.829   2.000  0.5300 -0.7901  0.0468
13428TIP3    H261776   1.361   3.823   2.124 -0.0272  0.2654  0.4993
13429TIP3   OH261777   2.420   2.743  14.745  0.1383  0.2121  0.1757
13429TIP3    H161778   2.446   2.773  14.658 -1.3363 -1.0010 -0.7274
13429TIP3    H261779   2.477   2.669  14.764  0.9030  0.8838  0.5484
13430TIP3   OH261780   3.029   2.319  13.055 -0.3398 -0.3632  0.8426
13430TIP3    H161781   3.066   2.406  13.068 -0.9716 -0.0699  0.7428
13430TIP3    H261782   3.085   2.261  13.106  0.3308  0.0404  0.5865
13431TIP3   OH261783   3.855   5.147   5.121  0.3330  0.2527  0.4144
13431TIP3    H161784   3.923   5.187   5.175  1.2657  1.3799 -1.4890
13431TIP3    H261785   3.812   5.222   5.078  0.1182 -0.6269 -0.9567
13432TIP3   OH261786   3.965   4.780   5.496  0.1928 -0.1262 -0.5398
13432TIP3    H161787   3.888   4.727   5.515  0.1210  0.3852  0.6466
13432TIP3    H261788   3.931   4.867   5.477  0.3444 -0.3683 -2.1027
13433TIP3   OH261789   4.572   2.158  13.098 -0.3930  0.3428 -0.0297
13433TIP3    H161790   4.491   2.128  13.058  0.3511 -1.4540 -0.2751
13433TIP3    H261791   4.602   2.085  13.152  2.4686 -0.2117 -2.1340
13434TIP3   OH261792   4.947   5.920   1.630  0.6458 -0.1935 -0.1871
13434TIP3    H161793   4.975   6.003   1.668 -0.7619  0.4485 -0.4704
13434TIP3    H261794   4.921   5.942   1.540  1.5592 -1.2111 -0.7244
13435TIP3   OH261795   3.736   3.651   6.474  0.7272 -0.0720  0.0733
13435TIP3    H161796   3.683   3.573   6.461 -0.1682  0.5934 -0.3650
13435TIP3    H261797   3.813   3.637   6.420  0.0005 -0.1322 -0.9773
13436TIP3   OH261798   6.527   3.815  13.851  0.6792  0.6270 -0.1228
13436TIP3    H161799   6.497   3.851  13.934 -1.0137 -1.2314  0.1630
13436TIP3    H261800   6.505   3.881  13.786 -3.1811 -0.0973  0.2370
13437TIP3   OH261801   1.018   2.944  16.340  0.1509  0.3901 -0.3088
13437TIP3    H161802   0.981   3.008  16.401  0.1043 -0.9287  1.1369
13437TIP3    H261803   1.112   2.958  16.345  0.0903  0.9461 -0.7054
13438TIP3   OH261804   2.864   6.542   3.553 -0.4673 -0.3606  0.1570
13438TIP3    H161805   2.798   6.610   3.567 -4.3854 -3.8503  0.7931
13438TIP3    H261806   2.861   6.524   3.459  0.3512  0.0973  0.0328
13439TIP3   OH261807   1.277   4.313  14.471 -0.5083  0.0317 -0.3639
13439TIP3    H161808   1.219   4.295  14.397 -1.4062 -0.5361  0.4491
13439TIP3    H261809   1.364   4.315  14.433 -1.0903  1.6095 -1.7507
13440TIP3   OH261810   0.963   0.792   5.787  0.4103 -0.0794 -0.2769
13440TIP3    H161811   0.969   0.766   5.695 -2.2462 -0.0977 -0.5232
13440TIP3    H261812   0.875   0.766   5.813  1.2083 -0.3794  2.4061
13441TIP3   OH261813   5.475   1.898   3.359 -0.0336  0.2187  0.1472
13441TIP3    H161814   5.560   1.856   3.369 -0.5808 -0.7277  1.0513
13441TIP3    H261815   5.436   1.896   3.447 -1.0657  0.4538 -0.2819
13442TIP3   OH261816   2.054   6.160   3.309  0.1822  0.6244 -0.6985
13442TIP3    H161817   2.122   6.108   3.267  0.2639  0.4765 -0.3817
13442TIP3    H261818   2.095   6.196   3.387 -0.5496 -0.7589  0.3521
13443TIP3   OH261819   3.890   1.486  17.153  0.5519  0.1382  0.2820
13443TIP3    H161820   3.861   1.570  17.120  0.3097 -0.4007 -0.9378
13443TIP3    H261821   3.835   1.469  17.230 -1.5317 -0.2651 -1.2122
13444TIP3   OH261822   5.873   0.727   1.794 -0.0398 -0.1567  0.7257
13444TIP3    H161823   5.805   0.716   1.727 -2.7614  1.6859  2.9547
13444TIP3    H261824   5.925   0.802   1.764  1.2504 -1.6908 -1.0880
13445TIP3   OH261825   6.421   3.997   0.387  0.1329  0.4564  0.1388
13445TIP3    H161826   6.454   3.999   0.297 -1.1870  1.5100 -0.3558
13445TIP3    H261827   6.333   4.035   0.381 -0.3623 -0.3486  1.7240
13446TIP3   OH261828   3.404   6.344  13.552  0.1396  0.4749  0.5320
13446TIP3    H161829   3.308   6.338  13.550  0.1194  0.8308 -1.0626
13446TIP3    H261830   3.429   6.294  13.629 -1.2282 -1.5111 -0.2171
13447TIP3   OH261831   0.037   5.959  14.768 -0.2230  0.1621  0.3502
13447TIP3    H161832  -0.011   5.955  14.851  1.0032 -0.5992  1.0470
13447TIP3    H261833   0.092   5.882  14.769 -0.6551 -0.2114 -1.4934
13448TIP3   OH261834   1.359   4.790  14.880  0.4296 -0.5453 -0.6322
13448TIP3    H161835   1.416   4.854  14.838 -0.8405  0.1104 -1.4170
13448TIP3    H261836   1.272   4.831  14.881 -0.0751 -1.5677  0.3921
13449TIP3   OH261837   3.176   5.180   0.926 -0.3007 -0.4995  0.3346
13449TIP3    H161838   3.182   5.227   0.843 -1.6666 -0.6678  0.1111
13449TIP3    H261839   3.085   5.151   0.930  0.0355 -1.4736  1.3681
13450TIP3   OH261840   1.718   4.259   5.102  0.1856 -0.0351  0.9079
13450TIP3    H161841   1.679   4.293   5.182  0.1246  0.0519  0.8406
13450TIP3    H261842   1.723   4.335   5.044  0.4065 -0.0562  0.8987
13451TIP3   OH261843   5.975   4.023   3.398 -0.2037  0.1637 -0.1994
13451TIP3    H161844   5.981   3.991   3.308  1.1227  2.1586 -0.8657
13451TIP3    H261845   6.061   4.007   3.436 -0.6855 -0.4592  0.6836
13452TIP3   OH261846   2.472   4.484   0.766  0.3194  0.3872  0.0151
13452TIP3    H161847   2.498   4.439   0.846  0.4992  2.9162  1.4890
13452TIP3    H261848   2.553   4.489   0.714  0.2318 -1.1478 -0.3082
13453TIP3   OH261849   3.088   0.348  17.183 -0.0747  0.1275  0.0591
13453TIP3    H161850   3.041   0.428  17.206 -0.4050 -0.5761  2.0462
13453TIP3    H261851   3.077   0.339  17.088  1.1767  3.1519 -0.4734
13454TIP3   OH261852   4.105   5.793   2.102  0.0860  0.5609 -0.6154
13454TIP3    H161853   4.143   5.751   2.024 -0.2065  0.1475 -0.5390
13454TIP3    H261854   4.080   5.880   2.072 -2.4273 -0.4506 -1.7234
13455TIP3   OH261855   1.313   1.864   3.056 -0.1896  0.5837 -0.1278
13455TIP3    H161856   1.291   1.927   3.124 -0.9729  0.1385  0.0427
13455TIP3    H261857   1.265   1.785   3.080  2.3804 -0.7943  0.7976
13456TIP3   OH261858   0.039   6.412  13.457  0.0589  0.3635 -0.2988
13456TIP3    H161859  -0.048   6.391  13.422 -0.4917  1.4896  0.3124
13456TIP3    H261860   0.093   6.427  13.380 -0.4752  0.3001 -0.6893
13457TIP3   OH261861   0.247   3.881  12.376  0.5444  0.0540 -0.2116
13457TIP3    H161862   0.280   3.798  12.343  1.5645  1.3168 -2.6286
13457TIP3    H261863   0.288   3.891  12.462  1.9678 -1.0603 -0.7230
13458TIP3   OH261864   3.166   1.952   5.823 -0.2712  0.2156 -0.1139
13458TIP3    H161865   3.092   2.010   5.842  0.1129  0.0954  1.9797
13458TIP3    H261866   3.151   1.923   5.733 -1.5526  1.9548 -0.5092
13459TIP3   OH261867   5.532   0.821   3.107 -0.2185 -0.3164  0.2282
13459TIP3    H161868   5.460   0.786   3.055 -0.3324 -1.0336  0.8598
13459TIP3    H261869   5.591   0.747   3.120  0.1604  0.0321  0.5286
13460TIP3   OH261870   0.470   0.742  14.438  0.3533  0.1117  0.5944
13460TIP3    H161871   0.475   0.837  14.436  2.1089  0.0949 -2.4336
13460TIP3    H261872   0.552   0.714  14.478  0.1022 -0.1414  0.9420
13461TIP3   OH261873   3.755   5.365   3.077 -0.1305  0.0934 -0.2546
13461TIP3    H161874   3.694   5.329   3.012 -0.8823  0.3519  0.2908
13461TIP3    H261875   3.698   5.400   3.146  0.5891  1.6946 -0.4316
13462TIP3   OH261876   3.158   6.413   1.868  0.4127  0.6619 -0.5151
13462TIP3    H161877   3.091   6.357   1.829 -0.1197  2.4335 -2.3136
13462TIP3    H261878   3.109   6.471   1.926  0.7273  0.4472 -0.0285
13463TIP3   OH261879   2.423   3.459  14.229 -0.0890 -0.1115 -0.0746
13463TIP3    H161880   2.484   3.404  14.179  1.7992  1.0466  0.8519
13463TIP3    H261881   2.454   3.548  14.214 -1.3009  0.4711  0.8071
13464TIP3   OH261882   0.320   1.490  14.690 -0.2378 -0.8617  0.3397
13464TIP3    H161883   0.291   1.468  14.601 -0.6388 -0.1664  0.2958
13464TIP3    H261884   0.241   1.482  14.743 -0.0702 -0.9373  0.5792
13465TIP3   OH261885   4.043   6.144   0.888 -0.7269  0.2092 -0.3310
13465TIP3    H161886   4.024   6.069   0.944  0.1658  0.0375 -0.2462
13465TIP3    H261887   4.130   6.126   0.852 -1.9908 -0.5691 -3.2463
13466TIP3   OH261888   2.788   5.606  12.858 -0.6058 -0.6290 -0.4298
13466TIP3    H161889   2.862   5.550  12.835 -0.9269 -0.8369 -0.9861
13466TIP3    H261890   2.762   5.646  12.775 -0.2072  0.5757 -0.0065
13467TIP3   OH261891   2.797   1.491  13.647 -0.1107 -0.4266  0.3573
13467TIP3    H161892   2.754   1.456  13.569 -2.2123  0.6680  0.9386
13467TIP3    H261893   2.755   1.446  13.720  0.9834 -0.5669  0.9171
13468TIP3   OH261894   1.378   6.569  15.088  0.4982 -0.0741 -0.2923
13468TIP3    H161895   1.374   6.643  15.149 -1.4412 -0.7514  0.4732
13468TIP3    H261896   1.467   6.571  15.054  1.0936  1.4124  1.2145
13469TIP3   OH261897   5.414   5.602   3.875 -0.1454  0.2150 -0.6731
13469TIP3    H161898   5.466   5.596   3.795 -0.5297 -1.6269 -0.8310
13469TIP3    H261899   5.355   5.676   3.860 -0.2504 -0.1375 -2.1461
13470TIP3   OH261900   5.545   1.050  12.840  0.0222 -0.0958 -0.4211
13470TIP3    H161901   5.589   0.993  12.904  0.6630 -0.7321 -1.4047
13470TIP3    H261902   5.603   1.126  12.833  0.3046 -0.3385 -0.7463
13471TIP3   OH261903   2.109   1.277  15.068 -0.1815 -0.2129  0.1478
13471TIP3    H161904   2.062   1.211  15.016  0.7894  0.4868 -1.7324
13471TIP3    H261905   2.192   1.289  15.021  0.3371  1.1777  1.3620
13472TIP3   OH261906   0.155   1.773  12.756 -0.4382  0.3631 -0.0421
13472TIP3    H161907   0.107   1.747  12.678  0.7706 -0.5816 -0.4984
13472TIP3    H261908   0.245   1.743  12.741 -0.6336 -2.0679  2.6886
13473TIP3   OH261909   3.835   4.613   4.990 -0.1487  0.1680 -0.2613
13473TIP3    H161910   3.803   4.623   4.901 -3.0897 -2.2326  0.3527
13473TIP3    H261911   3.797   4.687   5.038 -0.7554  0.0386 -0.5318
13474TIP3   OH261912   2.265   1.698   1.015 -0.2859  0.0384 -0.0813
13474TIP3    H161913   2.230   1.659   1.095  0.3105 -2.2683 -0.8625
13474TIP3    H261914   2.204   1.768   0.993 -1.7937 -0.8679  1.0643
13475TIP3   OH261915   3.378   4.892   5.982  0.6686  0.1658  0.2526
13475TIP3    H161916   3.379   4.825   6.051  1.7016  1.5005  1.6065
13475TIP3    H261917   3.291   4.931   5.988 -0.2969 -1.6243 -1.1921
13476TIP3   OH261918   1.255   4.989  14.561  0.4574 -0.2418 -0.5097
13476TIP3    H161919   1.176   5.040  14.539  0.0695 -0.5028  0.2490
13476TIP3    H261920   1.245   4.908  14.511 -0.7410 -1.1068  1.0084
13477TIP3   OH261921   3.921   0.158   5.708 -0.5719  0.3566 -0.2765
13477TIP3    H161922   3.961   0.203   5.783  0.0706 -0.2047 -0.2657
13477TIP3    H261923   3.859   0.221   5.672  0.2046  1.1955 -0.1828
13478TIP3   OH261924   6.661   5.510   5.064 -0.1095 -0.0882 -0.0820
13478TIP3    H161925   6.674   5.601   5.039  0.3699 -0.8625 -3.0722
13478TIP3    H261926   6.572   5.489   5.034 -0.1665 -0.6571  0.4569
13479TIP3   OH261927   1.628   5.230  16.576  0.3205 -0.5240  0.0149
13479TIP3    H161928   1.625   5.315  16.619 -0.9940 -0.1985 -0.6388
13479TIP3    H261929   1.701   5.236  16.514  0.6573 -0.1161  0.4468
13480TIP3   OH261930   6.270   0.350   2.538 -0.1005  0.2066 -0.3509
13480TIP3    H161931   6.191   0.362   2.484 -0.1796 -0.0398 -0.2914
13480TIP3    H261932   6.336   0.405   2.496 -0.5539  1.1400  0.1276
13481TIP3   OH261933   5.241   1.252   2.628  0.2735 -0.3588 -0.2134
13481TIP3    H161934   5.227   1.308   2.552 -1.1981  0.1905  0.4209
13481TIP3    H261935   5.161   1.261   2.680  0.5630 -2.0040  0.5874
13482TIP3   OH261936   1.160   1.455   4.329  0.3511  0.2663  0.2379
13482TIP3    H161937   1.136   1.446   4.237 -1.6162  1.0263  0.6335
13482TIP3    H261938   1.256   1.461   4.328  0.4536 -1.0274 -1.6175
13483TIP3   OH261939   0.658   1.725   4.042  0.3287 -0.0016 -0.3122
13483TIP3    H161940   0.722   1.679   4.097 -0.1038 -0.2934 -0.0507
13483TIP3    H261941   0.574   1.708   4.084  0.1408  0.8993 -0.2988
13484TIP3   OH261942   2.192   6.735  15.761  0.1498 -0.1861  0.1889
13484TIP3    H161943   2.223   6.727  15.671  0.2679 -0.9214  0.2949
13484TIP3    H261944   2.259   6.788  15.805  0.7438 -0.9169  0.1668
13485TIP3   OH261945   2.411   5.233   2.346 -0.0261  0.0692 -0.1747
13485TIP3    H161946   2.318   5.213   2.345 -0.1659  0.5721  1.2243
13485TIP3    H261947   2.434   5.242   2.254 -1.0481 -1.4146 -0.6243
13486TIP3   OH261948   2.148   2.318   0.385  0.2045 -0.7752 -0.3985
13486TIP3    H161949   2.212   2.361   0.328 -0.0808  0.2665  0.0502
13486TIP3    H261950   2.194   2.240   0.416  0.0975 -1.7915 -2.6223
13487TIP3   OH261951   6.653   1.786  12.182  0.0846  0.0631  0.3727
13487TIP3    H161952   6.594   1.832  12.242 -0.8609 -0.4643 -0.1258
13487TIP3    H261953   6.655   1.696  12.215  2.6069  0.5764  1.8614
13488TIP3   OH261954   5.262   5.741  13.686 -0.0243 -0.0415  0.2009
13488TIP3    H161955   5.354   5.765  13.699 -0.6040  2.6680  0.0215
13488TIP3    H261956   5.216   5.788  13.756 -1.3657 -0.6329 -0.2669
13489TIP3   OH261957   3.859   4.455   4.357  0.3200  0.1963 -0.5948
13489TIP3    H161958   3.892   4.494   4.437  0.3138  0.8375 -0.8955
13489TIP3    H261959   3.764   4.453   4.368  0.1375  2.0421 -1.3185
13490TIP3   OH261960   5.012   0.081  13.227  0.2367  0.7460 -0.0563
13490TIP3    H161961   4.952   0.125  13.167 -0.7592  0.3828  0.6563
13490TIP3    H261962   5.072   0.033  13.170 -1.8061 -1.0978 -0.7948
13491TIP3   OH261963   5.733   4.729  10.997 -0.1666 -0.0569 -0.2141
13491TIP3    H161964   5.716   4.785  11.074 -3.4123  0.9014 -1.4507
13491TIP3    H261965   5.705   4.783  10.923  1.2052 -1.6237 -1.9435
13492TIP3   OH261966   2.421   6.092   3.817  0.3985 -0.2343 -0.3525
13492TIP3    H161967   2.470   6.015   3.786  0.2322  0.3292 -2.1204
13492TIP3    H261968   2.441   6.160   3.753 -1.2653  0.5269 -0.1008
13493TIP3   OH261969   6.417   3.337   2.854 -0.5450  0.0861 -0.5090
13493TIP3    H161970   6.338   3.291   2.828 -0.5458 -0.7060  0.8088
13493TIP3    H261971   6.470   3.271   2.898  0.3946  0.8535 -0.4447
13494TIP3   OH261972   4.717   2.090   0.277 -0.1797  0.4063 -0.1340
13494TIP3    H161973   4.655   2.032   0.321  0.1784  0.0018 -0.1578
13494TIP3    H261974   4.790   2.099   0.338  0.2627 -0.0565 -0.5764
13495TIP3   OH261975   5.943   4.346  16.099 -0.1717  0.5306  0.0258
13495TIP3    H161976   5.885   4.328  16.173  1.1472 -0.3586  0.8929
13495TIP3    H261977   5.916   4.285  16.031  0.3540 -0.6020  0.7908
13496TIP3   OH261978   6.175   2.769   1.835 -0.1748 -0.3673  0.1509
13496TIP3    H161979   6.205   2.858   1.850 -0.8208 -0.3054  1.1457
13496TIP3    H261980   6.172   2.760   1.739  1.0739  0.2604  0.0294
13497TIP3   OH261981   1.450   4.266   6.029 -0.2637  0.3722 -0.1404
13497TIP3    H161982   1.443   4.276   6.124  0.7129  3.1311 -0.2782
13497TIP3    H261983   1.493   4.346   5.999 -0.6353 -0.3627 -2.9455
13498TIP3   OH261984   0.053   0.557   4.995 -0.3320 -0.1268  0.1453
13498TIP3    H161985   0.139   0.578   4.960 -0.7775  0.6071 -0.5488
13498TIP3    H261986   0.008   0.641   5.000 -1.2333 -0.5749 -0.1279
13499TIP3   OH261987   2.036   2.313  14.082 -0.0200  0.3454  0.0824
13499TIP3    H161988   2.094   2.288  14.154  0.5646  0.5511 -0.3135
13499TIP3    H261989   2.010   2.230  14.042  1.6018  0.3075 -0.9843
13500TIP3   OH261990   0.659   3.317  11.866  0.0166 -0.0544  0.0582
13500TIP3    H161991   0.696   3.284  11.784 -1.1157 -1.5300  0.0907
13500TIP3    H261992   0.565   3.324  11.848 -0.2313 -0.3217  1.1823
13501TIP3   OH261993   0.026   4.428  12.533 -0.0955  0.1702 -0.1156
13501TIP3    H161994   0.099   4.485  12.558  0.0569  0.9145 -2.0546
13501TIP3    H261995   0.024   4.361  12.601  2.7524 -0.2051 -0.2520
13502TIP3   OH261996   2.219   3.396  16.477  1.1539 -0.0170 -0.4882
13502TIP3    H161997   2.236   3.487  16.452  0.1259  0.7582  1.4247
13502TIP3    H261998   2.293   3.373  16.534  0.5976  0.1842  0.3248
13503TIP3   OH261999   0.221   0.167  15.579  0.3022  0.0576 -0.0444
13503TIP3    H162000   0.159   0.212  15.522  0.4443  2.5144  1.5609
13503TIP3    H262001   0.168   0.108  15.632 -0.1910 -0.2662 -0.8994
13504TIP3   OH262002   5.171   6.485   5.183  0.2247 -0.2828  0.1534
13504TIP3    H162003   5.084   6.512   5.210 -0.2432 -1.4106 -0.1422
13504TIP3    H262004   5.163   6.391   5.166  1.5638 -0.4667  0.3923
13505TIP3   OH262005   1.101   4.126  11.035  0.2044  0.1731  0.0484
13505TIP3    H162006   1.112   4.064  10.963 -0.6578 -1.1258  0.9923
13505TIP3    H262007   1.191   4.153  11.056  0.4108  1.7122 -2.3987
13506TIP3   OH262008   1.296   4.502   0.248  0.2542 -0.0412 -0.1719
13506TIP3    H162009   1.278   4.438   0.317 -0.1261 -0.5616 -0.7473
13506TIP3    H262010   1.316   4.583   0.295 -4.5185  0.9606  0.6565
13507TIP3   OH262011   6.666   2.814   0.911 -0.7260 -0.4243  0.2789
13507TIP3    H162012   6.726   2.785   0.980 -0.3193  0.9662  0.5322
13507TIP3    H262013   6.716   2.876   0.859 -1.4450 -0.4621 -0.4928
13508TIP3   OH262014   4.206   0.162   1.286 -0.2383 -0.2878 -0.1862
13508TIP3    H162015   4.286   0.110   1.287  0.5718  0.9065 -0.0625
13508TIP3    H262016   4.237   0.252   1.301 -1.6229  0.1661  0.0279
13509TIP3   OH262017   6.342   3.834   5.369  0.6493  0.2378  0.2369
13509TIP3    H162018   6.361   3.761   5.427  0.7229  0.4273  0.4532
13509TIP3    H262019   6.247   3.844   5.372  0.6972  0.5858  0.7423
13510TIP3   OH262020   4.280   2.481   2.876  0.3115 -0.6287  0.1766
13510TIP3    H162021   4.209   2.546   2.876  0.4328 -0.4451 -1.5663
13510TIP3    H262022   4.240   2.402   2.840  0.3760 -1.3269  1.5493
13511TIP3   OH262023   3.278   4.830  10.478 -0.2227  0.4029  0.5137
13511TIP3    H162024   3.363   4.816  10.520 -0.2187 -0.4137  0.2508
13511TIP3    H262025   3.286   4.787  10.393 -0.2540  1.9788 -0.3162
13512TIP3   OH262026   4.709   2.413  16.289  0.0154  0.2167  0.4278
13512TIP3    H162027   4.636   2.358  16.259  0.7861 -0.0532 -1.0684
13512TIP3    H262028   4.786   2.357  16.279  0.6118  1.0255  0.4659
13513TIP3   OH262029   1.115   5.694   1.579 -0.0439 -0.4532  0.2115
13513TIP3    H162030   1.045   5.668   1.518  0.7926  0.6641 -1.2846
13513TIP3    H262031   1.180   5.624   1.572  0.2761 -0.0866 -0.5824
13514TIP3   OH262032   3.256   0.090   3.798  0.3319 -0.0330  0.4037
13514TIP3    H162033   3.322   0.158   3.783 -0.4722  0.7210  0.2345
13514TIP3    H262034   3.173   0.133   3.780 -0.1552 -1.2460 -0.3125
13515TIP3   OH262035   6.085   5.887  14.438  0.3478 -0.1454  0.0705
13515TIP3    H162036   6.059   5.918  14.351  0.6487 -2.9163 -1.1120
13515TIP3    H262037   6.176   5.914  14.446  0.1921  0.5213 -0.2675
13516TIP3   OH262038   1.038   5.177  16.183  0.7196  0.1131  0.3398
13516TIP3    H162039   1.065   5.124  16.258  0.4674 -0.9897 -0.3279
13516TIP3    H262040   0.942   5.171  16.183  0.7460 -0.4184 -0.4347
13517TIP3   OH262041   6.598   0.016  16.309  0.4400 -0.1518  0.8265
13517TIP3    H162042   6.558   0.033  16.395  0.1284 -0.9234  0.8433
13517TIP3    H262043   6.531  -0.032  16.261 -0.6850  2.9523 -1.0403
13518TIP3   OH262044   2.875   3.317  13.483  0.4368  0.5829  0.0264
13518TIP3    H162045   2.869   3.302  13.389 -0.3687 -0.7161  0.2596
13518TIP3    H262046   2.803   3.376  13.503  0.9994  1.3812 -0.2529
13519TIP3   OH262047   5.295   4.651  15.498 -0.0943  0.2220 -0.3781
13519TIP3    H162048   5.281   4.598  15.420  0.6457  0.5686 -0.7486
13519TIP3    H262049   5.351   4.723  15.470 -1.6921  1.6508 -0.0566
13520TIP3   OH262050   5.466   0.219  15.730 -0.5566 -0.3668 -0.1873
13520TIP3    H162051   5.385   0.168  15.728 -0.2893 -0.8245  0.4601
13520TIP3    H262052   5.536   0.155  15.723 -0.2409  0.0450 -0.9361
13521TIP3   OH262053   2.621   4.575   0.426  0.3941  0.2729 -0.2800
13521TIP3    H162054   2.604   4.652   0.372  0.6609  0.2597 -0.3848
13521TIP3    H262055   2.643   4.506   0.363  1.0790  0.3523 -0.1440
13522TIP3   OH262056   5.457   0.080  17.053 -0.2175  0.1865 -0.7726
13522TIP3    H162057   5.527   0.062  17.117 -0.0953  3.1626  0.1028
13522TIP3    H262058   5.504   0.097  16.971 -0.0006  0.6417 -0.5614
13523TIP3   OH262059   5.316   6.306  13.016  0.4780  0.5433  0.2153
13523TIP3    H162060   5.381   6.272  12.955  0.4512  0.7877  0.0445
13523TIP3    H262061   5.340   6.269  13.101 -1.9330 -3.2850 -0.5396
13524TIP3   OH262062   4.321   0.295   1.663  0.1884 -0.3529  0.0417
13524TIP3    H162063   4.330   0.318   1.571  1.2448  0.6282  0.3656
13524TIP3    H262064   4.382   0.353   1.708  0.2644 -1.3588  1.2807
13525TIP3   OH262065   4.883   4.167  10.679  0.9740  0.5877 -0.1215
13525TIP3    H162066   4.842   4.156  10.765 -0.4739  0.2636 -0.8178
13525TIP3    H262067   4.810   4.178  10.619  1.8382 -0.9921 -1.5734
13526TIP3   OH262068   4.112   6.103  12.179 -0.3146  0.3946 -0.1002
13526TIP3    H162069   4.075   6.062  12.102  1.3986  1.5648 -1.6432
13526TIP3    H262070   4.193   6.054  12.196 -1.2643 -0.6329  1.7556
13527TIP3   OH262071   6.136   4.025  17.028  0.0399  0.2173  0.4466
13527TIP3    H162072   6.075   4.080  17.076  0.3360  1.3116 -0.3706
13527TIP3    H262073   6.141   3.944  17.078  0.8818  1.5466  2.6420
13528TIP3   OH262074   3.312   2.068  16.240 -0.4839 -0.4721 -0.0064
13528TIP3    H162075   3.388   2.093  16.186  0.3197 -1.6702  0.5219
13528TIP3    H262076   3.237   2.080  16.182  0.2810 -0.9047 -1.1261
13529TIP3   OH262077   6.042   2.938   4.564 -0.2817  0.8823 -0.0433
13529TIP3    H162078   6.097   2.954   4.641 -1.3800 -3.2440  1.8766
13529TIP3    H262079   6.097   2.883   4.508 -1.5096 -1.3189  0.8081
13530TIP3   OH262080   2.922   2.006  16.309  0.5157  0.3199  0.1539
13530TIP3    H162081   2.868   1.949  16.363  1.1752 -1.3665 -0.8864
13530TIP3    H262082   3.012   1.984  16.333  0.8139  2.3804  1.1461
13531TIP3   OH262083   6.245   4.448   3.074  0.0873 -0.9940  0.2769
13531TIP3    H162084   6.185   4.382   3.110 -0.2998 -0.4018  0.7239
13531TIP3    H262085   6.333   4.412   3.091 -0.1278 -1.6956 -0.0612
13532TIP3   OH262086   0.143   1.255  12.483  0.9212 -0.1192 -0.0146
13532TIP3    H162087   0.174   1.228  12.569  1.5371 -1.2362 -0.5709
13532TIP3    H262088   0.197   1.330  12.460  0.3487  0.5696  0.8129
13533TIP3   OH262089   1.711   1.375  11.643  0.4204  0.5370  0.6843
13533TIP3    H162090   1.693   1.394  11.551  1.9712  1.0340  0.4562
13533TIP3    H262091   1.721   1.460  11.684  2.7702  0.3381  0.6388
13534TIP3   OH262092   4.499   5.003   1.703  0.3422  0.2499  0.4531
13534TIP3    H162093   4.580   5.054   1.707  0.9260 -0.6622  0.2961
13534TIP3    H262094   4.431   5.065   1.730  0.9878  1.2327 -0.1231
13535TIP3   OH262095   0.743   3.375  12.833 -0.2228  0.2228  0.0262
13535TIP3    H162096   0.766   3.367  12.926 -0.5970  1.0035  0.1893
13535TIP3    H262097   0.820   3.341  12.787 -0.3350 -0.8958  0.6156
13536TIP3   OH262098   5.338   0.387  13.515 -0.0111  0.0614  0.2330
13536TIP3    H162099   5.339   0.477  13.480 -1.3366  0.8416  2.0309
13536TIP3    H262100   5.267   0.344  13.468  0.2593  0.1026 -0.2273
13537TIP3   OH262101   3.007   4.528  13.742  0.0175  0.4234 -0.4887
13537TIP3    H162102   2.919   4.552  13.713  0.1181  0.1793 -1.0065
13537TIP3    H262103   3.001   4.523  13.838 -0.5818  0.1939 -0.5397
13538TIP3   OH262104   5.744   2.758  17.063 -0.0621  0.0338  0.1450
13538TIP3    H162105   5.766   2.836  17.013 -0.1802  0.4761  0.7629
13538TIP3    H262106   5.803   2.690  17.030 -0.6515  0.1064 -1.0996
13539TIP3   OH262107   3.628   4.786  16.353  0.1977  0.1971  0.3558
13539TIP3    H162108   3.718   4.820  16.352 -0.4011  1.8421 -0.7119
13539TIP3    H262109   3.584   4.837  16.420 -0.3963  0.7156 -0.4109
13540TIP3   OH262110   1.734   3.172  10.346  0.1619 -0.6186 -0.7031
13540TIP3    H162111   1.651   3.170  10.300 -1.5352 -0.9566  2.1517
13540TIP3    H262112   1.789   3.230  10.293 -2.8124  1.9660 -1.2878
13541TIP3   OH262113   2.978   3.797   0.869 -0.4052 -0.3123 -0.1195
13541TIP3    H162114   2.956   3.716   0.824  0.7225  0.2189 -1.7421
13541TIP3    H262115   2.896   3.825   0.911 -1.4547 -1.0088 -1.6147
13542TIP3   OH262116   6.683   5.016  15.408  0.4325  0.9727  0.0735
13542TIP3    H162117   6.740   5.032  15.333  1.2388 -0.3464  0.3806
13542TIP3    H262118   6.594   5.018  15.372  0.7913  0.7695 -0.8412
13543TIP3   OH262119   1.549   3.265   4.301  0.1650  0.2970 -0.0983
13543TIP3    H162120   1.591   3.214   4.370 -0.4675  2.6482  2.1823
13543TIP3    H262121   1.619   3.281   4.238  1.2208 -0.4815  0.8309
13544TIP3   OH262122   3.328   1.916   4.582  0.4116 -0.4733 -0.1185
13544TIP3    H162123   3.358   2.004   4.559 -1.9667  0.6961  0.8781
13544TIP3    H262124   3.323   1.869   4.499 -2.3638  1.7655 -1.3662
13545TIP3   OH262125   0.825   3.043  13.448  0.1617  0.6853 -0.2186
13545TIP3    H162126   0.807   3.109  13.515  0.3193  1.3563 -0.8247
13545TIP3    H262127   0.764   2.972  13.467 -0.9661  1.5904 -0.3723
13546TIP3   OH262128   6.686   0.628   3.415  0.4677  0.2170  0.1066
13546TIP3    H162129   6.755   0.587   3.467  1.1968  1.1488 -0.0864
13546TIP3    H262130   6.627   0.667   3.480 -0.2506 -1.1271  0.2890
13547TIP3   OH262131   3.090   5.554   0.098 -0.2171  0.9059  0.2081
13547TIP3    H162132   3.179   5.585   0.116 -0.0745  1.4280 -1.2519
13547TIP3    H262133   3.099   5.458   0.096  0.3323  0.9556 -0.0240
13548TIP3   OH262134   4.287   1.904   5.046 -0.3419  0.2407 -0.5744
13548TIP3    H162135   4.340   1.978   5.077 -0.1241 -0.6251  1.2787
13548TIP3    H262136   4.342   1.827   5.062 -0.9435 -0.4128 -1.5681
13549TIP3   OH262137   6.630   3.078  12.701 -0.5265  0.0665 -0.1564
13549TIP3    H162138   6.721   3.057  12.680 -0.2219  0.7362  0.4666
13549TIP3    H262139   6.591   2.994  12.724 -1.0203 -0.8508 -3.7226
13550TIP3   OH262140   4.818   4.532   5.093 -0.1960 -0.7830 -0.0511
13550TIP3    H162141   4.729   4.565   5.108  0.3044  0.6425 -0.0546
13550TIP3    H262142   4.866   4.608   5.061  1.0495 -1.5250  0.0096
13551TIP3   OH262143   5.267   2.761   1.904  1.0088  0.4451  0.1165
13551TIP3    H162144   5.205   2.698   1.866  0.4535  0.7886  0.4329
13551TIP3    H262145   5.212   2.834   1.934  1.4495  0.2633  1.4366
13552TIP3   OH262146   2.283   4.856  10.911  0.2354 -0.2172 -0.5893
13552TIP3    H162147   2.362   4.804  10.892 -1.4258 -2.2906 -2.3263
13552TIP3    H262148   2.244   4.872  10.826 -0.6860  1.7462  0.1539
13553TIP3   OH262149   2.048   6.454   1.045  0.0972 -0.3652 -0.1296
13553TIP3    H162150   1.962   6.493   1.028  0.4250  0.4624  0.0755
13553TIP3    H262151   2.062   6.394   0.971 -0.6452 -0.4929 -0.1721
13554TIP3   OH262152   1.605   3.591  12.934 -0.4058 -0.1400 -0.1577
13554TIP3    H162153   1.625   3.518  12.993 -1.5930 -0.3809 -0.0195
13554TIP3    H262154   1.602   3.550  12.847  2.7960  0.4621 -0.6850
13555TIP3   OH262155   0.250   1.730   6.673  0.1833 -0.3670 -0.1704
13555TIP3    H162156   0.194   1.693   6.742  0.1298  0.0276  0.0007
13555TIP3    H262157   0.290   1.654   6.631  0.5129 -0.5956  0.5433
13556TIP3   OH262158   4.160   5.789   2.569 -0.8292  0.0070 -0.1296
13556TIP3    H162159   4.085   5.787   2.510 -0.5847 -1.5062 -0.4199
13556TIP3    H262160   4.208   5.868   2.543 -0.3574 -0.9660 -2.4748
13557TIP3   OH262161   0.664   0.002   0.252  0.5609 -0.0984 -0.0943
13557TIP3    H162162   0.585   0.042   0.215  0.3454 -0.8237 -0.4252
13557TIP3    H262163   0.736   0.057   0.219  0.2243  0.4048 -0.0049
13558TIP3   OH262164   2.085   0.145   1.428 -0.1838 -0.1468 -0.2107
13558TIP3    H162165   2.010   0.158   1.370 -0.1553  0.2331 -0.1619
13558TIP3    H262166   2.054   0.175   1.514 -0.5879 -1.7028  0.2195
13559TIP3   OH262167   6.774   4.705   4.113 -0.2675  0.3878 -0.1379
13559TIP3    H162168   6.738   4.663   4.190 -1.1577  1.4915  0.0752
13559TIP3    H262169   6.844   4.761   4.147 -0.0156  0.1486 -0.2556
13560TIP3   OH262170   0.543   5.279   1.714  0.2092  0.4435 -0.4774
13560TIP3    H162171   0.624   5.239   1.746  0.7353 -0.2361 -2.5336
13560TIP3    H262172   0.474   5.228   1.756  0.7004  2.0037  2.5543
13561TIP3   OH262173   3.666   6.676   5.168  0.0188 -0.6959  0.1227
13561TIP3    H162174   3.714   6.725   5.234  0.8471 -0.6031 -0.5369
13561TIP3    H262175   3.588   6.730   5.151  0.3097 -0.2198  0.2839
13562TIP3   OH262176   5.016   1.284  13.641 -0.0102 -0.0444  0.0425
13562TIP3    H162177   4.928   1.316  13.622 -0.2736 -0.3481  0.7179
13562TIP3    H262178   5.001   1.198  13.681  0.6050 -0.2044 -0.0707
13563TIP3   OH262179   1.876   3.979   6.801 -0.4701  0.1901  0.1957
13563TIP3    H162180   1.946   3.971   6.736  0.7164  0.1223  1.4368
13563TIP3    H262181   1.861   3.889   6.831 -0.7493  0.2710  0.3050
13564TIP3   OH262182   6.681   0.608   2.638 -0.0709 -0.3176 -0.0008
13564TIP3    H162183   6.679   0.666   2.715 -0.5070 -0.0839 -0.1793
13564TIP3    H262184   6.687   0.520   2.674  1.6742 -0.1320  0.2583
13565TIP3   OH262185   6.198   4.181   5.768 -0.4230  0.2590 -0.0958
13565TIP3    H162186   6.175   4.148   5.855 -0.5965 -0.2678 -0.3409
13565TIP3    H262187   6.256   4.114   5.731  0.5550  0.9979  0.0416
13566TIP3   OH262188   2.112   6.130   3.792 -0.2740  0.0747 -0.3761
13566TIP3    H162189   2.062   6.208   3.766 -0.2497  0.0393 -0.5287
13566TIP3    H262190   2.198   6.143   3.753 -0.1319  0.1827 -0.0291
13567TIP3   OH262191   3.318   1.758  13.568  0.0571 -0.0404 -0.3390
13567TIP3    H162192   3.317   1.722  13.657  1.3266  0.4487 -0.0938
13567TIP3    H262193   3.302   1.683  13.511 -1.8034 -0.1980  0.3127
13568TIP3   OH262194   0.056   3.724   4.582  0.2278 -0.1484 -0.4542
13568TIP3    H162195   0.066   3.649   4.524  1.3693  0.4087 -1.0093
13568TIP3    H262196   0.094   3.696   4.665 -2.5464 -1.4030  0.5314
13569TIP3   OH262197   2.612   5.666   1.732  0.3357  0.4613 -0.4071
13569TIP3    H162198   2.537   5.717   1.703  0.3131 -0.6047 -2.3501
13569TIP3    H262199   2.686   5.727   1.726  0.3176  0.3242 -2.7582
13570TIP3   OH262200   4.802   0.532   5.048 -0.3692  0.3997 -0.0958
13570TIP3    H162201   4.786   0.551   5.140  0.3722  0.2834  0.0650
13570TIP3    H262202   4.765   0.607   5.001 -2.7285 -0.5501  0.1197
13571TIP3   OH262203   0.619   5.315   2.736  0.2987  0.1763 -0.0993
13571TIP3    H162204   0.590   5.406   2.737  0.9710  0.4112 -1.0065
13571TIP3    H262205   0.679   5.308   2.810 -0.1118  0.3399  0.2556
13572TIP3   OH262206   6.711   2.338  14.571 -0.0956 -0.4868  0.6267
13572TIP3    H162207   6.699   2.282  14.494 -0.4424 -1.2562  1.2232
13572TIP3    H262208   6.643   2.405  14.563  2.3527  1.9765 -1.8509
13573TIP3   OH262209   6.477   4.460   2.125 -0.1554 -0.4647 -0.0047
13573TIP3    H162210   6.523   4.460   2.041  1.2002 -0.3111  0.7158
13573TIP3    H262211   6.479   4.551   2.154 -0.9033 -0.4571  0.0598
13574TIP3   OH262212   6.642   0.657  14.066 -0.3418  0.0511 -0.1930
13574TIP3    H162213   6.580   0.654  14.138 -1.1758 -0.2240 -0.9144
13574TIP3    H262214   6.725   0.628  14.105 -1.0210 -1.1615  0.4181
13575TIP3   OH262215   5.962   6.659  14.737  0.4947  0.3286  0.5791
13575TIP3    H162216   5.963   6.669  14.832  1.3677  2.1165  0.4215
13575TIP3    H262217   6.047   6.618  14.716 -0.2222 -1.2539  0.6442
13576TIP3   OH262218   5.242   1.021  17.026 -0.2525 -0.2553 -0.1364
13576TIP3    H162219   5.319   0.970  17.053  1.7258  2.8544  0.7534
13576TIP3    H262220   5.235   1.006  16.932  1.2651 -0.9018 -0.1882
13577TIP3   OH262221   0.972   2.691  16.808  0.2266 -0.1995  0.1691
13577TIP3    H162222   0.899   2.693  16.746 -0.3503 -1.4774  0.7432
13577TIP3    H262223   0.981   2.598  16.830  0.6574  0.1701  1.6873
13578TIP3   OH262224   1.581   5.430   4.558  0.5779 -0.4185  0.3314
13578TIP3    H162225   1.514   5.368   4.531 -1.3902  0.1897  3.3237
13578TIP3    H262226   1.635   5.382   4.621  0.4306  0.2431  0.9777
13579TIP3   OH262227   5.990   3.426   3.828  0.8090 -0.2251 -0.9955
13579TIP3    H162228   6.072   3.414   3.779 -0.3134 -0.8871 -2.8128
13579TIP3    H262229   5.933   3.474   3.768  0.3792  1.7261  0.8739
13580TIP3   OH262230   0.708   5.728   0.703  0.0339 -0.0572 -0.2752
13580TIP3    H162231   0.742   5.702   0.617  1.1278 -0.7575  0.3610
13580TIP3    H262232   0.673   5.647   0.740 -0.3877  0.2355 -0.0218
13581TIP3   OH262233   6.524   6.375  12.351  0.1712  0.9651  0.0319
13581TIP3    H162234   6.595   6.422  12.395 -0.0418  0.3142  1.1318
13581TIP3    H262235   6.453   6.373  12.416 -0.1381 -0.0725 -0.3118
13582TIP3   OH262236   1.775   4.372   0.199 -0.5849  0.2921 -0.1870
13582TIP3    H162237   1.739   4.452   0.162  0.2521  0.4318 -0.7261
13582TIP3    H262238   1.799   4.394   0.289  1.2540  1.1555 -0.8612
13583TIP3   OH262239   2.806   3.969   1.259 -0.2566  0.4541 -0.2447
13583TIP3    H162240   2.814   3.979   1.354 -0.3603  1.5536 -0.3338
13583TIP3    H262241   2.884   3.921   1.233 -0.5217 -0.3873  0.4655
13584TIP3   OH262242   3.214   6.549   3.960  0.2565  0.7253  0.1798
13584TIP3    H162243   3.207   6.486   4.032 -1.9416 -0.5255 -1.0405
13584TIP3    H262244   3.124   6.568   3.934  0.9511  2.0380 -1.5066
13585TIP3   OH262245   5.081   0.213  12.053 -0.4194  0.0138 -0.6694
13585TIP3    H162246   5.153   0.272  12.032 -1.3535  1.0258 -1.0750
13585TIP3    H262247   5.119   0.125  12.044  0.5646  0.5132 -1.5725
13586TIP3   OH262248   0.213   5.878   2.802 -0.1448  0.6282 -0.6146
13586TIP3    H162249   0.131   5.834   2.782  0.3537 -0.7661  0.2624
13586TIP3    H262250   0.192   5.936   2.875 -0.5176  0.8285 -0.8843
13587TIP3   OH262251   1.485   3.629   4.769 -0.1293  0.8541  0.1540
13587TIP3    H162252   1.572   3.662   4.746 -0.5314 -0.0361 -3.2649
13587TIP3    H262253   1.425   3.701   4.748 -0.3728  0.7004  0.3167
13588TIP3   OH262254   4.391   3.032  14.682 -0.4997 -0.1493 -0.1701
13588TIP3    H162255   4.308   3.066  14.715  0.4653  0.4281  1.8216
13588TIP3    H262256   4.369   2.950  14.638 -2.4023  1.1541 -1.8117
13589TIP3   OH262257   1.336   3.505   3.239 -0.6283  0.0873  0.6668
13589TIP3    H162258   1.430   3.514   3.225 -1.0138  1.4620 -1.4597
13589TIP3    H262259   1.300   3.484   3.153 -2.6795  3.9343  0.3354
13590TIP3   OH262260   1.371   2.353  15.354  0.0906 -0.5433  0.4377
13590TIP3    H162261   1.462   2.330  15.333  0.4287  2.4635 -2.0807
13590TIP3    H262262   1.319   2.284  15.312  1.1420 -2.0531  1.5290
13591TIP3   OH262263   0.593   5.928   1.051 -0.5205 -0.3327  0.4772
13591TIP3    H162264   0.601   5.836   1.077  0.8288 -0.2222  0.5346
13591TIP3    H262265   0.510   5.933   1.004 -0.5334 -1.6148  0.3363
13592TIP3   OH262266   2.572   4.311   0.972 -0.3027 -0.0275 -0.3900
13592TIP3    H162267   2.518   4.270   1.040 -0.7355 -0.8877 -1.2269
13592TIP3    H262268   2.662   4.288   0.995 -0.4222 -0.0127  0.0909
13593TIP3   OH262269   6.496   1.023   0.630 -0.5185 -0.1771 -0.2756
13593TIP3    H162270   6.526   0.933   0.633  0.1069  0.0501  0.6196
13593TIP3    H262271   6.425   1.027   0.694  0.2555  0.2338  0.5825
13594TIP3   OH262272   5.742   5.042  16.657  0.5550  0.3170 -0.4217
13594TIP3    H162273   5.751   5.137  16.653  0.4518  0.2837 -2.3860
13594TIP3    H262274   5.647   5.026  16.654  0.6083  0.1308 -1.2135
13595TIP3   OH262275   3.523   5.763  17.005  0.1386 -0.2332  0.1917
13595TIP3    H162276   3.553   5.848  16.973  0.2472 -0.2241  0.3149
13595TIP3    H262277   3.446   5.743  16.952  0.6339 -0.4800 -0.4441
13596TIP3   OH262278   2.414   2.584   2.205  0.3589 -0.3761  0.2794
13596TIP3    H162279   2.396   2.634   2.284 -0.8662 -1.0405  0.4494
13596TIP3    H262280   2.458   2.646   2.147  0.5861  0.3330  1.1974
13597TIP3   OH262281   0.192   2.446  15.299  0.1008 -0.0796  0.5875
13597TIP3    H162282   0.248   2.471  15.373 -1.5633 -2.1137  2.6675
13597TIP3    H262283   0.236   2.370  15.260  0.7366  0.7084 -0.2759
13598TIP3   OH262284   2.294   0.326   2.975 -0.2904  0.5285 -0.7840
13598TIP3    H162285   2.290   0.265   3.049 -2.6526 -0.8281 -1.9170
13598TIP3    H262286   2.304   0.270   2.898  2.4154  1.9255 -1.5794
13599TIP3   OH262287   4.168   4.205   4.424 -0.3515 -0.2292  0.0550
13599TIP3    H162288   4.159   4.286   4.373 -1.6426  0.5802  1.5045
13599TIP3    H262289   4.256   4.211   4.462  0.0277 -0.1037 -0.8077
13600TIP3   OH262290   4.451   0.800  11.078 -0.6087  0.1589 -0.0521
13600TIP3    H162291   4.499   0.870  11.120  0.5525 -1.2447  1.0457
13600TIP3    H262292   4.365   0.800  11.120 -0.5358  0.7454  0.0988
13601TIP3   OH262293   5.530   0.475  14.685  0.0719 -0.0226  0.6718
13601TIP3    H162294   5.471   0.491  14.612 -0.7541 -0.7412  1.1683
13601TIP3    H262295   5.553   0.562  14.717  0.9377  0.3265 -0.8071
13602TIP3   OH262296   6.692   5.300   5.400  0.2189  0.3708  0.2165
13602TIP3    H162297   6.718   5.321   5.489 -0.1287  1.4050  0.0867
13602TIP3    H262298   6.720   5.209   5.388  2.2574  0.8770  0.6514
13603TIP3   OH262299   3.403   0.835  12.678 -0.0394  0.5792  0.0568
13603TIP3    H162300   3.453   0.914  12.658  0.6249  0.0232 -0.5765
13603TIP3    H262301   3.340   0.861  12.745  1.6815  1.1026  1.5446
13604TIP3   OH262302   5.976   1.471   1.161 -0.0716  0.2753 -0.1845
13604TIP3    H162303   5.896   1.465   1.108  0.4899 -1.3050 -0.9182
13604TIP3    H262304   5.944   1.482   1.251 -1.0941  0.3828 -0.5408
13605TIP3   OH262305   0.554   3.027  12.504  0.2186  0.3052  0.1161
13605TIP3    H162306   0.530   3.120  12.507  0.2832  0.3110  0.4846
13605TIP3    H262307   0.534   3.000  12.414 -2.8781 -0.1629  0.8220
13606TIP3   OH262308   4.741   1.272   1.669  0.0426 -0.1738 -0.0369
13606TIP3    H162309   4.720   1.184   1.701 -0.3660 -0.0926 -0.0743
13606TIP3    H262310   4.666   1.326   1.696  0.6527  0.3366  0.6847
13607TIP3   OH262311   5.507   6.139   1.928 -0.0054  0.5820 -0.3272
13607TIP3    H162312   5.549   6.097   1.854  0.8157  1.3648 -0.3331
13607TIP3    H262313   5.577   6.146   1.994 -0.4684  0.7560  0.1534
13608TIP3   OH262314   5.355   1.662  16.701 -0.2155  0.7920 -0.0137
13608TIP3    H162315   5.298   1.720  16.753  0.1730  2.0076 -0.8858
13608TIP3    H262316   5.314   1.658  16.615 -0.0925 -0.0308 -0.0389
13609TIP3   OH262317   5.011   2.232  15.484  0.2529  0.6641  0.1532
13609TIP3    H162318   4.966   2.215  15.401 -1.3513  1.7861  0.7395
13609TIP3    H262319   5.101   2.252  15.459 -0.7248  3.4227 -1.6122
13610TIP3   OH262320   4.881   2.734  15.099 -0.9301  0.5878  0.3880
13610TIP3    H162321   4.907   2.827  15.097 -0.9734  0.5973 -0.7711
13610TIP3    H262322   4.788   2.735  15.077 -1.2680  0.3544  1.7508
13611TIP3   OH262323   2.473   5.169  11.272 -0.4076  0.4167  0.0753
13611TIP3    H162324   2.543   5.208  11.324 -0.0296  0.9249 -0.8005
13611TIP3    H262325   2.392   5.203  11.311 -0.2231 -0.5882  1.4335
13612TIP3   OH262326   5.405   0.150  12.850  0.2715  0.3463  0.1996
13612TIP3    H162327   5.443   0.235  12.828 -0.9947  1.0731  0.7178
13612TIP3    H262328   5.480   0.090  12.851  1.4500  1.7540  1.3765
13613TIP3   OH262329   3.766   6.069  15.543 -0.1598  0.5790  0.3672
13613TIP3    H162330   3.734   6.017  15.617  0.7141  0.5568  0.7348
13613TIP3    H262331   3.701   6.139  15.533 -0.4578  0.3863  0.9374
13614TIP3   OH262332   4.480   4.586  11.183  0.1355 -0.2075  0.0383
13614TIP3    H162333   4.420   4.524  11.224 -0.4832  0.5623  0.3516
13614TIP3    H262334   4.436   4.671  11.195  0.3783  0.1422 -1.4267
13615TIP3   OH262335   2.745   3.826   1.537  0.1470 -0.4249 -0.2682
13615TIP3    H162336   2.784   3.786   1.459  0.8617 -1.4821  0.6107
13615TIP3    H262337   2.652   3.805   1.531  0.3584 -1.3765 -0.3331
13616TIP3   OH262338   5.652   4.077  15.442 -0.1028 -0.6817  0.0449
13616TIP3    H162339   5.608   4.092  15.358 -0.6703 -1.7602  0.1323
13616TIP3    H262340   5.734   4.127  15.435 -0.2235 -0.6128 -1.0858
13617TIP3   OH262341   5.687   2.842  15.344 -0.2089 -0.6977 -0.0278
13617TIP3    H162342   5.615   2.903  15.325  0.7615  0.6406  0.4637
13617TIP3    H262343   5.697   2.791  15.263 -0.1693  0.7231 -0.9587
13618TIP3   OH262344   3.317   5.477  10.431 -0.0949  0.6843 -0.6368
13618TIP3    H162345   3.321   5.443  10.341 -0.1845  1.5491 -0.9735
13618TIP3    H262346   3.408   5.496  10.454 -0.1691  1.3495 -0.8904
13619TIP3   OH262347   5.827   1.863  12.309  0.7152 -0.1846 -0.2382
13619TIP3    H162348   5.820   1.860  12.214  1.0646 -1.3574 -0.2452
13619TIP3    H262349   5.921   1.858  12.327  0.6678  0.2939  0.1613
13620TIP3   OH262350   1.442   0.879  13.918 -0.1218 -0.0442  0.0423
13620TIP3    H162351   1.489   0.879  13.835  1.9299 -0.4731  1.1361
13620TIP3    H262352   1.452   0.968  13.951  0.7276 -0.3616  0.6797
13621TIP3   OH262353   6.368   3.904  16.498 -0.0676 -0.2930 -0.2539
13621TIP3    H162354   6.329   3.929  16.582  0.4948  3.2692 -0.9080
13621TIP3    H262355   6.293   3.883  16.442 -0.6634  0.3246  0.2934
13622TIP3   OH262356   4.760   4.347   2.369  0.2406  0.0673  0.2926
13622TIP3    H162357   4.829   4.345   2.303  1.9928  0.2853  2.0409
13622TIP3    H262358   4.706   4.423   2.346  1.5825  0.9065 -0.1446
13623TIP3   OH262359   4.153   1.807   2.502  0.2266  0.2535  0.3362
13623TIP3    H162360   4.072   1.761   2.479  1.0017 -0.7861 -0.3924
13623TIP3    H262361   4.133   1.851   2.585 -0.7571 -0.8285  0.6877
13624TIP3   OH262362   3.155   5.864   6.116  0.0837 -0.1832  0.6219
13624TIP3    H162363   3.124   5.928   6.052  0.0595 -1.9556 -1.2234
13624TIP3    H262364   3.095   5.874   6.191  0.6828  2.5716  0.8263
13625TIP3   OH262365   0.835   2.415   5.632 -0.2528  0.1245 -0.3244
13625TIP3    H162366   0.873   2.430   5.545  1.1182  1.2600  0.4200
13625TIP3    H262367   0.746   2.448   5.625  0.7712  3.2269 -0.5235
13626TIP3   OH262368   2.309   3.655  15.274  0.1103  0.0004 -0.4033
13626TIP3    H162369   2.262   3.613  15.202  0.9397 -0.0133 -0.9502
13626TIP3    H262370   2.382   3.700  15.231 -0.6248  1.8343  0.1643
13627TIP3   OH262371   6.796   3.455   5.158  0.4132  0.0407 -0.6321
13627TIP3    H162372   6.744   3.411   5.225  0.9738  1.4341  0.8149
13627TIP3    H262373   6.802   3.393   5.086  0.2104 -1.7622  0.8320
13628TIP3   OH262374   3.259   2.221  11.552  0.4603  0.0900  0.3181
13628TIP3    H162375   3.262   2.293  11.615 -0.6056  0.6213 -0.2184
13628TIP3    H262376   3.249   2.142  11.605  0.2443  0.4720  0.8455
13629TIP3   OH262377   0.083   1.625   3.723 -0.1080  0.7748  0.0283
13629TIP3    H162378  -0.009   1.632   3.699  0.3845  3.0204 -1.4226
13629TIP3    H262379   0.130   1.620   3.640  1.1902  1.2746  0.7061
13630TIP3   OH262380   5.503   0.457  15.845  0.1041 -0.2596  0.1609
13630TIP3    H162381   5.514   0.372  15.803  0.6235  0.1382 -0.5182
13630TIP3    H262382   5.514   0.521  15.775  3.4527  0.5434  1.2460
13631TIP3   OH262383   1.113   3.345   1.406  0.2263  0.2452 -0.3359
13631TIP3    H162384   1.047   3.296   1.456 -0.1135  1.3431  0.3374
13631TIP3    H262385   1.092   3.328   1.315  1.2359 -2.3243 -0.1759
13632TIP3   OH262386   5.162   5.750  13.038 -0.0474 -0.9072  0.3408
13632TIP3    H162387   5.084   5.771  12.988 -0.4452  0.7895  1.5959
13632TIP3    H262388   5.191   5.833  13.074  1.9813 -1.6100  0.4374
13633TIP3   OH262389   3.247   2.439   0.475 -0.1160 -0.4147  0.1366
13633TIP3    H162390   3.177   2.491   0.435  0.3875  0.3041  0.1719
13633TIP3    H262391   3.308   2.504   0.509  0.7206 -1.0412 -0.1497
13634TIP3   OH262392   2.473   6.364  14.078 -0.4344  0.5146  0.0058
13634TIP3    H162393   2.563   6.361  14.046 -0.2848  1.0233  0.3630
13634TIP3    H262394   2.421   6.329  14.006 -0.0845  1.4201 -0.7090
13635TIP3   OH262395   1.903   2.716  13.590 -0.1799  0.2459  0.0222
13635TIP3    H162396   1.993   2.686  13.606 -0.4783 -0.4063  0.5012
13635TIP3    H262397   1.885   2.776  13.663 -0.3679 -0.1494  0.3043
13636TIP3   OH262398   1.838   3.887  15.890 -0.2399 -0.2672  0.5659
13636TIP3    H162399   1.779   3.917  15.959 -0.6537  0.5945 -0.1452
13636TIP3    H262400   1.780   3.851  15.823  0.1457 -0.8984  0.5693
13637TIP3   OH262401   2.369   4.830   3.236 -0.1569  0.5421  0.2700
13637TIP3    H162402   2.297   4.768   3.244  1.4684 -1.3717  1.0470
13637TIP3    H262403   2.439   4.781   3.194  0.5695  2.4953 -0.9560
13638TIP3   OH262404   4.599   3.805  12.483 -0.5476  0.1399 -0.1531
13638TIP3    H162405   4.666   3.821  12.550 -1.6749 -1.5390  1.4586
13638TIP3    H262406   4.562   3.892  12.466 -0.2903  0.6092  1.4766
13639TIP3   OH262407   6.779   1.297  12.308  0.1058 -0.2414 -0.2471
13639TIP3    H162408   6.729   1.372  12.339 -0.4485 -0.3810 -0.7813
13639TIP3    H262409   6.860   1.299  12.360 -0.1914  0.3307  0.2092
13640TIP3   OH262410   2.863   6.661  16.235  0.5928 -0.4219 -0.4265
13640TIP3    H162411   2.954   6.690  16.237  1.2046 -2.1719 -0.9663
13640TIP3    H262412   2.868   6.569  16.207 -1.1667 -1.1887  1.4948
13641TIP3   OH262413   2.019   2.595  12.950 -0.3054  0.1485 -0.1566
13641TIP3    H162414   2.040   2.688  12.948  4.2831 -0.6428  0.1661
13641TIP3    H262415   2.016   2.569  12.858 -1.5291  0.5221 -0.2453
13642TIP3   OH262416   5.013   0.588  16.346  0.6397 -0.1435 -0.0474
13642TIP3    H162417   4.947   0.623  16.287  0.1637  1.3493  1.2975
13642TIP3    H262418   5.085   0.562  16.289 -0.7473 -1.0442 -1.4747
13643TIP3   OH262419   3.806   3.551  16.459 -0.2722  0.6635  0.5363
13643TIP3    H162420   3.774   3.583  16.375 -1.0993 -0.2379  0.4877
13643TIP3    H262421   3.897   3.526  16.443  0.0774  1.9975  0.3289
13644TIP3   OH262422   6.509   4.185  14.528  0.6549  0.0369  0.3453
13644TIP3    H162423   6.573   4.124  14.566 -0.4694 -1.6939 -0.4396
13644TIP3    H262424   6.478   4.236  14.603  1.7453 -0.2160  0.9989
13645TIP3   OH262425   3.322   2.795  15.311  0.0400  0.8247  0.0016
13645TIP3    H162426   3.334   2.856  15.238  1.1572 -0.2973 -0.7827
13645TIP3    H262427   3.289   2.715  15.271  1.8343 -0.2200  0.5206
13646TIP3   OH262428   0.822   5.192   1.754 -0.0445  0.6586  0.5097
13646TIP3    H162429   0.828   5.165   1.846 -3.0876  0.3430  0.7192
13646TIP3    H262430   0.859   5.280   1.752  1.7485 -0.0165  1.6276
13647TIP3   OH262431   2.451   1.091   5.512  0.2603 -0.2467 -0.3360
13647TIP3    H162432   2.405   1.110   5.431 -0.5352 -0.4598  0.0540
13647TIP3    H262433   2.383   1.064   5.573  0.7995  0.2754  0.5230
13648TIP3   OH262434   0.329   4.868  16.028 -0.0122 -0.2541 -0.0458
13648TIP3    H162435   0.342   4.931  16.099 -0.1586 -0.8780  0.5510
13648TIP3    H262436   0.234   4.866  16.014 -0.0819 -0.8707  0.4480
13649TIP3   OH262437   6.556   6.695  16.798 -0.8012 -0.2828  0.0437
13649TIP3    H162438   6.619   6.623  16.794 -0.5735 -0.0540 -0.6653
13649TIP3    H262439   6.606   6.769  16.834 -0.2125  0.3282 -1.9044
13650TIP3   OH262440   2.609   4.482  11.056  0.1061  0.2229  0.3578
13650TIP3    H162441   2.611   4.505  10.963  0.2445 -0.8065  0.0897
13650TIP3    H262442   2.695   4.442  11.073  0.3516  1.0480  1.1060
13651TIP3   OH262443   2.803   5.330   0.100 -0.3118  0.2485 -0.2043
13651TIP3    H162444   2.795   5.236   0.080 -3.6562  0.2705  0.5326
13651TIP3    H262445   2.888   5.337   0.144 -0.5959 -2.7484  1.0736
13652TIP3   OH262446   0.137   3.788  13.134 -0.7285  0.0774  0.0499
13652TIP3    H162447   0.134   3.736  13.054 -1.7121  2.7695 -1.8220
13652TIP3    H262448   0.070   3.749  13.190  0.1787 -2.0488 -0.2383
13653TIP3   OH262449   1.165   3.316   0.583  0.0878  0.4103  0.7489
13653TIP3    H162450   1.207   3.304   0.497 -1.3641  1.8149 -0.2414
13653TIP3    H262451   1.178   3.234   0.629  0.0300 -0.7817 -1.2459
13654TIP3   OH262452   5.590   5.775  15.923  0.0273  0.4681 -0.3679
13654TIP3    H162453   5.512   5.759  15.977  0.5457  1.4079  0.7122
13654TIP3    H262454   5.619   5.688  15.896 -0.9646  0.0573 -0.1569
13655TIP3   OH262455   2.504   3.248   5.418  0.0790  0.5804  0.2316
13655TIP3    H162456   2.483   3.167   5.372 -0.7728  1.7101 -1.4864
13655TIP3    H262457   2.420   3.279   5.452  0.5688  0.2153  1.8307
13656TIP3   OH262458   3.871   4.627  14.666 -0.2840  0.4092  0.3003
13656TIP3    H162459   3.847   4.700  14.723 -1.4821  0.0202  0.3340
13656TIP3    H262460   3.848   4.656  14.578  1.9970  1.1906 -0.1061
13657TIP3   OH262461   5.730   1.437   2.705 -0.4471  0.0339 -0.5418
13657TIP3    H162462   5.709   1.428   2.612 -0.5558 -0.8534 -0.4427
13657TIP3    H262463   5.789   1.364   2.724 -1.1134 -0.3173  0.2794
13658TIP3   OH262464   3.390   1.114   1.575 -0.2831 -0.3652 -0.1554
13658TIP3    H162465   3.477   1.105   1.536 -0.7090 -3.1937 -0.7268
13658TIP3    H262466   3.399   1.076   1.663 -1.2778 -2.6741 -0.9550
13659TIP3   OH262467   5.525   2.417   5.851  0.2576 -0.1689 -0.7000
13659TIP3    H162468   5.573   2.463   5.783  1.6662 -3.3150 -2.0519
13659TIP3    H262469   5.593   2.374   5.904 -0.9201 -1.4935 -0.1810
13660TIP3   OH262470   2.630   0.453  13.860 -0.1167 -0.0148  0.6929
13660TIP3    H162471   2.654   0.473  13.950  1.4817  3.0395 -0.2836
13660TIP3    H262472   2.667   0.524  13.809 -0.7584 -1.7654 -2.4485
13661TIP3   OH262473   6.320   0.324  13.888 -0.0300  0.1337  0.5554
13661TIP3    H162474   6.342   0.261  13.957  2.9090  0.4407  0.0338
13661TIP3    H262475   6.242   0.368  13.920 -0.0984 -1.3163  2.6017
13662TIP3   OH262476   6.006   1.795   3.732  0.0362 -0.1745 -1.0755
13662TIP3    H162477   5.967   1.801   3.645 -0.2495 -0.8777 -0.9950
13662TIP3    H262478   6.063   1.873   3.737 -1.2930  0.8378 -1.2029
13663TIP3   OH262479   5.288   4.393  15.745  0.6815  0.0488  0.1517
13663TIP3    H162480   5.374   4.355  15.726  1.5798  1.7855  0.5182
13663TIP3    H262481   5.280   4.387  15.840 -0.0662 -0.9858  0.0438
13664TIP3   OH262482   1.881   6.189   0.038  0.2700 -0.5193 -0.7097
13664TIP3    H162483   1.947   6.124   0.064 -0.4641 -2.1222 -2.5987
13664TIP3    H262484   1.816   6.187   0.108  1.0032 -0.6975 -0.0144
13665TIP3   OH262485   3.188   6.215  17.086 -0.1486 -0.3461 -0.4063
13665TIP3    H162486   3.187   6.294  17.141 -1.5187 -0.0890 -0.7542
13665TIP3    H262487   3.217   6.146  17.145 -2.4255 -0.2397  0.9689
13666TIP3   OH262488   1.746   0.954   5.527  0.6207 -0.0338 -0.1482
13666TIP3    H162489   1.780   0.923   5.443 -0.1946 -2.4676  0.3583
13666TIP3    H262490   1.651   0.956   5.515  0.5946  1.9628  0.0083
13667TIP3   OH262491   6.747   3.694   6.071  0.2747  0.2632 -0.1837
13667TIP3    H162492   6.832   3.650   6.071  0.8389  1.3134 -1.1018
13667TIP3    H262493   6.763   3.776   6.118 -0.7977 -0.5052  1.6286
13668TIP3   OH262494   4.382   3.297  14.568 -0.6098 -0.2898  0.1009
13668TIP3    H162495   4.468   3.303  14.527 -0.3640  1.9741  0.7934
13668TIP3    H262496   4.382   3.213  14.614  2.4176  0.8399  2.5191
13669TIP3   OH262497   0.102   5.512   2.440  0.8133  0.3137  0.4652
13669TIP3    H162498   0.147   5.460   2.374  1.7001  1.3365  0.2302
13669TIP3    H262499   0.010   5.505   2.418  0.9207 -1.0089  0.3491
13670TIP3   OH262500   1.692   5.810  14.283 -0.3629  0.1850 -0.0214
13670TIP3    H162501   1.707   5.718  14.305 -0.3143 -0.0787 -1.0833
13670TIP3    H262502   1.766   5.857  14.320 -0.1475 -0.2712  0.1293
13671TIP3   OH262503   0.644   0.172  10.761 -0.4768  0.1619  0.3252
13671TIP3    H162504   0.651   0.230  10.685 -0.5177 -0.2589 -0.0091
13671TIP3    H262505   0.551   0.151  10.766 -0.2900 -0.9286 -0.3771
13672TIP3   OH262506   0.913   4.449  12.369 -0.7661 -0.0497  0.4790
13672TIP3    H162507   0.892   4.401  12.449 -2.1680  0.0546  0.1953
13672TIP3    H262508   0.924   4.382  12.303 -0.3333 -0.0977  0.5975
13673TIP3   OH262509   1.882   6.713  16.846 -0.4642 -0.7134  0.2243
13673TIP3    H162510   1.899   6.663  16.926  0.2833 -1.9888 -0.6851
13673TIP3    H262511   1.796   6.681  16.817 -0.8682 -0.0384  0.6567
13674TIP3   OH262512   6.057   0.950  16.516  0.2945 -0.2921 -0.2026
13674TIP3    H162513   5.987   0.979  16.575 -0.5433 -0.7938 -0.9370
13674TIP3    H262514   6.095   1.031  16.483  0.4303 -0.0071  0.6136
13675TIP3   OH262515   0.032   4.301   3.696  0.4271 -0.4745 -0.1695
13675TIP3    H162516   0.086   4.225   3.676  0.9347 -0.7674  2.0674
13675TIP3    H262517   0.094   4.371   3.715 -0.0193  0.0112 -0.4555
13676TIP3   OH262518   0.972   2.884  13.797 -0.3837  0.4751 -0.6822
13676TIP3    H162519   0.994   2.845  13.712  1.4664  2.1579 -1.0530
13676TIP3    H262520   1.038   2.849  13.857 -0.7771  0.4399 -0.2662
13677TIP3   OH262521   5.252   1.171  10.739  0.0134 -0.0951  0.1348
13677TIP3    H162522   5.209   1.199  10.819 -0.6881 -0.8827  0.0547
13677TIP3    H262523   5.213   1.085  10.720 -0.2960  0.3477 -1.3822
13678TIP3   OH262524   5.242   4.494  17.117  0.1602 -0.0541  0.3966
13678TIP3    H162525   5.233   4.425  17.051 -0.6391 -0.1038  0.5440
13678TIP3    H262526   5.282   4.567  17.070  0.7546 -0.5111  0.1673
13679TIP3   OH262527   5.341   4.469  14.105  0.5941 -0.1471  0.0589
13679TIP3    H162528   5.325   4.561  14.088 -0.7477 -0.2538  0.6404
13679TIP3    H262529   5.428   4.453  14.069  0.6468  1.2199 -0.4789
13680TIP3   OH262530   0.785   5.867  17.009  0.5194 -0.0141 -1.3486
13680TIP3    H162531   0.864   5.873  17.063  0.0511 -4.6908  0.2679
13680TIP3    H262532   0.713   5.882  17.070  0.0385  0.8540 -2.1014
13681TIP3   OH262533   4.425   2.208  10.880 -0.6103 -0.1705 -0.3821
13681TIP3    H162534   4.420   2.282  10.819 -0.2660 -1.6669 -2.3533
13681TIP3    H262535   4.514   2.176  10.871 -0.5698 -0.4777  0.9266
13682TIP3   OH262536   3.920   4.639  16.999  0.4907 -0.0014 -0.1957
13682TIP3    H162537   3.942   4.548  16.978  0.6849 -0.8292  2.9771
13682TIP3    H262538   3.992   4.690  16.961 -0.3640 -0.8852 -3.3156
13683TIP3   OH262539   2.355   1.667   6.122  0.2599  0.6217  0.0117
13683TIP3    H162540   2.347   1.704   6.210 -1.3809 -1.3737  0.7699
13683TIP3    H262541   2.370   1.574   6.136  1.6962  0.5115 -1.8537
13684TIP3   OH262542   4.177   5.603  14.977  0.0571 -0.0639  0.0392
13684TIP3    H162543   4.165   5.649  15.059 -2.9500 -1.2731  0.4015
13684TIP3    H262544   4.131   5.657  14.912 -0.5019 -0.7972 -0.1841
13685TIP3   OH262545   5.216   0.718   3.605  0.1705  0.4899  0.2403
13685TIP3    H162546   5.229   0.624   3.597 -1.6528  0.0918  1.3085
13685TIP3    H262547   5.290   0.749   3.657 -0.6159 -0.8731  2.3081
13686TIP3   OH262548   0.394   2.644  12.683  0.0934  0.4555  0.0742
13686TIP3    H162549   0.310   2.604  12.660  0.2737 -0.2518  0.6234
13686TIP3    H262550   0.371   2.734  12.706 -0.6723 -0.0209  1.2459
13687TIP3   OH262551   1.205   2.595   4.060 -0.5340  0.6398 -0.0858
13687TIP3    H162552   1.299   2.606   4.067 -0.4611  1.7264 -1.9762
13687TIP3    H262553   1.174   2.677   4.023 -1.9587 -0.3651 -1.2495
13688TIP3   OH262554   1.331   1.773  11.361 -0.8111 -0.0142 -0.4696
13688TIP3    H162555   1.246   1.737  11.334 -0.4547 -0.7295 -0.6519
13688TIP3    H262556   1.313   1.816  11.444 -0.8196 -2.6183  0.9760
13689TIP3   OH262557   3.589   4.549   5.857  0.0153  0.5024 -0.2429
13689TIP3    H162558   3.606   4.643   5.846  2.3101  0.0255 -1.4532
13689TIP3    H262559   3.538   4.525   5.780 -0.3841  0.6935 -0.0434
13690TIP3   OH262560   4.268   1.061  12.536 -0.2778 -0.3528 -0.0129
13690TIP3    H162561   4.294   1.025  12.621  0.2136 -2.0403 -0.8341
13690TIP3    H262562   4.182   1.023  12.519  0.2568 -1.1948 -0.9052
13691TIP3   OH262563   1.487   0.941  12.149  0.0637  0.0476 -0.2326
13691TIP3    H162564   1.495   0.961  12.242 -1.2239  0.1824 -0.1285
13691TIP3    H262565   1.525   0.853  12.140  0.0161 -0.0483  0.4490
13692TIP3   OH262566   0.764   2.085   3.681  0.6968  0.1678  0.4264
13692TIP3    H162567   0.682   2.054   3.719 -1.0012  4.1443  0.5347
13692TIP3    H262568   0.824   2.092   3.756  0.9543 -2.0318  0.4739
13693TIP3   OH262569   4.917   1.499  15.225  0.1391 -0.0836 -0.5065
13693TIP3    H162570   4.868   1.433  15.176  0.9358 -0.4395 -0.8343
13693TIP3    H262571   4.941   1.454  15.306 -2.1430  0.8428  0.7904
13694TIP3   OH262572   6.479   3.411   0.789  0.0145  0.1192  0.2394
13694TIP3    H162573   6.393   3.445   0.814 -1.2591 -1.1516 -2.0923
13694TIP3    H262574   6.465   3.317   0.777  1.5277  0.0081 -0.9638
13695TIP3   OH262575   1.146   2.468   3.471 -0.0439  0.1523  0.3282
13695TIP3    H162576   1.095   2.430   3.542 -1.3710  0.2166 -0.5593
13695TIP3    H262577   1.089   2.535   3.433  1.0458  0.8522 -0.1459
13696TIP3   OH262578   1.814   1.540   3.089  0.2048  0.6164 -0.4116
13696TIP3    H162579   1.747   1.539   3.021 -2.5771  0.0271  2.1462
13696TIP3    H262580   1.787   1.610   3.149  0.0658 -1.5768  2.2689
13697TIP3   OH262581   1.841   2.473   2.392  0.0429  0.0770  0.1671
13697TIP3    H162582   1.898   2.463   2.469  0.4501  0.3631 -0.0888
13697TIP3    H262583   1.854   2.393   2.342 -0.7981 -0.4422  0.7641
13698TIP3   OH262584   6.780   4.744  16.366 -0.1182  0.5273 -0.0260
13698TIP3    H162585   6.732   4.826  16.356  0.6611  1.1526  1.0635
13698TIP3    H262586   6.836   4.759  16.443 -0.0019 -1.0484  0.2239
13699TIP3   OH262587   2.084   1.382  14.769 -0.4169  0.0400 -0.0865
13699TIP3    H162588   1.993   1.357  14.751 -0.3964  0.3167 -0.5654
13699TIP3    H262589   2.132   1.300  14.763 -0.5240  0.0089 -0.5509
13700TIP3   OH262590   6.374   5.841  14.667 -0.1780 -0.3428  0.3794
13700TIP3    H162591   6.309   5.898  14.708  0.0650  0.2039  0.0213
13700TIP3    H262592   6.377   5.870  14.576  0.6783 -0.2483  0.4255
13701TIP3   OH262593   2.452   4.405   4.073 -0.4894  0.3090  0.2548
13701TIP3    H162594   2.451   4.501   4.068  1.8193  0.4084  0.3744
13701TIP3    H262595   2.477   4.377   3.985 -2.2149 -0.2732 -0.0782
13702TIP3   OH262596   0.061   1.506   6.269 -0.3469  0.2879  0.0696
13702TIP3    H162597  -0.006   1.461   6.319 -0.7326  1.3690  0.5667
13702TIP3    H262598   0.042   1.484   6.177 -0.4266 -0.6465  0.3035
13703TIP3   OH262599   5.126   2.910   4.892 -0.2507  0.2879 -0.6598
13703TIP3    H162600   5.042   2.868   4.911  0.4481 -0.6856  0.4328
13703TIP3    H262601   5.179   2.840   4.853  0.6898  0.3175  0.5123
13704TIP3   OH262602   3.939   4.582   2.931  0.4576 -0.0311  0.3770
13704TIP3    H162603   3.948   4.487   2.919  1.4063 -0.0558  1.1623
13704TIP3    H262604   3.948   4.595   3.025  2.1507  0.9955  0.1176
13705TIP3   OH262605   2.264   2.420  16.357  0.2587  0.1198  0.4655
13705TIP3    H162606   2.275   2.453  16.268  0.9005 -2.0347 -0.3341
13705TIP3    H262607   2.313   2.481  16.412  1.7468  0.2771 -0.9578
13706TIP3   OH262608   2.374   4.657   5.290 -0.0839  0.0599 -0.0005
13706TIP3    H162609   2.369   4.636   5.383 -0.0870  0.7312  0.1506
13706TIP3    H262610   2.423   4.739   5.286 -0.7368  0.4298 -0.5318
13707TIP3   OH262611   4.969   4.128   3.835  0.4225  0.2990  0.1569
13707TIP3    H162612   4.946   4.138   3.928  0.6030 -0.2413  0.2593
13707TIP3    H262613   4.894   4.164   3.788 -1.2341 -2.4992  0.4540
13708TIP3   OH262614   6.211   4.021   2.983  0.9011 -0.2486 -0.1243
13708TIP3    H162615   6.232   4.091   2.922 -2.1581  0.1865 -0.8273
13708TIP3    H262616   6.194   4.065   3.066 -3.3451  0.3992 -1.0864
13709TIP3   OH262617   3.855   2.477  15.499  0.5093 -0.1589  0.0625
13709TIP3    H162618   3.929   2.538  15.504  1.1063 -0.9191  0.6513
13709TIP3    H262619   3.864   2.437  15.412  0.3736  0.2651 -0.1493
13710TIP3   OH262620   5.883   5.210   3.923  0.4881 -0.5065 -0.2919
13710TIP3    H162621   5.856   5.242   3.837  0.6200  0.1427 -0.0925
13710TIP3    H262622   5.911   5.119   3.906  0.0673 -0.5426 -0.8452
13711TIP3   OH262623   5.423   6.278  14.759 -0.6746  0.3343 -0.2831
13711TIP3    H162624   5.437   6.330  14.679 -0.7382  1.0777  0.1760
13711TIP3    H262625   5.370   6.335  14.815 -0.8852 -0.2997  0.1746
13712TIP3   OH262626   5.938   1.538   3.447 -0.0571 -0.1259  0.1805
13712TIP3    H162627   5.858   1.531   3.499  0.7660  0.4717  1.5777
13712TIP3    H262628   5.986   1.458   3.466 -0.1803 -0.3417 -0.4116
13713TIP3   OH262629   0.916   1.748  16.135  0.5700 -0.5798 -0.4214
13713TIP3    H162630   0.840   1.752  16.193 -0.7971 -0.7529 -2.1468
13713TIP3    H262631   0.966   1.673  16.167  0.6839  0.2249  1.4665
13714TIP3   OH262632   2.263   5.680  12.005 -0.4146  0.2656 -0.2942
13714TIP3    H162633   2.330   5.748  11.999 -0.5499  0.2529 -2.6170
13714TIP3    H262634   2.184   5.727  12.030 -0.4201  0.9484 -1.4962
13715TIP3   OH262635   5.663   2.719   1.114 -0.0919  0.2862  0.1169
13715TIP3    H162636   5.673   2.665   1.192  0.1604 -3.4209 -2.2262
13715TIP3    H262637   5.591   2.778   1.134  1.2730  0.9713  3.7788
13716TIP3   OH262638   6.290   0.235  11.863 -0.4020  0.4413  0.3361
13716TIP3    H162639   6.316   0.255  11.773 -0.7785 -1.3282 -0.2112
13716TIP3    H262640   6.196   0.253  11.866 -0.9673 -2.0001 -0.4663
13717TIP3   OH262641   0.258   4.543   6.607  0.5087  0.7474  0.3116
13717TIP3    H162642   0.316   4.613   6.635 -0.3147  2.2296 -1.4807
13717TIP3    H262643   0.307   4.496   6.540 -0.1014  1.6366 -0.7832
13718TIP3   OH262644   6.487   6.636  11.903 -0.0331  0.0878  0.0525
13718TIP3    H162645   6.433   6.654  11.826  0.6592 -0.1425 -0.4957
13718TIP3    H262646   6.476   6.714  11.957 -0.0410  0.5261 -0.5633
13719TIP3   OH262647   6.078   5.376  16.149  0.1874  0.1154  0.4254
13719TIP3    H162648   6.070   5.314  16.076 -2.8923  1.9578 -0.9751
13719TIP3    H262649   6.131   5.447  16.114 -0.5559  0.5937  0.2525
13720TIP3   OH262650   5.563   2.479   0.451  0.4030  0.8160 -0.2120
13720TIP3    H162651   5.619   2.458   0.526  2.2465  0.8581 -1.5042
13720TIP3    H262652   5.480   2.506   0.489  0.7320 -0.7441  1.7572
13721TIP3   OH262653   4.252   0.993  15.670  0.0673 -0.4050 -0.5222
13721TIP3    H162654   4.327   1.043  15.638 -0.3204  1.1927  0.8991
13721TIP3    H262655   4.181   1.015  15.610  0.2817 -0.4520 -0.7948
13722TIP3   OH262656   2.056   6.466  11.222  0.3223 -0.8520 -0.4895
13722TIP3    H162657   2.075   6.377  11.252  1.7864 -0.1210  0.9049
13722TIP3    H262658   2.142   6.504  11.204 -0.2217  0.5668 -0.2100
13723TIP3   OH262659   2.620   5.594  15.115 -0.4704  0.6520 -0.1270
13723TIP3    H162660   2.594   5.584  15.023  0.8468  0.3373 -0.4875
13723TIP3    H262661   2.548   5.556  15.165 -0.9396  0.3092 -1.0484
13724TIP3   OH262662   2.779   2.496   2.555  0.0858 -0.3982 -0.4676
13724TIP3    H162663   2.766   2.408   2.591 -1.8216  0.3564  0.9051
13724TIP3    H262664   2.769   2.554   2.631 -3.3729  1.2569 -1.9516
13725TIP3   OH262665   0.523   4.854   6.181  0.3754 -0.3839  0.1656
13725TIP3    H162666   0.521   4.758   6.170 -1.7362 -0.3170 -0.6378
13725TIP3    H262667   0.481   4.869   6.266  0.4644 -0.1573  0.1688
13726TIP3   OH262668   0.837   5.737   4.569 -0.0002 -0.1673  0.2958
13726TIP3    H162669   0.797   5.677   4.505  1.4202 -1.0125  0.1568
13726TIP3    H262670   0.811   5.701   4.654 -0.7298  0.1468  0.2169
13727TIP3   OH262671   5.227   5.370   5.441  0.3084 -0.1800 -0.6347
13727TIP3    H162672   5.299   5.335   5.389  0.6584 -0.4096 -0.0087
13727TIP3    H262673   5.159   5.391   5.377  1.0520  0.3612 -1.2693
13728TIP3   OH262674   2.689   0.615   5.141  0.2916 -0.0430  0.6702
13728TIP3    H162675   2.596   0.591   5.145  0.1133  0.7492  1.3399
13728TIP3    H262676   2.730   0.565   5.211  0.4849 -0.8561 -0.0099
13729TIP3   OH262677   2.099   5.337  14.428 -0.1995  0.2959 -0.3052
13729TIP3    H162678   2.034   5.325  14.497  1.0226 -1.3494  0.6395
13729TIP3    H262679   2.129   5.248  14.408  1.0798  0.9339 -1.3995
13730TIP3   OH262680   0.672   4.544   3.297 -0.6369  0.5463  0.1117
13730TIP3    H162681   0.645   4.469   3.245 -0.6886 -1.0182  2.2583
13730TIP3    H262682   0.760   4.565   3.265 -1.0162  0.2170 -1.1863
13731TIP3   OH262683   0.482   2.160   4.503  0.3617 -0.2214 -0.0946
13731TIP3    H162684   0.569   2.145   4.538  0.4989  0.4675 -0.1351
13731TIP3    H262685   0.429   2.088   4.538  0.6357  0.1060  1.0177
13732TIP3   OH262686   3.418   4.054  11.152 -0.0566 -0.1112  0.3254
13732TIP3    H162687   3.407   4.100  11.068  0.0155 -0.4675  0.1206
13732TIP3    H262688   3.338   4.003  11.162  0.6582 -1.4269 -0.3741
13733TIP3   OH262689   4.580   1.274  13.464 -0.4813 -0.3735  0.3711
13733TIP3    H162690   4.521   1.227  13.523 -0.3451 -0.3247  0.5468
13733TIP3    H262691   4.652   1.303  13.520 -0.1194 -0.7274  0.0923
13734TIP3   OH262692   0.864   5.326   0.524  0.3500 -0.0568 -0.3840
13734TIP3    H162693   0.864   5.381   0.445  0.7820 -0.9431 -1.0167
13734TIP3    H262694   0.783   5.276   0.518  0.4673 -0.2492 -0.3473
13735TIP3   OH262695   1.381   4.733   0.706 -0.8888 -0.4325 -0.4742
13735TIP3    H162696   1.451   4.755   0.768  0.2366 -0.2436 -1.7833
13735TIP3    H262697   1.383   4.638   0.701 -0.3613 -0.4037 -0.9039
13736TIP3   OH262698   4.495   4.368  14.743 -0.6115  0.3415 -0.2750
13736TIP3    H162699   4.487   4.333  14.654  0.9992  0.9098 -0.6711
13736TIP3    H262700   4.589   4.367  14.761 -0.9676 -0.7747  1.8492
13737TIP3   OH262701   3.607   6.822  11.710  0.1199  0.4860 -0.4739
13737TIP3    H162702   3.597   6.726  11.713 -0.2684  0.5351 -0.0549
13737TIP3    H262703   3.611   6.843  11.617  1.9241 -0.1071 -0.5615
13738TIP3   OH262704   3.059   5.003  17.186  0.2286 -0.0625  0.1915
13738TIP3    H162705   3.108   5.065  17.132 -0.5482 -0.3530 -0.8634
13738TIP3    H262706   3.125   4.943  17.220  0.8487  0.7052  0.3596
13739TIP3   OH262707   4.269   5.319  17.185  0.4247  0.2354  0.7932
13739TIP3    H162708   4.300   5.402  17.222  1.0864  0.1168  0.5165
13739TIP3    H262709   4.285   5.328  17.091 -1.5323  0.6662  0.4496
13740TIP3   OH262710   3.151   5.886   4.733  0.0394  0.2380  0.0551
13740TIP3    H162711   3.183   5.852   4.650  0.6851  0.3912  0.2307
13740TIP3    H262712   3.201   5.837   4.799  1.0231  1.5289  0.3127
13741TIP3   OH262713   4.228   6.534  13.587  0.0166 -0.1736  0.8235
13741TIP3    H162714   4.252   6.524  13.494  4.2147  4.8337  0.8904
13741TIP3    H262715   4.292   6.479  13.633 -0.6293 -0.9544  0.7943
13742TIP3   OH262716   5.409   0.951   6.208 -0.2252  0.3880  0.8978
13742TIP3    H162717   5.347   0.982   6.273  1.6214  0.3648  2.7785
13742TIP3    H262718   5.364   0.878   6.165 -1.9446  1.1762  1.2689
13743TIP3   OH262719   6.582   2.670  13.421 -0.3283  0.2449  0.5067
13743TIP3    H162720   6.636   2.747  13.410 -0.7643  0.7436  1.6797
13743TIP3    H262721   6.579   2.656  13.516  0.5626 -1.8091  0.2845
13744TIP3   OH262722   3.547   6.112   5.505 -0.1856  0.6419  0.2875
13744TIP3    H162723   3.530   6.180   5.570 -0.8618  0.5190  0.2447
13744TIP3    H262724   3.595   6.044   5.552  1.7869  1.7553  0.0054
13745TIP3   OH262725   0.761   1.796  13.641 -0.1372  0.0896 -0.0379
13745TIP3    H162726   0.807   1.828  13.562 -2.2897 -0.5392 -1.6403
13745TIP3    H262727   0.814   1.828  13.714  1.6328  1.2208 -1.7130
13746TIP3   OH262728   6.181   3.211   0.834 -0.1093  0.4792 -0.2853
13746TIP3    H162729   6.276   3.201   0.838 -0.0685  0.8042 -0.3766
13746TIP3    H262730   6.160   3.207   0.741 -0.4383 -1.7119 -0.1531
13747TIP3   OH262731   4.192   5.193   2.637 -0.9252  0.1547 -0.0745
13747TIP3    H162732   4.126   5.180   2.705 -0.0468 -3.2958  0.3136
13747TIP3    H262733   4.173   5.126   2.572  0.5717  0.8882 -1.3396
13748TIP3   OH262734   4.601   5.688  12.285  0.1496 -0.6399  0.0037
13748TIP3    H162735   4.528   5.682  12.224  0.8808  0.9087 -1.0863
13748TIP3    H262736   4.564   5.729  12.363 -0.9953 -3.4237  1.0290
13749TIP3   OH262737   6.114   4.992   2.087 -0.9754  0.3550  0.5878
13749TIP3    H162738   6.040   4.936   2.063 -0.0995 -0.5828 -0.0830
13749TIP3    H262739   6.142   4.959   2.173  1.0415 -2.0246 -0.8089
13750TIP3   OH262740   0.735   3.205   4.932  0.2228 -0.1078 -0.3546
13750TIP3    H162741   0.744   3.165   5.018  1.1253  0.1418 -0.3184
13750TIP3    H262742   0.820   3.193   4.891  0.4957  1.6205 -0.3869
13751TIP3   OH262743   1.098   1.538  16.926  0.0734 -0.0716  0.5552
13751TIP3    H162744   1.084   1.494  17.010  0.6308 -1.1601  0.0991
13751TIP3    H262745   1.019   1.518  16.875  0.1800 -0.2730  0.4672
13752TIP3   OH262746   2.658   0.506  12.419 -0.4328 -0.5406  0.1781
13752TIP3    H162747   2.719   0.546  12.482 -0.5046 -0.9610  0.5183
13752TIP3    H262748   2.577   0.555  12.430  0.5251  1.7375 -2.0660
13753TIP3   OH262749   2.604   4.868   3.004  0.3531 -0.3303  0.4367
13753TIP3    H162750   2.647   4.954   3.006  0.9477 -0.6310  1.4433
13753TIP3    H262751   2.669   4.808   3.039 -0.3513 -1.0540  0.5273
13754TIP3   OH262752   2.998   6.728  12.956 -0.3887 -0.9376  0.2246
13754TIP3    H162753   2.991   6.634  12.969 -0.3896 -1.4936 -2.8782
13754TIP3    H262754   2.908   6.756  12.938 -0.1478 -0.7497 -0.7810
13755TIP3   OH262755   0.975   2.084  16.330 -0.3068  0.4419  0.1186
13755TIP3    H162756   1.067   2.088  16.355 -0.2237 -0.5813 -0.0129
13755TIP3    H262757   0.939   2.011  16.381 -0.5832 -0.4394 -1.3036
13756TIP3   OH262758   6.106   5.986   1.651 -0.2289 -0.3364  0.0825
13756TIP3    H162759   6.079   5.947   1.735 -1.5809 -1.2889 -0.7541
13756TIP3    H262760   6.155   5.916   1.607 -1.5438 -0.6970 -0.8806
13757TIP3   OH262761   5.331   3.496   4.184 -0.0179  0.0934 -0.0695
13757TIP3    H162762   5.244   3.469   4.156  0.4354 -0.9589 -0.5265
13757TIP3    H262763   5.390   3.460   4.118  0.8547 -0.1683  0.8245
13758TIP3   OH262764   2.821   2.718  15.106 -0.1671 -0.0098  0.3169
13758TIP3    H162765   2.767   2.674  15.040  0.6569  1.6846 -1.6203
13758TIP3    H262766   2.906   2.730  15.063  0.3643  1.2991  1.6348
13759TIP3   OH262767   4.163   5.471  11.484  0.3902  0.4772  0.8118
13759TIP3    H162768   4.201   5.478  11.397  1.3448  2.0759  1.3308
13759TIP3    H262769   4.076   5.509  11.476 -0.0711 -0.6383  0.2703
13760TIP3   OH262770   5.134   5.001   0.288 -0.4200  0.2405 -0.0580
13760TIP3    H162771   5.152   4.963   0.202  1.7836  1.0647 -0.0256
13760TIP3    H262772   5.102   5.089   0.268  0.3223  0.5195 -0.0640
13761TIP3   OH262773   0.665   3.893   4.418  0.6464  0.2862 -0.4404
13761TIP3    H162774   0.686   3.934   4.502 -1.9831 -0.2007  0.5556
13761TIP3    H262775   0.719   3.814   4.415  1.1907  0.6150  0.5127
13762TIP3   OH262776   0.216   2.847  15.619 -0.5290  0.1390 -0.2293
13762TIP3    H162777   0.254   2.793  15.550  0.1234  0.2607  0.0201
13762TIP3    H262778   0.289   2.863  15.680 -0.8583  0.7934  0.0113
13763TIP3   OH262779   0.708   0.232  15.247 -0.3512  0.6744  0.0143
13763TIP3    H162780   0.786   0.223  15.193 -0.9269  3.1004 -1.3623
13763TIP3    H262781   0.738   0.211  15.336  1.1058 -1.3442 -0.8645
13764TIP3   OH262782   6.087   2.363   4.821 -0.4452 -0.5390  0.3054
13764TIP3    H162783   6.000   2.364   4.780 -0.5100  1.8854  0.3236
13764TIP3    H262784   6.148   2.351   4.748 -0.6831  1.3426 -0.2776
13765TIP3   OH262785   2.628   3.993  13.376  0.0218  0.4704 -0.3808
13765TIP3    H162786   2.539   3.991  13.341  0.5732 -0.6300 -1.8374
13765TIP3    H262787   2.646   3.901  13.398  0.8801  0.6412 -0.3546
13766TIP3   OH262788   1.093   6.429   5.196  0.0626  0.1604  0.2108
13766TIP3    H162789   1.113   6.508   5.245  0.9919  0.2010 -0.2211
13766TIP3    H262790   1.040   6.458   5.123  0.0529  0.3224  0.2829
13767TIP3   OH262791   1.631   1.832  11.355  0.0961 -0.8008 -0.4069
13767TIP3    H162792   1.556   1.774  11.347  0.7156 -1.8819  1.0869
13767TIP3    H262793   1.594   1.920  11.352 -1.4237 -1.3127  1.4854
13768TIP3   OH262794   1.783   2.953  15.122 -0.4274  0.4557  0.0918
13768TIP3    H162795   1.781   2.857  15.127  1.0223  0.4728  2.3255
13768TIP3    H262796   1.772   2.972  15.028 -2.5609 -1.7712 -0.2110
13769TIP3   OH262797   5.879   0.036   2.227  0.7753  0.1056 -0.4377
13769TIP3    H162798   5.936   0.030   2.303 -0.1291 -1.2360  0.1700
13769TIP3    H262799   5.882   0.128   2.201  0.6237  0.7244  1.6029
13770TIP3   OH262800   4.262   3.124  11.604  0.5140 -0.4293  0.1985
13770TIP3    H162801   4.232   3.187  11.670 -0.3399 -1.2288  0.5878
13770TIP3    H262802   4.342   3.087  11.642  1.0637  0.4743 -0.0699
13771TIP3   OH262803   2.613   2.004   0.481  0.2989  0.3337  0.1689
13771TIP3    H162804   2.570   1.984   0.399  0.1767  0.3012  0.2412
13771TIP3    H262805   2.559   2.072   0.521  0.7587  0.8827 -0.1188
13772TIP3   OH262806   3.663   6.414   3.181  1.1229  0.1310  0.0415
13772TIP3    H162807   3.569   6.406   3.166  1.3841 -1.2398 -1.1266
13772TIP3    H262808   3.673   6.494   3.232 -0.4193  2.1120 -2.5266
13773TIP3   OH262809   5.219   6.801  11.973  0.3389 -0.0134 -0.4055
13773TIP3    H162810   5.238   6.811  11.880  2.1697  0.0819 -0.0736
13773TIP3    H262811   5.305   6.791  12.014 -0.3247  1.0880  1.4139
13774TIP3   OH262812   0.986   0.605   3.686 -0.0154  0.9357  0.3781
13774TIP3    H162813   1.078   0.618   3.710  0.2763 -0.4079  0.0971
13774TIP3    H262814   0.980   0.638   3.597  0.3720  0.4296  0.1561
13775TIP3   OH262815   2.960   5.798  16.663 -0.4864 -0.1175  0.2408
13775TIP3    H162816   3.001   5.833  16.584 -2.2586 -1.9668 -1.6600
13775TIP3    H262817   2.901   5.867  16.693 -0.8245  0.1135 -0.9138
13776TIP3   OH262818   4.015   0.949   3.993 -0.0757  0.0449  0.4016
13776TIP3    H162819   4.083   1.005   4.030  0.3442 -0.4292  0.3547
13776TIP3    H262820   3.975   0.907   4.069 -0.6618  0.7079  0.4663
13777TIP3   OH262821   4.981   0.745   3.339 -0.3144  0.0080  0.1110
13777TIP3    H162822   5.071   0.773   3.358 -0.5504  2.4198 -1.7940
13777TIP3    H262823   4.929   0.778   3.413 -0.1345  2.1401 -0.6534
13778TIP3   OH262824   1.846   6.566   2.313  0.0824 -0.0292  0.4124
13778TIP3    H162825   1.862   6.605   2.399 -1.7502 -0.0461  0.7972
13778TIP3    H262826   1.921   6.592   2.261  0.4226  1.3901  1.5440
13779TIP3   OH262827   4.043   4.718   2.707  0.3100 -0.0201 -0.4280
13779TIP3    H162828   4.012   4.691   2.793  1.0124  0.5625  0.0163
13779TIP3    H262829   4.125   4.670   2.695 -0.2300 -0.7691 -1.1509
13780TIP3   OH262830   2.638   5.603  13.943 -0.6531 -0.3639  0.3185
13780TIP3    H162831   2.650   5.508  13.943  0.1342 -0.3069 -1.1813
13780TIP3    H262832   2.561   5.618  13.888 -0.7672 -0.1353  0.5406
13781TIP3   OH262833   3.619   2.106  12.299 -0.7428 -0.4394  0.0140
13781TIP3    H162834   3.676   2.037  12.334  1.6134  0.8333 -1.0439
13781TIP3    H262835   3.643   2.184  12.349 -2.0575  0.0194 -0.0442
13782TIP3   OH262836   1.786   2.408  12.786  0.3212 -0.3918 -0.8719
13782TIP3    H162837   1.716   2.444  12.840 -0.5911 -1.3234 -1.4085
13782TIP3    H262838   1.824   2.484  12.741 -0.9274  0.0260 -1.2488
13783TIP3   OH262839   3.245   6.525   2.911 -0.3330 -0.2924 -0.0435
13783TIP3    H162840   3.307   6.486   2.849  0.6311  2.1915 -0.7964
13783TIP3    H262841   3.274   6.494   2.997  1.0750 -0.3124 -0.5050
13784TIP3   OH262842   6.105   4.707   1.656  0.4009 -0.3745  0.2262
13784TIP3    H162843   6.109   4.789   1.706  1.1916 -0.0468 -0.3498
13784TIP3    H262844   6.179   4.656   1.688  1.5736  0.2758 -1.3085
13785TIP3   OH262845   5.679   5.465  15.838  0.0615 -0.2433  0.2447
13785TIP3    H162846   5.751   5.408  15.865 -0.7606 -0.9601  0.9900
13785TIP3    H262847   5.614   5.405  15.800 -0.8520  0.1489  1.1129
13786TIP3   OH262848   1.415   4.219  12.867 -0.5395  0.5703  0.0635
13786TIP3    H162849   1.507   4.202  12.846 -0.1488 -0.2352  2.1787
13786TIP3    H262850   1.416   4.297  12.922 -0.9237 -0.3081  1.3618
13787TIP3   OH262851   4.402   4.481   1.446  0.1152  0.1869  0.2583
13787TIP3    H162852   4.437   4.463   1.358  2.0188  1.1743  0.7450
13787TIP3    H262853   4.391   4.576   1.448  1.6500  0.3835  1.5760
13788TIP3   OH262854   1.505   0.336   4.140 -0.0019 -0.4097  0.0190
13788TIP3    H162855   1.436   0.341   4.075 -0.9452  1.2374  1.0882
13788TIP3    H262856   1.487   0.254   4.187 -1.2525 -0.0148  0.2751
13789TIP3   OH262857   0.406   4.217   5.295  0.7934 -1.0592  0.1884
13789TIP3    H162858   0.332   4.205   5.354  0.3377  1.8070  0.3659
13789TIP3    H262859   0.474   4.159   5.328 -0.5483 -1.9270  1.5256
13790TIP3   OH262860   3.519   1.742  13.914 -0.5275 -0.4303 -0.5629
13790TIP3    H162861   3.458   1.683  13.871  0.5944 -2.0195 -0.0497
13790TIP3    H262862   3.599   1.736  13.862 -0.4207  0.7173 -0.5536
13791TIP3   OH262863   1.506   6.048   0.870  0.2255 -1.1233 -0.3379
13791TIP3    H162864   1.514   6.140   0.895  2.6439 -1.1644 -0.6700
13791TIP3    H262865   1.431   6.045   0.811  1.5443  1.1416 -2.3223
13792TIP3   OH262866   6.641   2.875  16.199  0.1075  0.3582  0.1738
13792TIP3    H162867   6.719   2.884  16.253  0.1394 -1.9707  0.6142
13792TIP3    H262868   6.632   2.780  16.185 -2.3531  0.5892 -0.2691
13793TIP3   OH262869   5.436   0.401   3.084  0.1991 -0.0411  0.8701
13793TIP3    H162870   5.391   0.479   3.117 -2.3891 -1.3293  0.6582
13793TIP3    H262871   5.378   0.368   3.015  1.8814 -1.4387  0.0673
13794TIP3   OH262872   0.209   5.175   1.614  0.9726 -0.7586  0.0473
13794TIP3    H162873   0.263   5.135   1.682 -0.3175 -1.8039  0.4992
13794TIP3    H262874   0.158   5.103   1.578 -0.2334  0.2036 -0.2496
13795TIP3   OH262875   4.978   4.880  14.741  0.1676  0.2237 -0.0127
13795TIP3    H162876   5.048   4.827  14.702  2.1464  0.8262  2.4612
13795TIP3    H262877   4.904   4.820  14.748  1.4388 -1.4078  0.1011
13796TIP3   OH262878   4.890   4.651   6.726  0.3188  0.7592  0.3131
13796TIP3    H162879   4.862   4.658   6.635 -0.7933 -1.6839  0.3950
13796TIP3    H262880   4.825   4.701   6.775 -0.9673 -0.5577  0.0129
13797TIP3   OH262881   5.697   4.921  15.096 -0.3477  0.2318 -0.5672
13797TIP3    H162882   5.770   4.944  15.154 -0.5442  0.0755 -0.2543
13797TIP3    H262883   5.631   4.989  15.113 -0.3489  0.2687 -0.7167
13798TIP3   OH262884   2.936   5.919   6.257  0.0464 -0.4893 -0.2494
13798TIP3    H162885   2.874   5.991   6.270 -0.0651 -0.6051 -0.1427
13798TIP3    H262886   2.882   5.841   6.251  0.1617 -0.5560 -0.4493
13799TIP3   OH262887   4.998   4.461   6.086  0.4973  0.0497 -0.3599
13799TIP3    H162888   4.981   4.480   6.179 -0.7626 -0.4888 -0.4654
13799TIP3    H262889   5.023   4.545   6.049  2.7319 -0.0170  0.8068
13800TIP3   OH262890   4.068   6.114  15.754  0.1830 -0.1592 -0.3607
13800TIP3    H162891   4.074   6.200  15.794 -1.8762 -0.4394  0.6578
13800TIP3    H262892   4.058   6.132  15.660 -3.7963  1.0022  0.1029
13801TIP3   OH262893   4.739   2.832  15.812 -0.0178 -0.9822  0.3041
13801TIP3    H162894   4.802   2.801  15.748  0.9733  1.8097 -0.2006
13801TIP3    H262895   4.789   2.891  15.869 -1.2908 -1.9015  2.5239
13802TIP3   OH262896   3.954   0.489   3.407 -0.3167 -0.0073  0.1274
13802TIP3    H162897   3.913   0.575   3.411 -1.2641 -0.4823  1.2262
13802TIP3    H262898   3.918   0.448   3.329 -2.2663 -0.5389  1.2442
13803TIP3   OH262899   1.548   6.571  11.147 -0.2612  0.3793  0.1574
13803TIP3    H162900   1.470   6.613  11.111 -0.4981 -0.5917 -0.4976
13803TIP3    H262901   1.516   6.515  11.217 -0.1308  0.1603  0.0443
13804TIP3   OH262902   4.455   2.419  13.092  0.6242  0.0994 -0.8188
13804TIP3    H162903   4.530   2.477  13.105  0.5506  0.0858 -0.2808
13804TIP3    H262904   4.493   2.331  13.092  0.6709  0.1184 -1.0932
13805TIP3   OH262905   5.840   3.344  13.417 -0.3179  0.4025  0.3094
13805TIP3    H162906   5.794   3.409  13.364 -2.5958 -0.9120  0.5729
13805TIP3    H262907   5.821   3.369  13.508 -0.4646 -0.1287  0.4261
13806TIP3   OH262908   3.268   0.727  10.923 -0.6309  0.7420 -0.3250
13806TIP3    H162909   3.240   0.818  10.913 -2.4190  0.1791 -0.7553
13806TIP3    H262910   3.334   0.730  10.993 -0.1973  2.4390 -0.7663
13807TIP3   OH262911   2.808   0.695  13.216  0.2642  0.3650  0.0961
13807TIP3    H162912   2.767   0.632  13.157 -1.1430  1.1797  0.1610
13807TIP3    H262913   2.765   0.681  13.300 -0.0150  1.3607  0.1279
13808TIP3   OH262914   2.611   5.883   3.377 -0.1848 -0.3900 -0.0071
13808TIP3    H162915   2.629   5.968   3.337 -0.9331 -0.9691 -1.6509
13808TIP3    H262916   2.696   5.852   3.407  0.7129 -0.5626 -2.4947
13809TIP3   OH262917   0.994   0.909   2.507  0.7252  0.2627  0.1841
13809TIP3    H162918   1.009   0.816   2.525  1.7360  0.4126  0.1675
13809TIP3    H262919   0.907   0.912   2.467 -0.2039 -0.4529  2.0151
13810TIP3   OH262920   2.178   3.170   3.073 -0.1367 -0.4274 -0.2059
13810TIP3    H162921   2.229   3.233   3.125 -0.7639  0.3361 -0.4935
13810TIP3    H262922   2.209   3.182   2.984  0.6211 -1.4272 -0.1051
13811TIP3   OH262923   5.117   6.809  14.357  0.3288  0.0935 -0.6787
13811TIP3    H162924   5.144   6.831  14.446 -0.6297  1.5262 -0.7137
13811TIP3    H262925   5.049   6.872  14.337  1.7133  0.9405 -3.0764
13812TIP3   OH262926   6.212   4.620   2.175  0.0723  0.1501  0.0410
13812TIP3    H162927   6.122   4.639   2.202  0.0812 -0.2184  0.3385
13812TIP3    H262928   6.204   4.540   2.122 -0.0725  1.3540 -1.8433
13813TIP3   OH262929   2.684   2.383  15.500 -0.7743  0.3436  0.3832
13813TIP3    H162930   2.738   2.413  15.427 -0.0534 -2.0095 -0.1641
13813TIP3    H262931   2.595   2.407  15.476 -0.5204 -0.1798 -1.2016
13814TIP3   OH262932   5.891   5.800   5.253 -0.3034  0.4656  0.1407
13814TIP3    H162933   5.834   5.871   5.222  0.5598  0.3032 -2.0442
13814TIP3    H262934   5.857   5.722   5.210 -1.1813 -0.4921  2.4475
13815TIP3   OH262935   5.632   1.088  16.840 -0.1788  0.0085 -0.4065
13815TIP3    H162936   5.701   1.028  16.812 -0.0234 -0.4962  0.9665
13815TIP3    H262937   5.663   1.175  16.813  0.2009 -0.3836 -1.2720
13816TIP3   OH262938   0.037   6.475  12.721 -0.3189  0.3919 -0.8161
13816TIP3    H162939   0.015   6.391  12.762 -0.8469  0.7525 -0.3576
13816TIP3    H262940   0.126   6.493  12.751 -0.1892 -0.0245 -0.9457
13817TIP3   OH262941   5.178   2.133  10.928 -0.1279 -0.1227  0.7527
13817TIP3    H162942   5.244   2.163  10.990  1.0342 -0.0200 -0.4918
13817TIP3    H262943   5.202   2.043  10.906  0.4668  0.3634 -0.7606
13818TIP3   OH262944   1.058   3.381   0.074  0.0329  0.2103  0.1440
13818TIP3    H162945   0.978   3.404   0.121  0.9622  1.1988  1.3137
13818TIP3    H262946   1.098   3.312   0.127  0.3885  0.3419  0.0501
13819TIP3   OH262947   0.454   1.974  12.451  0.2811 -0.3053 -0.8234
13819TIP3    H162948   0.542   2.011  12.443 -0.0637  0.5783 -0.6863
13819TIP3    H262949   0.468   1.880  12.460  1.2523 -0.0984  0.0395
13820TIP3   OH262950   3.224   4.306   2.791 -0.3992  0.0946  0.0152
13820TIP3    H162951   3.155   4.264   2.740 -0.0148  0.5914 -0.9313
13820TIP3    H262952   3.286   4.339   2.726 -0.1101  1.1286  0.7868
13821TIP3   OH262953   0.930   5.315  14.998 -0.5970 -0.2211 -0.5965
13821TIP3    H162954   0.846   5.341  15.035  0.5175 -1.0300  2.8737
13821TIP3    H262955   0.966   5.395  14.961 -1.9317  0.6369 -0.0994
13822TIP3   OH262956   6.183   4.005   3.771 -0.3521  0.3394  0.2052
13822TIP3    H162957   6.157   4.028   3.682  1.7918  1.2439 -0.2515
13822TIP3    H262958   6.208   4.089   3.811  1.1632 -0.3551  0.7822
13823TIP3   OH262959   0.209   6.021   3.055 -0.7124 -0.0286  0.2958
13823TIP3    H162960   0.271   5.972   3.109  1.4111  1.3400 -0.7847
13823TIP3    H262961   0.212   6.110   3.090  2.6284  1.5638 -3.3682
13824TIP3   OH262962   5.271   3.095   3.000 -0.2616 -0.1809  0.4078
13824TIP3    H162963   5.194   3.150   2.984 -0.1347  0.2740  1.2678
13824TIP3    H262964   5.256   3.017   2.947 -0.3868  0.7317 -0.9494
13825TIP3   OH262965   3.724   5.477  15.925 -0.3161 -0.4655  0.3878
13825TIP3    H162966   3.811   5.459  15.888 -0.3395 -1.8425  0.9509
13825TIP3    H262967   3.740   5.487  16.019 -0.6994 -0.1411  0.4201
13826TIP3   OH262968   0.266   4.451   3.117 -0.3344 -0.1806  0.3112
13826TIP3    H162969   0.269   4.477   3.209 -4.5666 -2.2662  1.2720
13826TIP3    H262970   0.212   4.518   3.075  0.3676 -0.0318 -0.3841
13827TIP3   OH262971   2.869   5.483  12.488 -0.3628 -0.3331 -0.6263
13827TIP3    H162972   2.791   5.501  12.541  0.9021 -2.0335  2.0293
13827TIP3    H262973   2.917   5.565  12.488  0.4841 -0.6637  2.6490
13828TIP3   OH262974   3.645   4.832   5.832 -0.2050 -0.1779  0.2409
13828TIP3    H162975   3.621   4.888   5.907 -1.1344 -0.1657 -0.0532
13828TIP3    H262976   3.630   4.888   5.756  1.9102  0.2271  0.0725
13829TIP3   OH262977   1.532   6.671   5.145 -0.1156  0.5359 -0.6765
13829TIP3    H162978   1.516   6.680   5.239 -1.2564  1.6847 -0.9552
13829TIP3    H262979   1.505   6.581   5.126 -0.8384  0.6087 -0.0772
13830TIP3   OH262980   4.164   1.297   4.392  0.1983 -0.1942 -0.7004
13830TIP3    H162981   4.190   1.388   4.405 -0.6809  0.2542 -1.8464
13830TIP3    H262982   4.242   1.254   4.358  1.1481 -0.3247  1.4576
13831TIP3   OH262983   6.290   2.829  12.199 -0.4840  0.8407 -0.2978
13831TIP3    H162984   6.237   2.764  12.246  0.4526  0.4371  0.2284
13831TIP3    H262985   6.290   2.905  12.256  1.7453 -0.0905  1.0787
13832TIP3   OH262986   5.980   0.357   5.900  0.4146 -0.3038 -0.2190
13832TIP3    H162987   5.985   0.340   5.994 -0.8453  0.1459 -0.0553
13832TIP3    H262988   5.894   0.324   5.873 -0.1313  1.4381 -0.7838
13833TIP3   OH262989   2.461   2.850  16.280  0.4582 -0.2110  0.1768
13833TIP3    H162990   2.536   2.881  16.228  2.4029 -0.1492  2.8036
13833TIP3    H262991   2.440   2.924  16.337  0.8078 -1.3988  1.9334
13834TIP3   OH262992   4.012   4.215   1.321  0.1039  0.2662  0.1848
13834TIP3    H162993   4.013   4.252   1.232  0.6235 -2.0210 -0.8275
13834TIP3    H262994   3.922   4.189   1.335 -0.1545  1.3852  0.6943
13835TIP3   OH262995   5.765   0.647   3.345  0.3191 -0.3092  0.1982
13835TIP3    H162996   5.856   0.676   3.358  0.1157 -0.3661  1.9389
13835TIP3    H262997   5.712   0.719   3.378 -0.2433 -1.0531  0.9470
13836TIP3   OH262998   1.095   5.259   4.657  0.5393  0.5961 -0.2603
13836TIP3    H162999   1.111   5.210   4.577  1.2384  0.9779 -0.3652
13836TIP3    H263000   1.182   5.273   4.695  0.4554  2.2733 -0.5684
13837TIP3   OH263001   3.408   6.163  12.214  0.4353 -0.5686 -0.0033
13837TIP3    H163002   3.360   6.164  12.297  0.9265 -0.0956  0.2816
13837TIP3    H263003   3.456   6.245  12.213 -0.1996 -0.2016 -1.1511
13838TIP3   OH263004   5.002   6.630   6.834  0.5947  0.3502  0.4254
13838TIP3    H163005   5.070   6.696   6.820  1.8431 -0.7941  0.9037
13838TIP3    H263006   5.012   6.569   6.761 -1.1548  1.1320 -0.5315
13839TIP3   OH263007   3.468   6.820  15.903 -0.5248 -0.4225 -0.6735
13839TIP3    H163008   3.501   6.757  15.967 -1.3558  0.9888  1.2326
13839TIP3    H263009   3.470   6.904  15.948  0.4959  0.9601 -3.1152
13840TIP3   OH263010   4.337   0.956   2.655  0.4208  0.0692 -0.2869
13840TIP3    H163011   4.279   0.885   2.683  1.0913  0.4172  2.2792
13840TIP3    H263012   4.290   0.999   2.584 -1.9329 -0.4101  0.8670
13841TIP3   OH263013   6.104   4.722  16.151  0.5011  0.2969  0.0169
13841TIP3    H163014   6.077   4.797  16.203 -4.3355 -2.6441  2.4835
13841TIP3    H263015   6.033   4.711  16.087  0.6417 -2.4603  0.2322
13842TIP3   OH263016   5.434   0.649  16.916 -0.7016  0.1666  0.4126
13842TIP3    H163017   5.423   0.709  16.989  0.7880 -0.8828  1.5731
13842TIP3    H263018   5.513   0.680  16.871 -0.7478 -0.0896  0.1466
13843TIP3   OH263019   1.669   3.117   4.547  0.2567  0.1034  0.5515
13843TIP3    H163020   1.627   3.172   4.613 -2.3620 -0.9877 -0.0770
13843TIP3    H263021   1.667   3.029   4.584  0.7462 -0.1975 -0.1038
13844TIP3   OH263022   2.628   1.896  15.170  0.0830  0.7824 -0.6029
13844TIP3    H163023   2.583   1.857  15.245  3.2695 -1.7600  0.1868
13844TIP3    H263024   2.668   1.976  15.205  1.0717 -0.0841  0.3231
13845TIP3   OH263025   6.285   3.553  14.564 -0.2081  0.2581 -0.3039
13845TIP3    H163026   6.201   3.541  14.519 -1.1505 -0.6397  1.5606
13845TIP3    H263027   6.337   3.477  14.539 -1.4097 -1.2317  1.4487
13846TIP3   OH263028   3.376   2.954   1.610  0.1391  0.4091  0.3284
13846TIP3    H163029   3.389   2.890   1.680 -1.2695 -0.9431 -0.6063
13846TIP3    H263030   3.433   2.924   1.539  1.1139  1.4512  0.6219
13847TIP3   OH263031   1.433   5.565  14.131  0.1404 -0.4777  0.0110
13847TIP3    H163032   1.482   5.497  14.177 -0.2204 -1.1246 -0.5490
13847TIP3    H263033   1.457   5.554  14.039 -1.0251 -0.7810 -0.2647
13848TIP3   OH263034   0.694   5.542   4.445  0.3831  0.6034  0.0462
13848TIP3    H163035   0.641   5.486   4.501  0.7371  0.4479  0.2283
13848TIP3    H263036   0.630   5.585   4.387  0.0544  0.4739  0.3071
13849TIP3   OH263037   2.285   5.428  13.659 -0.5167 -0.5116 -0.0964
13849TIP3    H163038   2.306   5.360  13.722 -1.3221 -0.6655  0.0159
13849TIP3    H263039   2.206   5.470  13.694  0.4652  1.0953  0.3171
13850TIP3   OH263040   3.968   0.537   1.027 -0.0025 -0.6127  0.1827
13850TIP3    H163041   4.062   0.549   1.012 -0.1327 -0.6030 -0.6854
13850TIP3    H263042   3.929   0.541   0.940 -0.9087  0.1848  0.6100
13851TIP3   OH263043   5.000   1.898  14.316  0.3702  0.2232 -0.7908
13851TIP3    H163044   5.014   1.971  14.375 -0.0148  2.3229 -3.1182
13851TIP3    H263045   5.035   1.928  14.232  0.2299 -2.2960 -1.8507
13852TIP3   OH263046   3.346   1.064  15.229  0.2107  0.1352  0.0157
13852TIP3    H163047   3.406   1.137  15.245 -0.0964  0.3070  0.3985
13852TIP3    H263048   3.301   1.052  15.313  1.0778 -1.2490  0.3138
13853TIP3   OH263049   3.882   4.570   4.098  0.2500  0.2419 -0.5220
13853TIP3    H163050   3.897   4.506   4.168 -1.4019  1.1100  0.6735
13853TIP3    H263051   3.904   4.654   4.137 -0.8115  0.7480 -0.9868
13854TIP3   OH263052   5.554   4.549   1.198  0.1448  0.3833 -0.0848
13854TIP3    H163053   5.539   4.505   1.282 -2.1625  0.8292 -0.2182
13854TIP3    H263054   5.612   4.622   1.219 -0.4195  0.4993  1.1181
13855TIP3   OH263055   6.235   1.747  11.662 -0.0215  0.0396 -0.1979
13855TIP3    H163056   6.167   1.760  11.595  1.5375  1.5177 -1.5881
13855TIP3    H263057   6.209   1.805  11.734 -0.8851 -0.3841 -0.1471
13856TIP3   OH263058   3.240   6.714   6.219  0.0741 -0.0515 -0.2625
13856TIP3    H163059   3.311   6.661   6.183  0.7416  1.1070 -0.7212
13856TIP3    H263060   3.273   6.804   6.216 -0.9179  0.3801  0.7311
13857TIP3   OH263061   6.408   3.560   1.484 -0.3245  0.3365  0.1616
13857TIP3    H163062   6.457   3.500   1.540  1.2707  0.9289 -0.5484
13857TIP3    H263063   6.356   3.503   1.427 -2.0391 -0.2844  2.1888
13858TIP3   OH263064   3.980   3.331  15.500  0.2290  0.5417 -0.5390
13858TIP3    H163065   3.959   3.318  15.593  0.4001 -0.5334 -0.6380
13858TIP3    H263066   3.936   3.413  15.477  1.8569  1.9580  1.0011
13859TIP3   OH263067   4.261   0.018   1.635  0.0028  0.2469 -0.3785
13859TIP3    H163068   4.304   0.099   1.664 -0.9172  0.9272 -0.8962
13859TIP3    H263069   4.333  -0.036   1.602  0.7162  0.5638  0.5895
13860TIP3   OH263070   3.581   5.195  14.944  1.1060  0.8314 -0.7907
13860TIP3    H163071   3.488   5.212  14.961  1.4578  1.7844  0.2780
13860TIP3    H263072   3.581   5.117  14.888 -0.3244  0.6810 -0.6186
13861TIP3   OH263073   3.987   1.804   0.405 -0.2727  1.1172 -0.2114
13861TIP3    H163074   3.918   1.793   0.341  0.5636  0.5153 -1.0325
13861TIP3    H263075   3.946   1.784   0.489 -1.1029  0.8411 -0.6752
13862TIP3   OH263076   1.032   0.531   0.065 -0.0865  0.6513 -0.2711
13862TIP3    H163077   1.000   0.459   0.010  1.3019 -0.6209  0.5042
13862TIP3    H263078   1.040   0.493   0.153 -1.2950  2.3565  0.6487
13863TIP3   OH263079   2.130   2.762   5.422 -0.5928  0.1525  0.1606
13863TIP3    H163080   2.202   2.760   5.359 -1.4123  2.6149 -0.9721
13863TIP3    H263081   2.172   2.787   5.505  0.1145 -0.4472 -0.0005
13864TIP3   OH263082   1.703   3.553   2.392 -0.0601 -0.4356 -0.0404
13864TIP3    H163083   1.771   3.620   2.383  0.1851 -0.8267 -1.2259
13864TIP3    H263084   1.629   3.600   2.431  1.6229 -0.5167  3.6578
13865TIP3   OH263085   0.441   1.687   1.860  0.2250 -0.0437  0.4631
13865TIP3    H163086   0.400   1.619   1.805 -0.2093  1.4049 -1.0807
13865TIP3    H263087   0.368   1.726   1.908 -0.0979  1.5557 -1.2009
13866TIP3   OH263088   1.322   3.736  16.591  0.2392  0.6514 -0.1603
13866TIP3    H163089   1.261   3.666  16.568  0.7833  1.0348 -3.1576
13866TIP3    H263090   1.302   3.756  16.682 -0.4735 -2.8247  0.5879
13867TIP3   OH263091   5.870   4.987   4.595  0.7165 -1.1490 -0.4525
13867TIP3    H163092   5.948   5.001   4.648  1.4574 -0.8421 -1.6017
13867TIP3    H263093   5.899   5.000   4.505 -1.3243  2.4629 -0.7930
13868TIP3   OH263094   1.174   1.003   0.321 -0.7619  0.4892 -0.1722
13868TIP3    H163095   1.080   1.021   0.318 -0.6397  1.1006 -0.4894
13868TIP3    H263096   1.188   0.938   0.252 -0.6175  2.0256 -1.6489
13869TIP3   OH263097   2.674   3.411  14.607 -0.0481  0.1560 -0.6645
13869TIP3    H163098   2.678   3.377  14.696  1.3187  1.2008 -0.2986
13869TIP3    H263099   2.683   3.334  14.551 -0.5071 -0.4591  0.0906
13870TIP3   OH263100   5.908   1.438   1.959  0.2249  0.0486 -0.9911
13870TIP3    H163101   5.992   1.403   1.988  0.4963  1.4264 -0.0288
13870TIP3    H263102   5.878   1.492   2.032 -0.6765  0.9192 -1.9733
13871TIP3   OH263103   5.096   0.734  13.925  0.1143 -0.4370 -0.0668
13871TIP3    H163104   5.146   0.800  13.877  1.2926 -0.3221  1.2581
13871TIP3    H263105   5.016   0.779  13.952  1.1805  0.6776  1.3508
13872TIP3   OH263106   2.087   2.113  12.893  0.2490 -0.3772 -0.5810
13872TIP3    H163107   2.092   2.119  12.988  0.8257 -0.9625 -0.5685
13872TIP3    H263108   1.994   2.097  12.875 -0.0752  0.9586 -0.2055
13873TIP3   OH263109   0.839   6.587   3.622  0.1831  0.0224  0.2019
13873TIP3    H163110   0.787   6.529   3.566  0.9894 -0.3313 -0.1806
13873TIP3    H263111   0.911   6.533   3.653  1.7972  1.1743 -1.3550
13874TIP3   OH263112   0.123   0.349   0.173  0.4335  0.6528  0.6503
13874TIP3    H163113   0.118   0.265   0.219  0.2773  0.1282 -0.3057
13874TIP3    H263114   0.031   0.374   0.158  0.4497 -0.3113 -1.3624
13875TIP3   OH263115   5.972   4.511   5.321  0.7986 -0.2669 -0.0072
13875TIP3    H163116   5.910   4.492   5.251  0.5614 -0.2420  0.1917
13875TIP3    H263117   5.993   4.603   5.311  0.3700 -0.1364  0.2595
13876TIP3   OH263118   2.214   4.471   5.739 -0.0530 -0.1721 -0.2160
13876TIP3    H163119   2.157   4.420   5.796  0.1639  0.3423  0.4703
13876TIP3    H263120   2.302   4.439   5.758  0.3559  1.9198  1.8627
13877TIP3   OH263121   3.591   1.618   3.352 -0.2042  0.4167 -0.5565
13877TIP3    H163122   3.562   1.611   3.443  0.8507 -0.9650 -0.2944
13877TIP3    H263123   3.526   1.567   3.302  0.8318 -1.3728 -0.1635
13878TIP3   OH263124   0.675   4.055   0.131  0.1432 -0.1147  0.0912
13878TIP3    H163125   0.644   3.972   0.094  0.1438  0.8604 -2.3350
13878TIP3    H263126   0.763   4.065   0.095  1.2789 -0.3336  2.6341
13879TIP3   OH263127   1.078   4.801  12.311  0.2764  0.3064  0.1522
13879TIP3    H163128   1.092   4.865  12.380 -0.5615  0.2432  0.4006
13879TIP3    H263129   1.096   4.716  12.353 -0.4409  0.2520  0.3680
13880TIP3   OH263130   4.536   6.279  15.092  0.3829  0.2060  0.0528
13880TIP3    H163131   4.598   6.351  15.103  1.8363 -1.0217  0.4453
13880TIP3    H263132   4.476   6.308  15.024  0.9251  1.7649  0.1972
13881TIP3   OH263133   5.716   3.408   6.021  0.4048 -0.3024 -0.5927
13881TIP3    H163134   5.753   3.401   5.933  0.2985  1.1962 -0.7784
13881TIP3    H263135   5.784   3.454   6.071  1.4164 -2.9938  0.7268
13882TIP3   OH263136   6.377   4.561  11.777  0.4035 -0.7135  0.6725
13882TIP3    H163137   6.410   4.521  11.696 -1.4405 -2.3140  0.6272
13882TIP3    H263138   6.438   4.531  11.844  1.4209 -0.1408  0.0316
13883TIP3   OH263139   1.380   5.265  10.705  0.2626 -0.7358 -0.4768
13883TIP3    H163140   1.331   5.310  10.636  1.5524 -0.1261 -1.0310
13883TIP3    H263141   1.374   5.322  10.781  0.8371 -0.2284 -0.8049
13884TIP3   OH263142   0.936   1.883  13.161  0.1871  0.0768 -0.2048
13884TIP3    H163143   0.854   1.874  13.211  0.2648  0.0433 -0.0834
13884TIP3    H263144   0.943   1.977  13.145  0.0850  0.0715 -0.2813
13885TIP3   OH263145   1.263   5.292   6.009  0.3875  0.2129 -0.2031
13885TIP3    H163146   1.279   5.212   6.058 -0.1832 -0.1773 -0.6369
13885TIP3    H263147   1.331   5.352   6.038  0.9159 -0.4797  0.0137
13886TIP3   OH263148   2.552   3.178   4.348 -0.6155  0.3698  0.3577
13886TIP3    H163149   2.479   3.220   4.304  0.8499  1.2500 -1.3535
13886TIP3    H263150   2.562   3.226   4.430 -2.0308  0.0944  0.7317
13887TIP3   OH263151   3.790   5.355  12.741  0.0983 -0.7144  0.0646
13887TIP3    H163152   3.808   5.448  12.729 -1.4116 -0.2638  1.0777
13887TIP3    H263153   3.799   5.341  12.836 -2.7771 -0.8571  0.3950
13888TIP3   OH263154   3.095   4.994  12.555  0.8106  0.4614 -0.4543
13888TIP3    H163155   3.105   5.089  12.555 -0.4609  0.6286  1.0111
13888TIP3    H263156   3.009   4.979  12.594  1.3752 -1.3154  0.1795
13889TIP3   OH263157   4.841   3.975  11.092 -0.3156  0.5049 -0.6710
13889TIP3    H163158   4.903   3.911  11.126  0.5678 -1.0549 -4.6601
13889TIP3    H263159   4.755   3.944  11.120  0.2753 -1.1861 -0.6274
13890TIP3   OH263160   1.678   2.061   5.762 -0.2049  0.0408 -0.2541
13890TIP3    H163161   1.633   2.013   5.831  0.4636  0.9364  0.8296
13890TIP3    H263162   1.766   2.075   5.796  0.7662 -1.1572 -2.0896
13891TIP3   OH263163   1.847   0.398  15.363  0.1432 -0.0652 -0.1607
13891TIP3    H163164   1.878   0.489  15.370 -1.3122  0.3560  1.1941
13891TIP3    H263165   1.808   0.379  15.448 -1.4817 -1.2361 -1.1225
13892TIP3   OH263166   2.544   3.973   0.045 -0.1542  0.1873 -0.1752
13892TIP3    H163167   2.562   4.028   0.122 -3.1859 -0.9443  1.5123
13892TIP3    H263168   2.478   4.021  -0.004  0.5470  0.1203 -1.2128
13893TIP3   OH263169   3.030   5.409  13.894 -0.4175 -0.1793  0.3782
13893TIP3    H163170   3.054   5.448  13.978 -0.3633  1.4825 -0.3619
13893TIP3    H263171   3.008   5.484  13.838  3.1054 -0.8474 -2.2674
13894TIP3   OH263172   2.017   6.482   4.079  0.0686 -0.4673 -0.3654
13894TIP3    H163173   2.052   6.558   4.126 -1.3522 -1.5465  2.7691
13894TIP3    H263174   2.092   6.426   4.064  0.7018  0.2791 -0.0622
13895TIP3   OH263175   0.191   5.232   4.227 -0.4482  0.5456  0.0702
13895TIP3    H163176   0.130   5.162   4.247 -0.6009  0.8286  0.6076
13895TIP3    H263177   0.208   5.223   4.133  0.9460 -1.3418  0.4363
13896TIP3   OH263178   4.847   1.077  10.714 -0.0551  0.5320  0.1534
13896TIP3    H163179   4.890   0.992  10.705 -1.5720 -0.3316  0.7350
13896TIP3    H263180   4.915   1.135  10.747  0.3864 -1.1027  2.3644
13897TIP3   OH263181   6.159   5.878  14.855  0.3080  0.0433  0.0479
13897TIP3    H163182   6.221   5.949  14.871  2.3208 -1.8469  1.1685
13897TIP3    H263183   6.209   5.798  14.869 -1.6999 -1.6684 -1.7196
13898TIP3   OH263184   4.248   3.825   3.997 -0.3707  0.1644 -0.4889
13898TIP3    H163185   4.255   3.917   4.022  0.0068 -0.0760  0.3408
13898TIP3    H263186   4.311   3.815   3.925  1.7565 -0.0545  1.2869
13899TIP3   OH263187   2.900   5.937   4.362  0.2431 -0.5055 -0.4814
13899TIP3    H163188   2.949   5.911   4.284 -0.0748 -1.2461 -0.4454
13899TIP3    H263189   2.966   5.974   4.421  0.5014 -0.0220 -1.0563
13900TIP3   OH263190   1.836   6.347  14.222  0.1579  0.3241  0.3562
13900TIP3    H163191   1.910   6.394  14.184 -0.6767  1.5484  0.1761
13900TIP3    H263192   1.850   6.255  14.198  1.5375  0.5593  0.2224
13901TIP3   OH263193   6.712   4.347   1.142  0.1663  0.3934 -0.1421
13901TIP3    H163194   6.771   4.414   1.106  0.5312  0.1728  0.0362
13901TIP3    H263195   6.697   4.287   1.070  0.0572  0.5177 -0.2240
13902TIP3   OH263196   4.189   2.305  14.703  0.2635 -0.2716 -0.3270
13902TIP3    H163197   4.179   2.343  14.616  0.0582 -1.4897 -0.8545
13902TIP3    H263198   4.206   2.380  14.760 -0.1326  0.6004 -1.3219
13903TIP3   OH263199   3.332   3.089   3.486  0.6570 -0.3887  0.5055
13903TIP3    H163200   3.311   3.118   3.574  1.0872  3.0391 -0.3890
13903TIP3    H263201   3.425   3.067   3.489  0.6699 -0.2815  0.9024
13904TIP3   OH263202   1.994   3.936  11.367  0.6712  0.0244  0.7170
13904TIP3    H163203   1.925   3.881  11.404 -0.6017  1.5151  0.6785
13904TIP3    H263204   1.961   3.961  11.281  1.3804  0.5600  0.5942
13905TIP3   OH263205   2.592   4.147  12.766 -0.1527  0.8132 -0.4690
13905TIP3    H163206   2.571   4.122  12.856  1.8567  0.7329  0.0094
13905TIP3    H263207   2.593   4.243  12.767 -1.8723  0.8661 -0.8641
13906TIP3   OH263208   3.502   6.494   3.703 -0.1290 -0.2757  0.1257
13906TIP3    H163209   3.433   6.470   3.640 -0.5876  2.9679 -0.7552
13906TIP3    H263210   3.461   6.559   3.760  1.7734  0.6715  0.4941
13907TIP3   OH263211   3.325   4.949  14.046 -0.3535 -0.9396  0.2716
13907TIP3    H163212   3.379   4.958  13.967  0.5846  0.2557  1.0150
13907TIP3    H263213   3.252   5.009  14.032 -1.0074 -1.8326 -0.3050
13908TIP3   OH263214   1.886   2.977   2.464  0.9032 -0.2327  0.0860
13908TIP3    H163215   1.815   2.961   2.526 -0.6205 -0.7640 -1.7056
13908TIP3    H263216   1.904   2.891   2.427 -0.2489  0.4709 -2.2624
13909TIP3   OH263217   5.882   4.245   1.051  0.3750  0.0174 -0.0463
13909TIP3    H163218   5.946   4.176   1.036  1.7588  1.4069 -0.8014
13909TIP3    H263219   5.898   4.273   1.141 -0.7572 -1.1437  0.5629
13910TIP3   OH263220   4.562   3.419   1.167 -0.4704  0.3345  0.0579
13910TIP3    H163221   4.640   3.419   1.222  0.2268  1.2360 -0.8928
13910TIP3    H263222   4.555   3.330   1.133 -0.9985 -0.2788  1.6891
13911TIP3   OH263223   3.989   5.516  13.230 -0.3415  0.3300  0.3469
13911TIP3    H163224   3.983   5.612  13.233 -1.4503  0.2572  1.5723
13911TIP3    H263225   4.021   5.497  13.142  1.9567  1.8996  0.7533
13912TIP3   OH263226   5.625   5.988   0.656  0.3426 -0.0679  0.0246
13912TIP3    H163227   5.707   5.989   0.706 -0.8312 -2.0831  2.2452
13912TIP3    H263228   5.633   5.913   0.597  0.4968  0.3699 -0.5125
13913TIP3   OH263229   0.609   3.580   2.165 -0.4860 -0.2414 -0.5913
13913TIP3    H163230   0.541   3.518   2.190 -1.2599 -0.1409 -2.3115
13913TIP3    H263231   0.582   3.663   2.206  0.5642 -0.9660  1.7276
13914TIP3   OH263232   5.884   2.038   4.747 -0.7511 -0.2202 -0.3404
13914TIP3    H163233   5.855   2.075   4.664 -0.1896  2.5689  0.6001
13914TIP3    H263234   5.979   2.034   4.739 -0.7533 -0.7144 -0.1259
13915TIP3   OH263235   6.022   3.103   3.928  0.0232  0.1682  0.2757
13915TIP3    H163236   6.106   3.142   3.951  0.2890 -0.4499  0.3735
13915TIP3    H263237   5.961   3.177   3.926  1.0243  1.0298 -2.2935
13916TIP3   OH263238   0.143   5.819   6.539 -0.2704  0.4887  0.3318
13916TIP3    H163239   0.063   5.818   6.487 -0.1310 -0.7687  0.1199
13916TIP3    H263240   0.192   5.895   6.507  0.5011 -1.0549 -2.4472
13917TIP3   OH263241   3.300   0.423   0.871  0.0285  0.5267 -0.1995
13917TIP3    H163242   3.296   0.329   0.856  0.5420  0.2099  1.4846
13917TIP3    H263243   3.208   0.450   0.881 -0.3247  0.6598 -2.8555
13918TIP3   OH263244   0.973   4.004   0.185  0.3699  0.2663 -0.4069
13918TIP3    H163245   1.004   4.094   0.186 -0.8361  0.7017  0.9106
13918TIP3    H263246   0.989   3.971   0.273 -0.5183 -0.3187 -0.4444
13919TIP3   OH263247   0.262   4.616   1.164  0.3166 -0.3519 -0.2015
13919TIP3    H163248   0.348   4.610   1.124  0.2538  0.0915 -0.4057
13919TIP3    H263249   0.209   4.551   1.118  0.2079  0.2450 -0.9447
13920TIP3   OH263250   0.063   3.611   5.392  0.5017 -0.1558  0.2338
13920TIP3    H163251   0.097   3.526   5.363  1.7063  1.0075 -2.1368
13920TIP3    H263252  -0.016   3.624   5.340  0.5458  0.3218  0.2803
13921TIP3   OH263253   2.492   2.213  16.238  0.1085 -0.5656  0.2888
13921TIP3    H163254   2.432   2.166  16.297 -1.1919 -0.4097 -0.8562
13921TIP3    H263255   2.515   2.292  16.286 -1.6265 -0.0190  0.2766
13922TIP3   OH263256   4.969   0.462  15.003  0.1826  0.1004  0.1177
13922TIP3    H163257   4.926   0.500  15.079  0.6385  3.5085 -1.1784
13922TIP3    H263258   4.900   0.413  14.958 -0.4655 -0.6305  1.8065
13923TIP3   OH263259   4.925   6.325   0.788  0.5240 -0.2010  0.2300
13923TIP3    H163260   4.946   6.306   0.697  1.1732 -0.2578  0.3900
13923TIP3    H263261   4.878   6.247   0.818  0.0024 -0.0427 -0.1444
13924TIP3   OH263262   3.266   1.645  11.643 -0.2536 -0.0644  0.1331
13924TIP3    H163263   3.174   1.670  11.638 -0.5173 -1.1492 -2.4331
13924TIP3    H263264   3.275   1.599  11.726 -2.0088  0.0990  0.4408
13925TIP3   OH263265   0.338   0.738  12.319  0.9168 -0.0282  0.6135
13925TIP3    H163266   0.348   0.750  12.225 -2.0703 -1.6664 -0.0723
13925TIP3    H263267   0.304   0.821  12.351 -0.3948 -0.1809 -0.2866
13926TIP3   OH263268   4.908   3.096   4.822 -0.7834 -1.2202  0.2874
13926TIP3    H163269   4.984   3.042   4.801  1.5154  1.7894  0.2316
13926TIP3    H263270   4.868   3.116   4.738 -0.2037 -0.8885  0.0904
13927TIP3   OH263271   6.120   0.792   4.541  0.5309 -0.4736  0.4685
13927TIP3    H163272   6.179   0.729   4.499 -1.6142 -1.4375 -1.2934
13927TIP3    H263273   6.067   0.739   4.601 -0.2249 -0.0757  0.1579
13928TIP3   OH263274   5.871   3.285   1.444 -0.0727  0.3025  0.1281
13928TIP3    H163275   5.795   3.230   1.464  0.0379 -0.0198 -0.3479
13928TIP3    H263276   5.859   3.362   1.500 -0.1931 -0.2226  0.8400
13929TIP3   OH263277   1.296   1.412  12.339 -0.3469 -0.3484  0.7853
13929TIP3    H163278   1.389   1.399  12.324 -0.6653 -1.0018 -0.8309
13929TIP3    H263279   1.268   1.333  12.387 -0.2555 -0.6588  0.3358
13930TIP3   OH263280   3.316   3.938  15.309  0.1267  0.2799 -0.1623
13930TIP3    H163281   3.301   3.844  15.306 -0.5931  0.4313 -1.6030
13930TIP3    H263282   3.371   3.957  15.233  0.7055  0.9564  0.4046
13931TIP3   OH263283   5.970   3.148   3.058 -0.0759 -0.7467 -0.2527
13931TIP3    H163284   6.047   3.206   3.061 -0.8319  0.3021 -0.5515
13931TIP3    H263285   5.989   3.087   2.987 -0.1491  0.4513 -1.3460
13932TIP3   OH263286   1.026   5.638   0.873  0.0749 -0.0188  0.2768
13932TIP3    H163287   1.109   5.596   0.893 -0.2689 -0.8983 -0.0349
13932TIP3    H263288   0.979   5.573   0.820 -0.5002  0.7607 -0.1994
13933TIP3   OH263289   3.453   2.176   4.517  0.1226 -0.2961 -0.0541
13933TIP3    H163290   3.384   2.233   4.550  0.3496 -0.1509  0.1687
13933TIP3    H263291   3.520   2.236   4.484  1.1541 -0.3918  1.7694
13934TIP3   OH263292   4.331   5.184  15.618  0.0630  0.1403  0.6929
13934TIP3    H163293   4.309   5.268  15.657  0.4982  1.3281 -1.4344
13934TIP3    H263294   4.426   5.179  15.621  0.0582 -0.1089  0.5098
13935TIP3   OH263295   1.292   4.649  12.171 -0.0372  0.3071 -0.1446
13935TIP3    H163296   1.243   4.620  12.094  2.4900 -0.6670 -1.4967
13935TIP3    H263297   1.248   4.606  12.245 -1.7871  0.3201 -1.1140
13936TIP3   OH263298   1.728   4.899  12.481  0.1947  0.0442 -0.6704
13936TIP3    H163299   1.820   4.879  12.496  0.4070  0.3136 -1.5800
13936TIP3    H263300   1.687   4.888  12.567  1.0827 -0.0095 -0.2454
13937TIP3   OH263301   1.653   3.284  12.930  0.2659 -0.5278 -0.4017
13937TIP3    H163302   1.749   3.276  12.928  0.3429 -0.4138  1.3823
13937TIP3    H263303   1.623   3.202  12.967 -0.2303 -0.0629  0.2402
13938TIP3   OH263304   0.453   6.410  14.287  0.2167 -0.1745  0.2153
13938TIP3    H163305   0.378   6.468  14.301  0.7387  0.8703 -1.1074
13938TIP3    H263306   0.437   6.370  14.202 -0.2314 -2.1973  1.1906
13939TIP3   OH263307   1.295   1.805   1.738  0.1740  0.3096  0.3700
13939TIP3    H163308   1.200   1.801   1.740  0.0530 -1.4494 -2.7262
13939TIP3    H263309   1.315   1.897   1.754 -2.0287  0.7243  1.0664
13940TIP3   OH263310   0.916   4.385  15.599  0.1586 -0.5976  0.0573
13940TIP3    H163311   0.978   4.436  15.652 -0.8278  2.1518 -1.2424
13940TIP3    H263312   0.833   4.431  15.610 -0.8084 -1.9688 -1.2283
13941TIP3   OH263313   2.389   3.744   0.727  0.0890 -0.2402  0.3161
13941TIP3    H163314   2.389   3.665   0.674  0.3937  0.7889 -1.3112
13941TIP3    H263315   2.431   3.810   0.671 -2.0317  1.6177  0.7509
13942TIP3   OH263316   3.222   2.914   1.222  0.3037  0.3802  0.6142
13942TIP3    H163317   3.236   2.822   1.241  0.2722  0.3509  0.4970
13942TIP3    H263318   3.236   2.922   1.127 -1.7980  0.0893  0.2334
13943TIP3   OH263319   0.445   3.990   2.679 -0.9208  0.4544 -0.3630
13943TIP3    H163320   0.379   4.010   2.745 -1.1396  1.4561 -0.8593
13943TIP3    H263321   0.418   4.042   2.603  1.6178  2.6458  0.1011
13944TIP3   OH263322   3.061   0.049   0.037 -0.7159  0.1197 -0.3132
13944TIP3    H163323   3.083   0.049   0.131 -0.0582 -1.0759 -0.4494
13944TIP3    H263324   3.077   0.140   0.009  1.2673 -0.0005  0.2687
13945TIP3   OH263325   1.625   2.904  16.867  1.0246 -0.4004 -0.1715
13945TIP3    H163326   1.640   2.990  16.907 -3.3413  0.5837 -0.2432
13945TIP3    H263327   1.619   2.844  16.942 -2.2669  0.6107  0.5472
13946TIP3   OH263328   1.334   0.132   0.333 -0.7770 -0.0177  0.2374
13946TIP3    H163329   1.418   0.165   0.300  0.0518 -0.5927  1.6879
13946TIP3    H263330   1.330   0.162   0.423 -2.1643  0.0102  0.1892
13947TIP3   OH263331   0.408   0.682   1.667 -0.3063  0.1344  0.7383
13947TIP3    H163332   0.463   0.610   1.639 -1.8026 -0.5640 -0.5387
13947TIP3    H263333   0.325   0.641   1.692 -0.5133  1.2179  1.9465
13948TIP3   OH263334   3.103   1.655  12.052 -0.0068  0.1238  0.0854
13948TIP3    H163335   3.189   1.692  12.069  0.5671 -0.5026 -1.2773
13948TIP3    H263336   3.086   1.597  12.126  0.7958  0.1832  0.3198
13949TIP3   OH263337   6.179   6.687  15.820  0.2096 -0.0913  0.3603
13949TIP3    H163338   6.135   6.691  15.735 -1.6189 -1.6237  1.1537
13949TIP3    H263339   6.148   6.764  15.867  0.3430  0.1577  0.0453
13950TIP3   OH263340   5.816   5.006  11.678 -0.3444 -0.1695  0.1323
13950TIP3    H163341   5.743   4.959  11.638 -1.3414  0.4853  1.1159
13950TIP3    H263342   5.852   4.945  11.742 -2.4178  0.7231  2.2956
13951TIP3   OH263343   5.234   5.284  14.055  0.5382  0.6206  0.1546
13951TIP3    H163344   5.160   5.340  14.077  0.6136  0.0054  2.0958
13951TIP3    H263345   5.258   5.242  14.137  0.4755 -2.3088 -1.2063
13952TIP3   OH263346   4.117   5.731   0.370 -0.0974  0.0467  0.1708
13952TIP3    H163347   4.033   5.765   0.402 -1.5951 -0.1833 -3.0455
13952TIP3    H263348   4.092   5.661   0.309  2.4806 -0.3905 -0.4840
13953TIP3   OH263349   1.623   6.452   2.541 -0.3449  0.1437 -0.0897
13953TIP3    H163350   1.676   6.510   2.486  0.1038 -0.5011 -0.3490
13953TIP3    H263351   1.677   6.436   2.618  0.2943 -1.3598 -0.8317
13954TIP3   OH263352   1.868   6.789   5.297 -0.5226  0.5693  0.0910
13954TIP3    H163353   1.804   6.836   5.351 -0.0127  0.9210  0.3897
13954TIP3    H263354   1.821   6.710   5.268 -0.9159  0.5531  0.7543
13955TIP3   OH263355   1.791   2.851   3.144 -0.6321  0.5285  0.0675
13955TIP3    H163356   1.833   2.844   3.230 -0.0528 -1.4451 -0.3311
13955TIP3    H263357   1.707   2.805   3.154 -0.0270 -0.8190 -0.7001
13956TIP3   OH263358   3.258   2.766  13.695  0.2746 -0.0667 -0.5238
13956TIP3    H163359   3.250   2.725  13.609 -0.4378 -0.4836 -0.2728
13956TIP3    H263360   3.227   2.699  13.756  0.8512  0.1925  0.0714
13957TIP3   OH263361   5.973   5.934   4.332  0.8492  0.2342  0.2797
13957TIP3    H163362   5.970   5.917   4.237  1.3272 -0.7430  0.4304
13957TIP3    H263363   5.884   5.963   4.353  0.1894 -1.3408 -0.1608
13958TIP3   OH263364   3.027   6.652   6.062  0.1973 -0.4821  0.3544
13958TIP3    H163365   3.104   6.676   6.114  1.5813 -0.7896 -1.4588
13958TIP3    H263366   3.025   6.717   5.991 -1.8771  0.1725  0.9597
13959TIP3   OH263367   5.485   6.731  16.740  0.6558  0.0839  0.0724
13959TIP3    H163368   5.483   6.766  16.651  0.6235 -0.4053 -0.1225
13959TIP3    H263369   5.485   6.636  16.728  0.6830  0.0170  0.5946
13960TIP3   OH263370   3.131   6.383  11.942 -0.3277  0.0210 -0.0817
13960TIP3    H163371   3.056   6.326  11.928 -0.7582  0.5181  0.1736
13960TIP3    H263372   3.146   6.380  12.037  2.4913 -3.2285 -0.4460
13961TIP3   OH263373   3.934   5.269  12.014 -0.0833 -0.4731  0.6869
13961TIP3    H163374   4.021   5.251  11.979  0.6557  2.4709  0.7226
13961TIP3    H263375   3.913   5.191  12.066  2.7905 -1.0532  1.1965
13962TIP3   OH263376   2.286   3.929  12.875 -0.1228 -0.2207 -0.1836
13962TIP3    H163377   2.365   3.905  12.826 -0.7866 -0.8228 -0.9869
13962TIP3    H263378   2.253   3.845  12.908  0.3259  0.1674  1.3623
13963TIP3   OH263379   2.635   6.765  14.633  0.5921 -0.0721 -0.3866
13963TIP3    H163380   2.558   6.752  14.688 -0.0178  1.9881 -0.6926
13963TIP3    H263381   2.617   6.714  14.554  1.5531 -3.2181  1.2503
13964TIP3   OH263382   1.526   4.616   6.575 -0.3292 -0.1162 -0.1254
13964TIP3    H163383   1.587   4.547   6.550 -0.3318  0.2526 -1.2104
13964TIP3    H263384   1.570   4.697   6.550 -1.0213  0.1834 -0.3969
13965TIP3   OH263385   1.723   2.888   0.853 -0.3387  0.0632 -0.1281
13965TIP3    H163386   1.645   2.909   0.800 -0.1250 -1.7510 -1.2305
13965TIP3    H263387   1.718   2.794   0.867  0.4951  0.2464  1.7628
13966TIP3   OH263388   6.718   0.455  17.009  0.0526  0.1978 -0.4485
13966TIP3    H163389   6.808   0.432  17.033  0.3791  0.9811 -0.8740
13966TIP3    H263390   6.667   0.436  17.087  0.7776  0.8483  0.1985
13967TIP3   OH263391   5.568   4.984  14.593  0.4133 -0.0243  0.2501
13967TIP3    H163392   5.661   4.961  14.594  0.3572 -0.5870 -1.8981
13967TIP3    H263393   5.542   4.973  14.501 -1.4599  1.3894  0.5565
13968TIP3   OH263394   1.090   1.159   3.496  0.3237  0.3642 -0.1755
13968TIP3    H163395   1.171   1.187   3.455 -0.2297  1.3817 -0.6135
13968TIP3    H263396   1.078   1.218   3.570 -0.0242  0.2230 -0.1137
13969TIP3   OH263397   3.057   6.234  16.677  0.1684 -0.3302 -0.1389
13969TIP3    H163398   3.072   6.149  16.718  2.9088  0.1164  0.0410
13969TIP3    H263399   3.015   6.287  16.745 -1.7452 -1.5481 -0.3235
13970TIP3   OH263400   0.204   6.802   5.586  0.0670  0.2643  0.0049
13970TIP3    H163401   0.283   6.816   5.640  0.2256  2.3335 -0.6747
13970TIP3    H263402   0.231   6.739   5.520  1.9484  2.5212 -1.5734
13971TIP3   OH263403   5.887   3.459   0.328 -0.5478  0.0332  0.3696
13971TIP3    H163404   5.897   3.553   0.315  0.4205 -0.2990 -1.5428
13971TIP3    H263405   5.792   3.447   0.340 -0.7557  1.1783  0.0030
13972TIP3   OH263406   4.819   4.229  13.184  0.2086  0.4703  0.1414
13972TIP3    H163407   4.841   4.207  13.093 -0.8600  3.8626 -1.1099
13972TIP3    H263408   4.889   4.191  13.236  1.7943 -0.1417 -2.2737
13973TIP3   OH263409   4.718   0.543   2.341 -0.1277  0.6536  0.1598
13973TIP3    H163410   4.799   0.553   2.290 -0.1261  1.0143  0.2298
13973TIP3    H263411   4.648   0.560   2.278 -0.3275 -2.8164 -0.7524
13974TIP3   OH263412   1.226   1.751   0.556 -0.4656  0.1569 -0.1272
13974TIP3    H163413   1.322   1.755   0.562 -0.5534  0.5975  1.6645
13974TIP3    H263414   1.204   1.806   0.481  0.7111 -0.4129 -0.9108
13975TIP3   OH263415   1.383   1.523  11.525 -0.2474  0.2892  0.4419
13975TIP3    H163416   1.327   1.524  11.447 -1.1383 -0.6430  1.0319
13975TIP3    H263417   1.340   1.460  11.583  0.5108  0.8224  1.6022
13976TIP3   OH263418   5.067   2.475   3.960 -0.2332 -0.3674 -0.3898
13976TIP3    H163419   5.017   2.403   3.998 -1.7732 -0.3763 -2.2926
13976TIP3    H263420   5.158   2.455   3.982 -0.7511 -2.1251  0.3205
13977TIP3   OH263421   0.155   2.634   3.169 -0.3273  0.5001  0.1104
13977TIP3    H163422   0.116   2.715   3.203  0.1938  0.1926  1.5412
13977TIP3    H263423   0.104   2.613   3.091 -1.0037  1.7599  0.1895
13978TIP3   OH263424   2.754   0.028   4.810  0.6741  0.2227  0.4461
13978TIP3    H163425   2.786   0.108   4.851  0.4364  0.4280  0.2387
13978TIP3    H263426   2.726  -0.027   4.882 -0.2072  0.7808  0.5453
13979TIP3   OH263427   0.175   1.436  13.959  0.5647 -0.1313 -0.0185
13979TIP3    H163428   0.097   1.446  13.904  1.7892  2.7150 -1.4370
13979TIP3    H263429   0.247   1.465  13.903  1.9753  2.4364  2.8405
13980TIP3   OH263430   6.460   2.592  10.688  0.1541 -0.0843 -0.2251
13980TIP3    H163431   6.370   2.568  10.667  0.0087 -0.0866  0.3798
13980TIP3    H263432   6.487   2.528  10.754  0.9459 -0.7038 -1.1304
13981TIP3   OH263433   1.203   6.579   6.479  0.1287 -0.3664  0.1544
13981TIP3    H163434   1.190   6.661   6.431 -0.3105 -0.4069  0.1966
13981TIP3    H263435   1.296   6.559   6.469 -0.3912 -1.8482 -3.0889
13982TIP3   OH263436   4.477   1.686   3.849 -0.5113 -0.2529 -0.2740
13982TIP3    H163437   4.570   1.693   3.826 -0.2836 -0.2078  0.6529
13982TIP3    H263438   4.437   1.649   3.770 -0.0083  1.4179 -1.3825
13983TIP3   OH263439   6.334   5.064   2.357  0.2267 -0.1984 -0.9710
13983TIP3    H163440   6.418   5.022   2.377  0.3529 -0.2154 -1.5373
13983TIP3    H263441   6.275   4.991   2.336  0.1419 -0.1658 -0.8480
13984TIP3   OH263442   2.532   5.925   1.241 -0.0297  0.1032 -0.2442
13984TIP3    H163443   2.444   5.936   1.206  0.7021  0.8461 -1.9323
13984TIP3    H263444   2.564   6.014   1.254  0.5593 -0.1585  0.1575
13985TIP3   OH263445   2.825   1.733   2.439  0.2335 -0.2961  0.0695
13985TIP3    H163446   2.748   1.693   2.479 -0.5631  0.1516 -0.9658
13985TIP3    H263447   2.878   1.763   2.513 -0.6597 -0.4806  0.7990
13986TIP3   OH263448   0.388   3.003  11.584  0.1576  0.1413  0.2051
13986TIP3    H163449   0.428   2.949  11.515  0.7847  0.1807  0.5394
13986TIP3    H263450   0.375   3.088  11.543 -1.4117 -0.4107 -0.5294
13987TIP3   OH263451   2.415   6.423  10.247 -0.5517 -0.5097  0.1023
13987TIP3    H163452   2.404   6.414  10.342  1.6307 -0.8876  0.3737
13987TIP3    H263453   2.351   6.363  10.209 -1.7022 -0.0801  1.3235
13988TIP3   OH263454   0.208   2.857   1.822 -0.5495  0.1699  0.0117
13988TIP3    H163455   0.255   2.940   1.817  1.5315 -0.9898 -0.5834
13988TIP3    H263456   0.268   2.797   1.865 -2.2108 -0.9373  0.9040
13989TIP3   OH263457   1.673   6.292  13.290 -0.1102  0.1580 -0.2565
13989TIP3    H163458   1.588   6.256  13.265 -0.8454  2.2787 -1.0400
13989TIP3    H263459   1.691   6.358  13.223  1.2674  1.0695  0.9586
13990TIP3   OH263460   6.508   4.902   2.480 -0.5067  1.0138  0.1020
13990TIP3    H163461   6.472   4.936   2.563 -0.8689  0.3964  0.2027
13990TIP3    H263462   6.602   4.919   2.487 -0.4392  0.3682  0.9372
13991TIP3   OH263463   2.804   6.076  12.182 -0.3316 -0.3014 -0.0838
13991TIP3    H163464   2.815   5.997  12.235 -0.3901 -0.1489  0.1573
13991TIP3    H263465   2.893   6.102  12.157 -0.0373  1.2044  2.2612
13992TIP3   OH263466   6.779   1.208   4.890 -0.3536  0.0309 -0.5202
13992TIP3    H163467   6.714   1.260   4.938 -0.0671 -1.6103  1.8097
13992TIP3    H263468   6.738   1.122   4.881  1.5162 -1.1433  1.3166
13993TIP3   OH263469   5.252   4.663  13.545  0.1866  0.1585 -0.2164
13993TIP3    H163470   5.327   4.720  13.561  0.4938 -0.0294 -0.9340
13993TIP3    H263471   5.194   4.677  13.620  1.4716 -0.5922  0.9647
13994TIP3   OH263472   1.882   3.473   1.235  0.1976  0.4947  0.1379
13994TIP3    H163473   1.968   3.468   1.191 -0.0533  0.4293 -0.3529
13994TIP3    H263474   1.903   3.497   1.325  0.7098  0.9120 -0.0815
13995TIP3   OH263475   4.119   5.713  16.785 -0.3992 -0.8164 -0.4304
13995TIP3    H163476   4.068   5.641  16.823 -0.6528 -0.5123 -0.1766
13995TIP3    H263477   4.120   5.779  16.854  1.7774 -1.4588  0.2282
13996TIP3   OH263478   0.032   2.896  16.023  0.6263 -0.3102  0.1249
13996TIP3    H163479  -0.017   2.815  16.008  0.4666 -0.3014  0.5899
13996TIP3    H263480  -0.018   2.964  15.977 -0.0968 -0.2074  1.0481
13997TIP3   OH263481   4.087   2.203   3.756  0.0561 -0.8873  0.0736
13997TIP3    H163482   4.106   2.142   3.685 -0.3134 -0.6399 -0.2354
13997TIP3    H263483   4.031   2.269   3.717  0.2818 -0.4605  0.4631
13998TIP3   OH263484   4.762   5.805   5.848 -0.3710  0.3232 -0.3268
13998TIP3    H163485   4.834   5.845   5.800 -0.1256 -0.4111 -0.5916
13998TIP3    H263486   4.688   5.808   5.787 -0.4552  0.6966 -0.2095
13999TIP3   OH263487   5.975   5.573  15.583 -0.0473  0.1442  0.2877
13999TIP3    H163488   5.900   5.582  15.524  0.5072 -0.5450 -0.5584
13999TIP3    H263489   5.981   5.479  15.600  2.9238 -0.4568 -2.8796
14000TIP3   OH263490   2.773   2.692  12.903  0.1366 -0.0654 -0.2776
14000TIP3    H163491   2.721   2.716  12.980  0.3486  0.3422 -0.2599
14000TIP3    H263492   2.807   2.604  12.924  2.0334  0.9139  1.0957
14001TIP3   OH263493   0.326   2.804  12.925 -0.3525  0.1234  0.9898
14001TIP3    H163494   0.403   2.833  12.876 -1.1426  2.8032  1.1470
14001TIP3    H263495   0.252   2.829  12.869 -1.2102  1.8397  2.7622
14002TIP3   OH263496   3.073   6.014  13.734 -0.5817 -0.1378  0.1521
14002TIP3    H163497   3.073   5.944  13.799 -2.5986 -1.3146 -1.0201
14002TIP3    H263498   3.072   5.969  13.650 -1.9923  1.2682 -0.6401
14003TIP3   OH263499   1.674   5.112   5.837  0.6890 -0.3786 -0.1149
14003TIP3    H163500   1.755   5.067   5.859  0.6663 -0.8443 -0.9213
14003TIP3    H263501   1.618   5.101   5.913  0.3593 -2.5121 -0.6052
14004TIP3   OH263502   0.278   5.281  16.858  0.0758 -0.1227  0.1736
14004TIP3    H163503   0.357   5.313  16.815  0.0416 -0.2408  0.0235
14004TIP3    H263504   0.295   5.293  16.952  0.1850  0.0497  0.1317
14005TIP3   OH263505   6.334   4.701   4.261  0.0789 -0.6173  0.0454
14005TIP3    H163506   6.388   4.770   4.222  0.5307 -0.3838  1.0367
14005TIP3    H263507   6.269   4.747   4.313 -0.0572 -0.9322  0.1575
14006TIP3   OH263508   6.065   0.013   0.051 -0.0405 -0.1755  0.6055
14006TIP3    H163509   6.075   0.023  -0.044  1.7048  0.0423  0.7642
14006TIP3    H263510   6.098   0.096   0.087 -2.2276  0.4162  1.3733
14007TIP3   OH263511   0.410   4.037   4.423  0.0705  0.1484  0.1536
14007TIP3    H163512   0.488   3.982   4.418 -0.1179 -0.4768  2.5176
14007TIP3    H263513   0.412   4.071   4.513 -1.9835  0.7066  0.0267
14008TIP3   OH263514   0.576   4.990  16.599  0.0004 -0.1755  0.1740
14008TIP3    H163515   0.574   4.993  16.504  1.3453 -0.4898  0.1173
14008TIP3    H263516   0.570   4.897  16.620  3.0736 -0.4485  0.2313
14009TIP3   OH263517   1.419   1.791   2.566 -0.2063  0.2836 -0.5037
14009TIP3    H163518   1.395   1.868   2.617 -0.5292 -0.3407  0.3058
14009TIP3    H263519   1.359   1.723   2.597 -0.2549 -0.1662 -1.5555
14010TIP3   OH263520   0.986   1.004  16.200 -0.6611  0.0717  0.3067
14010TIP3    H163521   0.976   1.004  16.295  0.9513  0.4791  0.4922
14010TIP3    H263522   0.898   0.983  16.168 -1.6627  1.6097  1.8356
14011TIP3   OH263523   5.398   5.290  12.493 -0.1364 -0.1125 -0.2581
14011TIP3    H163524   5.389   5.373  12.540  0.3452 -0.7526  1.0213
14011TIP3    H263525   5.424   5.315  12.405  1.0334  1.0735  0.3859
14012TIP3   OH263526   5.671   3.173   4.250  0.1243 -0.1653  0.4035
14012TIP3    H163527   5.595   3.209   4.295  0.7771  1.0927  0.5456
14012TIP3    H263528   5.741   3.236   4.267  1.1667 -1.2204  0.1583
14013TIP3   OH263529   4.241   0.488   5.521  0.2151  0.4634 -0.5593
14013TIP3    H163530   4.296   0.560   5.554 -1.3936  1.3617  0.2853
14013TIP3    H263531   4.190   0.528   5.451  0.3674 -0.2826 -1.1126
14014TIP3   OH263532   5.648   6.325   0.382  0.3584 -0.3732  0.0104
14014TIP3    H163533   5.724   6.314   0.324  0.0041 -0.1968 -0.4965
14014TIP3    H263534   5.634   6.420   0.385 -0.5324 -0.4634 -0.8160
14015TIP3   OH263535   2.663   0.863   5.742 -1.5143  0.1045  0.0060
14015TIP3    H163536   2.751   0.899   5.733 -0.8183 -0.5759  3.0434
14015TIP3    H263537   2.650   0.812   5.662  0.0061  1.8082 -1.4173
14016TIP3   OH263538   5.526   2.787   2.006  0.1945  0.3407 -0.0699
14016TIP3    H163539   5.589   2.830   1.949 -1.8351  2.9201 -0.5667
14016TIP3    H263540   5.458   2.755   1.947 -1.4612  2.2051  0.6854
14017TIP3   OH263541   5.031   4.921   4.007  0.4873 -0.2176 -0.5856
14017TIP3    H163542   5.114   4.964   3.987  0.9860 -0.7560  0.2699
14017TIP3    H263543   5.020   4.932   4.101 -1.5541  1.8023 -0.9810
14018TIP3   OH263544   4.644   4.030   3.685 -0.3459 -0.0571  0.4415
14018TIP3    H163545   4.648   4.083   3.605 -0.7384  0.4037  0.7244
14018TIP3    H263546   4.665   3.941   3.655 -1.9492 -0.1802 -0.4520
14019TIP3   OH263547   4.645   4.320  13.606 -0.4315  0.2321 -0.6338
14019TIP3    H163548   4.570   4.361  13.561  0.9294  1.6824 -1.6848
14019TIP3    H263549   4.659   4.375  13.683  1.4694  1.9813 -2.1057
14020TIP3   OH263550   2.841   2.845   4.609  0.1189 -0.3827  0.0207
14020TIP3    H163551   2.764   2.882   4.566  0.1462  0.9190  1.0193
14020TIP3    H263552   2.816   2.755   4.630 -0.4426 -0.5463 -1.2987
14021TIP3   OH263553   0.258   0.020  14.248  0.2959 -0.3969 -1.0732
14021TIP3    H163554   0.169   0.014  14.213  0.0763 -1.5547 -0.3618
14021TIP3    H263555   0.254   0.090  14.313 -0.5996 -1.6577  0.3063
14022TIP3   OH263556   3.826   1.622   6.072 -0.4121 -0.2234  0.2504
14022TIP3    H163557   3.815   1.581   6.158 -4.8416  0.0494  0.0352
14022TIP3    H263558   3.803   1.714   6.087 -0.9712 -0.1173 -1.1655
14023TIP3   OH263559   3.626   4.235   4.128 -0.3655 -0.6804 -0.5052
14023TIP3    H163560   3.533   4.257   4.124 -0.7831 -2.2366  0.1554
14023TIP3    H263561   3.659   4.257   4.041 -1.3226 -0.0224 -0.7183
14024TIP3   OH263562   1.216   0.116  15.904 -0.1727 -0.0167 -0.0268
14024TIP3    H163563   1.239   0.204  15.933 -1.3442 -0.1310  1.3366
14024TIP3    H263564   1.151   0.129  15.835  0.1079  0.1915 -0.2538
14025TIP3   OH263565   3.740   3.110  14.720 -0.2470  0.1887  0.2659
14025TIP3    H163566   3.722   3.104  14.627  2.5143 -1.5609 -0.3051
14025TIP3    H263567   3.792   3.190  14.730  1.3779 -0.7628 -0.1708
14026TIP3   OH263568   1.137   2.800  14.030  0.1826 -0.4028 -0.0543
14026TIP3    H163569   1.091   2.820  14.111  1.1713 -0.8183  0.6397
14026TIP3    H263570   1.215   2.855  14.032  1.1390 -1.7060  0.1867
14027TIP3   OH263571   1.644   0.091   1.327 -0.2441  0.5173 -0.1543
14027TIP3    H163572   1.682   0.072   1.241 -2.5020 -1.5253 -0.8183
14027TIP3    H263573   1.595   0.172   1.314  1.1833  1.4250 -0.1352
14028TIP3   OH263574   0.265   1.594  16.439 -0.0960 -0.0450 -0.5177
14028TIP3    H163575   0.219   1.533  16.380  1.2026 -0.7136 -0.8794
14028TIP3    H263576   0.278   1.673  16.387  0.6505 -0.4724 -0.9922
14029TIP3   OH263577   4.666   5.927   2.261  0.4980  0.3830  0.2082
14029TIP3    H163578   4.670   5.856   2.197  1.6148  0.8442 -0.2742
14029TIP3    H263579   4.621   5.890   2.336 -2.1276  0.2049 -1.3179
14030TIP3   OH263580   2.800   4.234   4.735 -0.0629 -0.0581 -0.3247
14030TIP3    H163581   2.822   4.168   4.800  0.6388 -0.8626 -1.3384
14030TIP3    H263582   2.728   4.284   4.774 -0.7200 -1.5219  0.4040
14031TIP3   OH263583   0.554   5.495   1.555 -0.7793  0.2250  0.0169
14031TIP3    H163584   0.543   5.413   1.604 -2.1951  0.1402 -0.4155
14031TIP3    H263585   0.604   5.551   1.615 -1.0331 -0.4509  0.8919
14032TIP3   OH263586   5.625   0.435   0.761 -0.3549 -0.2361 -0.1372
14032TIP3    H163587   5.687   0.503   0.735  0.4296 -0.1813  1.7655
14032TIP3    H263588   5.562   0.479   0.817 -1.2965 -0.5981 -0.8733
14033TIP3   OH263589   5.800   3.598   3.697  0.1574  0.1604 -0.2235
14033TIP3    H163590   5.728   3.630   3.644  0.9817  1.0735 -0.8220
14033TIP3    H263591   5.845   3.677   3.728  2.0166 -0.3617 -1.4318
14034TIP3   OH263592   1.762   6.245  11.122 -0.4119  0.0922 -0.0415
14034TIP3    H163593   1.702   6.232  11.048 -0.0029  2.6527 -0.8916
14034TIP3    H263594   1.847   6.216  11.090 -0.3467  0.6674 -0.4050
14035TIP3   OH263595   2.954   3.332   4.293  0.1838 -0.2166  0.1779
14035TIP3    H163596   2.933   3.261   4.353 -0.6922 -0.1153 -0.0023
14035TIP3    H263597   2.989   3.402   4.348  1.4534 -0.9216  0.3130
14036TIP3   OH263598   6.240   1.857  16.055  0.7407  0.0135 -0.0134
14036TIP3    H163599   6.246   1.766  16.026  3.1146 -0.6584  2.1783
14036TIP3    H263600   6.258   1.909  15.977  0.2668 -1.4073 -1.1084
14037TIP3   OH263601   6.533   3.919   4.445 -0.5555  0.3927  0.2844
14037TIP3    H163602   6.527   3.863   4.523  0.5323 -0.7215 -0.4010
14037TIP3    H263603   6.615   3.967   4.456  0.8331 -1.4868 -1.2182
14038TIP3   OH263604   3.109   0.105  11.416  0.3307 -0.0375 -0.1574
14038TIP3    H163605   3.192   0.105  11.463 -0.3563  1.0050  1.1055
14038TIP3    H263606   3.071   0.019  11.436  0.0324  0.3989  1.2599
14039TIP3   OH263607   4.551   3.144   4.808 -0.1813  0.2122 -0.1283
14039TIP3    H163608   4.493   3.095   4.866  1.2757 -0.7784  0.5507
14039TIP3    H263609   4.639   3.115   4.832  0.4912 -0.7275 -3.2804
14040TIP3   OH263610   3.345   6.240   5.348  0.3891 -0.4499 -0.5057
14040TIP3    H163611   3.354   6.239   5.252  0.1423  0.9034 -0.5594
14040TIP3    H263612   3.434   6.255   5.380  0.5809 -1.5609 -0.4846
14041TIP3   OH263613   6.597   4.995  11.018  0.2547  0.0755  0.7061
14041TIP3    H163614   6.693   4.986  11.015  0.2343  0.1116 -1.0053
14041TIP3    H263615   6.571   5.006  10.927 -1.3461  0.6251  1.1958
14042TIP3   OH263616   1.633   5.968   3.316 -0.1244 -0.1909 -0.3774
14042TIP3    H163617   1.647   5.889   3.370 -0.0674  0.4340  0.5499
14042TIP3    H263618   1.604   5.934   3.232 -0.5098 -1.1949  0.1352
14043TIP3   OH263619   0.366   1.034   5.517 -0.0231 -0.4388 -0.5095
14043TIP3    H163620   0.438   0.991   5.470  1.0007  0.0153  0.5849
14043TIP3    H263621   0.343   0.972   5.586  2.0057  0.9810  1.5857
14044TIP3   OH263622   5.049   4.410  15.575  0.3919  0.1550  0.1423
14044TIP3    H163623   5.117   4.466  15.537 -0.8461 -0.0327 -2.6138
14044TIP3    H263624   5.097   4.348  15.630  2.5070  0.0539 -1.6650
14045TIP3   OH263625   3.166   5.157  12.252 -0.3249 -0.2301 -0.3059
14045TIP3    H163626   3.142   5.152  12.345 -1.0952  0.8027 -0.4322
14045TIP3    H263627   3.172   5.251  12.234  1.6542 -0.4133 -0.8607
14046TIP3   OH263628   3.472   2.668   5.389 -0.7609 -0.2127 -0.3981
14046TIP3    H163629   3.557   2.664   5.345 -1.3667 -1.4807 -1.4985
14046TIP3    H263630   3.493   2.666   5.483  0.4072 -0.6577 -0.6601
14047TIP3   OH263631   0.567   4.631   0.244  0.1015 -0.2131  0.4352
14047TIP3    H163632   0.534   4.576   0.173 -1.6486 -0.5044  1.4385
14047TIP3    H263633   0.580   4.571   0.317  1.3957  0.1705  0.5485
14048TIP3   OH263634   6.364   1.852   1.777 -0.6715  0.3608  0.6317
14048TIP3    H163635   6.440   1.886   1.729 -0.9168 -0.6801 -0.5687
14048TIP3    H263636   6.402   1.806   1.852 -0.1092 -0.0272  0.1227
14049TIP3   OH263637   5.535   1.825  13.381  0.3931  0.6369 -0.1174
14049TIP3    H163638   5.500   1.812  13.293  0.5057 -1.5733  0.0998
14049TIP3    H263639   5.469   1.877  13.426 -1.5924 -1.4902 -0.3928
14050TIP3   OH263640   1.520   0.783   3.249  0.3547  0.0603  0.2302
14050TIP3    H163641   1.591   0.732   3.210 -0.1042  0.5102 -1.2640
14050TIP3    H263642   1.547   0.875   3.236  0.7371  0.2372  2.0548
14051TIP3   OH263643   1.696   0.243  13.585 -0.3808  0.0354 -0.2566
14051TIP3    H163644   1.742   0.199  13.656 -0.6486  0.8524  0.4447
14051TIP3    H263645   1.696   0.336  13.610 -1.8551  0.1363 -0.5385
14052TIP3   OH263646   1.532   4.307  14.349  0.1818 -0.4173  0.0110
14052TIP3    H163647   1.584   4.360  14.288  1.1414 -1.2219  0.1166
14052TIP3    H263648   1.589   4.234  14.373 -0.5355 -0.6338  1.1323
14053TIP3   OH263649   0.236   6.704   2.109  0.2978  0.4543 -0.3665
14053TIP3    H163650   0.156   6.675   2.064  0.3186 -0.5097  0.2091
14053TIP3    H263651   0.285   6.624   2.124  0.7053  0.8786  0.5821
14054TIP3   OH263652   1.880   3.531  10.894  0.0371  0.0278 -0.2246
14054TIP3    H163653   1.875   3.516  10.989  1.4484  1.3678  0.0927
14054TIP3    H263654   1.973   3.540  10.876 -0.3002  1.2953 -1.4879
14055TIP3   OH263655   4.764   5.182  14.605  0.1409  0.1036  0.1490
14055TIP3    H163656   4.833   5.243  14.630  0.7110 -0.7497  0.6855
14055TIP3    H263657   4.735   5.143  14.687  0.3072 -0.9005 -0.2564
14056TIP3   OH263658   5.727   4.017  12.453 -0.6019 -0.1636 -0.0460
14056TIP3    H163659   5.751   4.094  12.402  1.0176 -0.2896  0.4558
14056TIP3    H263660   5.646   3.985  12.413 -0.7052  1.1606 -0.9404
14057TIP3   OH263661   6.813   3.103   5.359 -0.2941  0.0192 -0.6231
14057TIP3    H163662   6.861   3.183   5.335 -1.0077  0.5279 -0.3826
14057TIP3    H263663   6.880   3.045   5.396  0.1252  0.7363 -0.2339
14058TIP3   OH263664   0.706   4.000  15.709  0.2763 -0.5069 -0.5736
14058TIP3    H163665   0.671   4.089  15.704  4.0244  1.1654 -0.9662
14058TIP3    H263666   0.701   3.977  15.802 -1.3429 -0.2035 -0.5648
14059TIP3   OH263667   5.705   5.950   2.999 -0.6868 -0.0506  0.1710
14059TIP3    H163668   5.725   6.012   2.930 -1.9536 -1.4658 -1.5439
14059TIP3    H263669   5.788   5.940   3.047 -0.3481  2.5498  0.2548
14060TIP3   OH263670   6.225   1.737  11.265 -0.1680  0.0974 -0.2786
14060TIP3    H163671   6.178   1.804  11.216 -1.1655 -0.7121 -0.4612
14060TIP3    H263672   6.311   1.732  11.222  0.1141  1.6011  0.0715
14061TIP3   OH263673   0.166   5.115   5.230 -0.5448 -0.1182  0.6436
14061TIP3    H163674   0.153   5.136   5.323 -2.4147 -0.7533  0.5674
14061TIP3    H263675   0.196   5.025   5.230  0.4751  0.2052  0.6491
14062TIP3   OH263676   5.326   2.425   4.683  0.3461 -0.1867 -0.1548
14062TIP3    H163677   5.346   2.455   4.594 -1.0932  0.3075 -0.3255
14062TIP3    H263678   5.360   2.336   4.686  0.0188 -0.3625 -1.3394
14063TIP3   OH263679   2.341   3.103  16.407  0.0817  0.2330  0.2126
14063TIP3    H163680   2.406   3.152  16.357  0.1311  0.1930  0.2380
14063TIP3    H263681   2.367   3.114  16.499  0.0438  0.2319  0.2242
14064TIP3   OH263682   4.260   3.606   1.078 -0.3713  0.4901 -0.2809
14064TIP3    H163683   4.170   3.607   1.044 -0.7919 -0.6866  0.7131
14064TIP3    H263684   4.253   3.562   1.163  0.9796  1.4000  0.3348
14065TIP3   OH263685   0.241   1.693  13.081 -0.0229  0.3102  0.0672
14065TIP3    H163686   0.225   1.773  13.030  1.6983  2.2211  2.2784
14065TIP3    H263687   0.174   1.695  13.150 -0.5172 -0.6765 -0.3676
14066TIP3   OH263688   5.586   0.531  11.488  0.2482 -0.4465 -0.0069
14066TIP3    H163689   5.639   0.497  11.416 -0.2920 -0.7511 -0.2639
14066TIP3    H263690   5.497   0.505  11.467  0.1446 -0.9952  1.0292
14067TIP3   OH263691   3.705   3.238   5.753  0.0706  0.0519  0.0976
14067TIP3    H163692   3.752   3.167   5.709  0.7078  1.5595 -1.7562
14067TIP3    H263693   3.616   3.234   5.717 -0.8094 -1.5498  2.1579
14068TIP3   OH263694   2.574   3.696   6.361  0.4409 -0.0933 -0.0350
14068TIP3    H163695   2.618   3.672   6.442 -0.4659 -1.4292  0.0776
14068TIP3    H263696   2.564   3.791   6.368  0.4318 -0.1711  1.3851
14069TIP3   OH263697   1.396   6.339  10.992  0.1071 -0.1509  0.0764
14069TIP3    H163698   1.474   6.389  11.016  1.2004 -0.5149 -2.4157
14069TIP3    H263699   1.360   6.386  10.917 -0.9712 -1.0885 -0.0116
14070TIP3   OH263700   5.995   0.784  12.473  0.6208 -0.2567 -0.3078
14070TIP3    H163701   5.942   0.806  12.397 -1.9521 -2.1469  0.7936
14070TIP3    H263702   6.045   0.707  12.445  0.9710  0.0768 -0.6052
14071TIP3   OH263703   6.776   0.317   5.069  0.2610  0.4837  0.5669
14071TIP3    H163704   6.730   0.366   5.136  0.9346  0.4066  1.0945
14071TIP3    H263705   6.831   0.382   5.024 -1.5068  0.8986 -1.1290
14072TIP3   OH263706   4.361   3.406  11.454  0.5184 -0.2288 -0.2317
14072TIP3    H163707   4.440   3.415  11.400  1.1465 -2.5130  0.2219
14072TIP3    H263708   4.325   3.321  11.430  0.7016 -1.2601  2.7350
14073TIP3   OH263709   6.474   0.253   4.553  0.4612 -0.2462 -0.1187
14073TIP3    H163710   6.476   0.329   4.610 -3.8089 -0.1076  0.1161
14073TIP3    H263711   6.469   0.178   4.612  1.6092 -0.5360 -0.3631
14074TIP3   OH263712   6.740   5.681   1.412  0.5069  0.2154  0.6684
14074TIP3    H163713   6.802   5.679   1.485  1.9798 -0.9253 -0.5442
14074TIP3    H263714   6.711   5.590   1.404  0.7488  0.2231 -0.4612
14075TIP3   OH263715   2.281   0.948  11.133 -0.0261 -0.2358  0.5234
14075TIP3    H163716   2.272   0.972  11.225  1.1926  2.9596 -0.0445
14075TIP3    H263717   2.372   0.921  11.124  0.8911  2.6739 -0.1999
14076TIP3   OH263718   1.070   5.745   6.306 -0.0827  0.1182 -0.7018
14076TIP3    H163719   1.080   5.662   6.353  1.5740  0.1856 -0.8540
14076TIP3    H263720   1.052   5.810   6.374  1.9634  0.1586 -0.1273
14077TIP3   OH263721   1.014   3.592  15.470  0.3334 -0.0807 -0.5142
14077TIP3    H163722   0.986   3.583  15.561  0.7895 -1.2191 -0.4723
14077TIP3    H263723   1.109   3.581  15.473  0.1061 -3.0139 -1.4297
14078TIP3   OH263724   1.744   5.732   3.464 -0.5438 -0.3190 -0.2654
14078TIP3    H163725   1.704   5.645   3.460 -0.9751 -0.1722  0.5944
14078TIP3    H263726   1.788   5.734   3.549  1.7807 -0.6706 -1.4024
14079TIP3   OH263727   0.518   2.006   3.753 -0.4200  0.2331 -0.5972
14079TIP3    H163728   0.430   1.987   3.718 -0.7969 -0.2100  0.5319
14079TIP3    H263729   0.516   1.970   3.842  1.1428 -0.3970 -0.7832
14080TIP3   OH263730   3.810   2.770   1.636  0.0321  0.2623  0.1436
14080TIP3    H163731   3.835   2.838   1.699  1.3442  0.2281 -0.3074
14080TIP3    H263732   3.867   2.785   1.561 -0.1341 -0.9084 -0.2406
14081TIP3   OH263733   6.394   0.735   0.013  0.0154 -0.6952  0.0603
14081TIP3    H163734   6.414   0.696  -0.072  1.7836 -0.0518  0.1465
14081TIP3    H263735   6.440   0.819   0.012 -2.4993  0.8121  0.4312
14082TIP3   OH263736   5.695   6.755  13.931 -0.8969 -0.6219 -0.2504
14082TIP3    H163737   5.710   6.757  14.026 -3.5959 -3.9403  0.4519
14082TIP3    H263738   5.775   6.716  13.895 -0.1316  0.0026  0.7039
14083TIP3   OH263739   3.548   6.637  13.259  0.7145  0.4269  0.3578
14083TIP3    H163740   3.465   6.652  13.305 -1.2760 -1.2454 -2.4077
14083TIP3    H263741   3.607   6.605  13.327 -1.5663 -0.4027  2.0823
14084TIP3   OH263742   4.297   6.558  16.524  0.0660 -0.2305 -0.7273
14084TIP3    H163743   4.216   6.601  16.495 -1.7872 -1.8260  1.7263
14084TIP3    H263744   4.274   6.466  16.530  0.7438 -0.3258  3.6903
14085TIP3   OH263745   0.950   6.685   2.106  0.3194 -0.5708  0.0133
14085TIP3    H163746   1.037   6.702   2.142  0.0012  0.9111  0.1520
14085TIP3    H263747   0.901   6.648   2.179  0.0495  1.2218  0.7972
14086TIP3   OH263748   1.778   3.685  10.143 -0.7041 -0.0175  0.7162
14086TIP3    H163749   1.735   3.627  10.205 -0.9292 -0.1424  0.4485
14086TIP3    H263750   1.867   3.653  10.137 -0.7013 -0.0463  0.9230
14087TIP3   OH263751   3.127   1.481  12.271 -0.4670 -0.1942  0.1122
14087TIP3    H163752   3.051   1.422  12.277  1.1372 -2.2421  2.1657
14087TIP3    H263753   3.124   1.532  12.351  0.2189 -0.1536  0.1137
14088TIP3   OH263754   1.884   6.801   4.732  0.3456 -0.4753 -0.3432
14088TIP3    H163755   1.857   6.770   4.819 -2.6225 -1.3322 -1.4610
14088TIP3    H263756   1.971   6.762   4.719  1.0050 -0.1046  2.2871
14089TIP3   OH263757   2.873   2.385   0.087 -0.0841 -0.3674 -0.7694
14089TIP3    H163758   2.941   2.438   0.128  0.1934 -0.4501 -1.1197
14089TIP3    H263759   2.916   2.345   0.012 -0.1395 -1.5007 -0.2277
14090TIP3   OH263760   1.915   5.882   3.330 -0.3030 -0.7227  0.2913
14090TIP3    H163761   1.857   5.828   3.383  0.5425 -0.8691  1.1016
14090TIP3    H263762   1.918   5.839   3.245 -1.0764 -0.9214  0.3650
14091TIP3   OH263763   1.117   1.080  15.708 -0.2072 -0.0477  0.3632
14091TIP3    H163764   1.066   0.999  15.714 -1.3623  0.7123  0.9534
14091TIP3    H263765   1.052   1.149  15.695  0.7706  0.7919 -0.2167
14092TIP3   OH263766   5.115   3.954   0.309 -0.0916 -0.5588 -0.1211
14092TIP3    H163767   5.120   3.860   0.326 -0.5927 -0.9279 -1.8158
14092TIP3    H263768   5.021   3.972   0.302 -0.0444  0.2617  1.0653
14093TIP3   OH263769   6.730   0.842  13.075 -0.0815  0.8829  0.0179
14093TIP3    H163770   6.642   0.876  13.061 -1.3387 -2.2511 -0.6524
14093TIP3    H263771   6.742   0.778  13.005  1.9119 -0.2471  1.2986
14094TIP3   OH263772   4.296   3.700  10.887  0.0812  0.0568 -0.3598
14094TIP3    H163773   4.302   3.796  10.877  0.9336  0.2702  1.7491
14094TIP3    H263774   4.344   3.666  10.811  1.7649  1.3636  0.0415
14095TIP3   OH263775   2.391   2.765  13.593 -0.0325 -0.5549 -0.7448
14095TIP3    H163776   2.350   2.710  13.660  2.9116  0.4935  2.1666
14095TIP3    H263777   2.322   2.826  13.566 -0.9701  0.0887  2.6661
14096TIP3   OH263778   6.113   0.594   4.360  0.1437  0.3355  0.4028
14096TIP3    H163779   6.047   0.552   4.417  1.0296 -1.2699  0.3155
14096TIP3    H263780   6.091   0.563   4.272  1.1564 -0.4427  0.4089
14097TIP3   OH263781   2.975   0.621  13.615 -0.4815  0.0298  0.2762
14097TIP3    H163782   2.964   0.602  13.708 -1.0547  0.4479  0.2972
14097TIP3    H263783   3.068   0.607  13.599 -0.7280 -2.1014  0.4381
14098TIP3   OH263784   1.838   2.813   1.780  0.0172  0.3214  0.1482
14098TIP3    H163785   1.886   2.896   1.782 -1.3213  1.2842 -2.5002
14098TIP3    H263786   1.789   2.816   1.698 -0.9762 -2.6262  0.5191
14099TIP3   OH263787   0.776   3.605  17.155  0.2139 -0.0505 -0.1126
14099TIP3    H163788   0.825   3.574  17.078 -0.9057  2.1089 -1.8289
14099TIP3    H263789   0.713   3.535  17.172  1.3570 -1.1701 -0.2749
14100TIP3   OH263790   6.266   0.535   1.154  0.7381 -0.3718  0.5622
14100TIP3    H163791   6.190   0.583   1.122  1.3843  0.3109 -0.0092
14100TIP3    H263792   6.311   0.597   1.212  1.5561 -0.2809 -0.1457
14101TIP3   OH263793   0.567   4.316   3.158 -0.2599 -0.3851  0.5100
14101TIP3    H163794   0.598   4.234   3.198  0.7249  0.4748  1.5726
14101TIP3    H263795   0.474   4.318   3.179 -0.7655 -2.1878 -1.2704
14102TIP3   OH263796   4.101   0.272  15.695  0.3426 -0.4800  0.6172
14102TIP3    H163797   4.087   0.191  15.646  0.3352 -0.0608 -0.0993
14102TIP3    H263798   4.039   0.334  15.657 -0.0872 -0.3029  1.5764
14103TIP3   OH263799   0.314   6.516   3.702 -0.5452 -0.1069 -0.1835
14103TIP3    H163800   0.365   6.436   3.716  1.8282  1.3299 -0.1020
14103TIP3    H263801   0.281   6.509   3.612  0.6957 -0.6310 -0.6156
14104TIP3   OH263802   6.162   4.950  12.388 -0.0459  0.8073 -0.2481
14104TIP3    H163803   6.184   4.992  12.471  2.1893 -0.2488 -0.2279
14104TIP3    H263804   6.247   4.925  12.351 -1.0723 -0.0448 -2.1683
14105TIP3   OH263805   4.863   5.942   6.368  0.0647  0.3444  0.7173
14105TIP3    H163806   4.884   5.852   6.345  0.8975  0.0370  2.5552
14105TIP3    H263807   4.882   5.992   6.288 -0.3605 -1.0710 -0.3003
14106TIP3   OH263808   6.669   3.502  13.559  0.3840 -0.5267 -0.8633
14106TIP3    H163809   6.700   3.486  13.470  1.9586  1.1818 -0.6784
14106TIP3    H263810   6.733   3.562  13.597 -0.8530 -0.3153  1.0553
14107TIP3   OH263811   0.616   6.757   3.443  0.1330 -0.5044 -0.2319
14107TIP3    H163812   0.551   6.772   3.512  0.8787 -1.8060  0.7839
14107TIP3    H263813   0.584   6.680   3.397 -0.5014  0.5076 -1.5599
14108TIP3   OH263814   4.625   6.656   3.064  0.3594  0.2406  0.0030
14108TIP3    H163815   4.690   6.701   3.118  1.8340  0.1529 -1.5818
14108TIP3    H263816   4.549   6.646   3.120  1.9158 -0.1680  2.1647
14109TIP3   OH263817   4.152   5.612   1.530  0.0797  0.4796 -0.3721
14109TIP3    H163818   4.081   5.566   1.575  1.5657 -0.8826  0.7315
14109TIP3    H263819   4.119   5.700   1.516 -2.2455 -0.4129 -0.9744
14110TIP3   OH263820   6.450   0.203   0.041  0.0844 -0.3170 -0.2763
14110TIP3    H163821   6.518   0.254   0.086  0.6829 -1.7926  0.5809
14110TIP3    H263822   6.383   0.188   0.108  0.4088 -1.5100 -0.1930
14111TIP3   OH263823   6.732   6.466  16.914  0.1158  0.2463 -0.2051
14111TIP3    H163824   6.714   6.476  17.007  1.6723 -0.5543  0.2045
14111TIP3    H263825   6.692   6.382  16.891  0.5225  0.0087 -0.0460
14112TIP3   OH263826   0.227   2.111  14.128  0.1333 -0.0312 -0.4220
14112TIP3    H163827   0.202   2.192  14.082  0.6904  0.0907 -0.5194
14112TIP3    H263828   0.248   2.049  14.059  0.8888  0.1245 -0.3384
14113TIP3   OH263829   6.253   0.515  13.196  1.0315  0.2345 -0.4190
14113TIP3    H163830   6.343   0.547  13.196  1.2190 -0.1798  1.3192
14113TIP3    H263831   6.226   0.517  13.288 -0.3622 -0.6600 -0.7624
14114TIP3   OH263832   4.273   3.727  12.884  0.0842 -0.2655 -0.5216
14114TIP3    H163833   4.261   3.642  12.927  0.6419  0.1034  0.4052
14114TIP3    H263834   4.306   3.706  12.797  2.8266 -0.9778  0.5940
14115TIP3   OH263835   3.604   3.672  17.048  0.1771 -0.4973 -0.1299
14115TIP3    H163836   3.616   3.750  16.992  0.4982  0.1002  0.7522
14115TIP3    H263837   3.528   3.693  17.101 -0.1660 -1.0946 -0.3853
14116TIP3   OH263838   3.820   3.000   4.155 -0.1314 -0.3838  0.2139
14116TIP3    H163839   3.872   2.931   4.114 -0.0320  0.4196 -1.0569
14116TIP3    H263840   3.871   3.025   4.233  1.4558  0.4247 -1.0238
14117TIP3   OH263841   2.431   5.378   1.760 -0.6087  0.2547 -0.4663
14117TIP3    H163842   2.478   5.460   1.776  1.5297 -0.8897 -0.4654
14117TIP3    H263843   2.445   5.360   1.668  1.3150 -1.4210  0.0805
14118TIP3   OH263844   6.728   4.787   3.847  0.0741 -0.0599 -0.3993
14118TIP3    H163845   6.808   4.839   3.853  0.0748 -0.1174  0.2564
14118TIP3    H263846   6.720   4.747   3.934 -1.6511  1.3815  0.1671
14119TIP3   OH263847   0.698   2.011  15.541  0.2149  0.2247  0.0144
14119TIP3    H163848   0.604   2.026  15.533  0.3726  0.8823 -0.8202
14119TIP3    H263849   0.730   2.082  15.597  0.5043  1.2801 -1.4215
14120TIP3   OH263850   3.241   0.559  13.613  0.5916 -0.5115  0.2704
14120TIP3    H163851   3.289   0.502  13.674  0.3969  1.4841  2.4464
14120TIP3    H263852   3.309   0.595  13.556  0.8524 -2.0207 -0.4125
14121TIP3   OH263853   0.684   2.910   2.683  0.3125  0.3712 -0.0621
14121TIP3    H163854   0.630   2.833   2.699 -0.4062  0.5990 -1.2694
14121TIP3    H263855   0.623   2.983   2.686  1.3677  1.2895  3.7204
14122TIP3   OH263856   5.079   2.297   2.521  0.6813  0.2217 -0.4719
14122TIP3    H163857   5.164   2.257   2.541 -0.1738 -0.6647  1.5665
14122TIP3    H263858   5.087   2.387   2.553  0.5216 -0.1569  0.6459
14123TIP3   OH263859   5.343   5.174  13.817  0.2608  0.9843  0.1581
14123TIP3    H163860   5.389   5.251  13.785 -1.4213  1.8610 -0.2622
14123TIP3    H263861   5.280   5.208  13.880 -1.5181  0.1793 -1.1054
14124TIP3   OH263862   4.554   0.795  15.290  0.4341  0.1913 -0.3237
14124TIP3    H163863   4.588   0.885  15.288  0.7943  0.0930  0.7226
14124TIP3    H263864   4.505   0.790  15.372  0.5240 -0.5990 -0.3163
14125TIP3   OH263865   3.496   2.857   3.234  0.3514 -0.4115 -0.3485
14125TIP3    H163866   3.429   2.816   3.288  0.8149  0.6916  1.1341
14125TIP3    H263867   3.531   2.928   3.288  1.3700  0.2781 -1.8211
14126TIP3   OH263868   0.564   5.978  10.617 -0.3672  0.1355  0.3013
14126TIP3    H163869   0.636   5.954  10.675 -0.5625 -0.7273  0.1932
14126TIP3    H263870   0.595   6.057  10.571  0.2180  0.1769  0.7675
14127TIP3   OH263871   4.433   0.411   2.838 -0.3154  0.0268 -0.2516
14127TIP3    H163872   4.444   0.393   2.744  2.0260  1.0913 -0.2481
14127TIP3    H263873   4.510   0.372   2.879 -0.0306  1.6911  0.9031
14128TIP3   OH263874   6.494   6.500  13.156  0.0647  0.2087  0.8052
14128TIP3    H163875   6.485   6.593  13.173 -0.3978  0.5452 -0.9957
14128TIP3    H263876   6.477   6.492  13.062 -0.4807 -1.7632  1.0277
14129TIP3   OH263877   4.728   6.387   5.427 -0.3394 -0.7064 -0.2754
14129TIP3    H163878   4.753   6.428   5.509 -1.0867  0.0271 -0.4106
14129TIP3    H263879   4.663   6.321   5.452  0.3592 -1.3672 -0.1427
14130TIP3   OH263880   2.213   5.935   4.684 -0.2276 -0.2288  0.2017
14130TIP3    H163881   2.304   5.932   4.713 -0.3073 -2.4897  0.3544
14130TIP3    H263882   2.217   5.970   4.595  0.4958  2.0460  1.0562
14131TIP3   OH263883   1.895   0.809   3.865 -0.0711 -0.1195 -0.5432
14131TIP3    H163884   1.937   0.831   3.949  1.2136  0.3666 -1.2889
14131TIP3    H263885   1.933   0.725   3.840  0.7108  0.4747 -1.3832
14132TIP3   OH263886   5.217   2.673   1.354  0.4444 -0.0858  0.2761
14132TIP3    H163887   5.157   2.627   1.414 -0.3553 -0.5201 -0.8223
14132TIP3    H263888   5.296   2.620   1.355 -0.2769 -1.2200 -0.5578
14133TIP3   OH263889   1.211   3.148  17.004  0.2617  0.3615  0.6490
14133TIP3    H163890   1.221   3.107  16.918 -0.3992  2.2044 -0.3569
14133TIP3    H263891   1.227   3.077  17.066 -0.0082 -1.2097 -0.9885
14134TIP3   OH263892   5.793   3.151  16.804  0.0042 -0.3999  0.1227
14134TIP3    H163893   5.707   3.192  16.811  0.6792  1.1284 -0.1655
14134TIP3    H263894   5.856   3.222  16.821  1.2123 -1.5354  0.6016
14135TIP3   OH263895   0.090   6.791  12.723  0.2993  0.5989  0.4949
14135TIP3    H163896   0.058   6.701  12.718 -0.9034  1.0977 -2.7161
14135TIP3    H263897   0.185   6.783  12.732  0.3135 -1.0117 -0.8181
14136TIP3   OH263898   3.690   0.957  14.089  0.2900 -0.0673  0.1571
14136TIP3    H163899   3.740   1.004  14.022  0.8172 -1.5045 -0.4918
14136TIP3    H263900   3.737   0.973  14.171  0.2189  0.8492  0.0349
14137TIP3   OH263901   4.598   5.829  10.505 -0.1503  0.1495  0.5903
14137TIP3    H163902   4.575   5.902  10.447 -0.3236  0.4887  1.0794
14137TIP3    H263903   4.539   5.839  10.580 -0.6229 -0.8713  0.3674
14138TIP3   OH263904   1.795   1.050   4.597  0.6403  0.1837  0.7245
14138TIP3    H163905   1.752   0.977   4.551 -0.8835  0.7193  1.2388
14138TIP3    H263906   1.810   1.115   4.528 -0.8234  0.6163  0.7678
14139TIP3   OH263907   1.885   4.532  15.158  0.4808 -0.0030  0.3693
14139TIP3    H163908   1.906   4.603  15.218  0.9257 -1.1875  1.6716
14139TIP3    H263909   1.803   4.558  15.116  1.8060  2.3371 -0.9729
14140TIP3   OH263910   5.766   2.315  14.647 -0.0180  0.4204  0.3948
14140TIP3    H163911   5.721   2.316  14.563 -0.2217 -0.9089  0.4686
14140TIP3    H263912   5.776   2.222  14.668  1.2509  0.7114  1.1891
14141TIP3   OH263913   1.869   5.028   4.100  0.0143 -0.0946  0.2282
14141TIP3    H163914   1.896   5.048   4.011 -0.8483  0.5355  0.0840
14141TIP3    H263915   1.773   5.034   4.097 -0.1506 -1.9215  0.7654
14142TIP3   OH263916   1.624   1.425   6.435 -0.1315 -0.1927  0.0087
14142TIP3    H163917   1.679   1.467   6.369  0.2555 -0.2556  0.2948
14142TIP3    H263918   1.534   1.444   6.406 -0.0136 -1.8800 -1.6380
14143TIP3   OH263919   2.839   2.514   6.274 -0.5242  0.4494  0.0868
14143TIP3    H163920   2.747   2.541   6.274 -0.3197  1.1669 -0.3799
14143TIP3    H263921   2.878   2.561   6.348  0.0656  2.3211 -1.3404
14144TIP3   OH263922   1.084   4.692   6.764 -0.2314 -0.1383  0.1327
14144TIP3    H163923   1.154   4.729   6.819 -1.5584  0.9128  1.1932
14144TIP3    H263924   1.097   4.734   6.679  0.2566  0.2746  0.3986
14145TIP3   OH263925   6.269   5.301   3.434  0.9918  0.1357 -0.6965
14145TIP3    H163926   6.356   5.277   3.402  0.6094  0.7175 -2.2410
14145TIP3    H263927   6.286   5.376   3.492  1.7008 -1.0116  0.6624
14146TIP3   OH263928   5.063   3.702  15.422  0.1270 -0.3731  0.2418
14146TIP3    H163929   5.119   3.631  15.452  0.6273  0.9303  2.6909
14146TIP3    H263930   4.975   3.666  15.424  0.4640 -1.2037  0.5452
14147TIP3   OH263931   6.831   3.766  12.558  0.7553 -0.2534  0.1668
14147TIP3    H163932   6.904   3.716  12.522  0.1887 -2.3423  1.7327
14147TIP3    H263933   6.848   3.770  12.652  0.2052  1.6060  0.2351
14148TIP3   OH263934   3.859   5.725   0.454  0.0873  0.1786  0.2079
14148TIP3    H163935   3.812   5.799   0.491 -0.5886  0.3510 -0.9303
14148TIP3    H263936   3.792   5.658   0.441  0.0627  0.4968 -1.6050
14149TIP3   OH263937   3.494   5.455  12.756  0.0898 -0.0933 -0.1258
14149TIP3    H163938   3.581   5.468  12.719 -0.1266  0.8020 -0.3434
14149TIP3    H263939   3.456   5.385  12.704  0.5258 -0.2072 -0.2941
14150TIP3   OH263940   0.778   2.101  13.835  0.1090  0.0721 -0.1753
14150TIP3    H163941   0.759   2.039  13.906  0.3936  0.0007 -0.1620
14150TIP3    H263942   0.872   2.092  13.820 -0.0353 -0.2618 -0.8966
14151TIP3   OH263943   1.512   5.540   2.548 -0.2995  0.4041 -0.1001
14151TIP3    H163944   1.489   5.560   2.638  1.9429 -0.1799  0.6606
14151TIP3    H263945   1.432   5.502   2.511 -1.8062  2.2705  1.0578
14152TIP3   OH263946   2.321   6.084  12.087 -0.3396 -0.1932  0.0387
14152TIP3    H163947   2.341   6.007  12.140  1.8124 -0.5317 -1.1404
14152TIP3    H263948   2.308   6.154  12.150 -1.4868 -1.3340  1.1040
14153TIP3   OH263949   2.274   5.571  15.807  0.2132  0.0263 -0.6975
14153TIP3    H163950   2.347   5.605  15.755  0.4079 -0.1869 -0.5625
14153TIP3    H263951   2.301   5.585  15.898 -0.0375  0.2068 -0.6497
14154TIP3   OH263952   0.027   2.266   4.070  0.1037  0.4800 -0.4304
14154TIP3    H163953   0.090   2.334   4.046 -0.1972  0.7509 -0.4597
14154TIP3    H263954  -0.019   2.245   3.989  0.6121 -0.1998 -0.5517
14155TIP3   OH263955   0.947   6.403  16.386  0.1956  0.1213 -0.4534
14155TIP3    H163956   1.013   6.335  16.374  0.2243  0.1472 -0.4412
14155TIP3    H263957   0.957   6.430  16.478 -0.2861 -0.3551 -0.2562
14156TIP3   OH263958   3.067   0.762   0.164  0.6836 -0.3088 -0.3747
14156TIP3    H163959   3.066   0.766   0.260  0.3532  0.6068 -0.4075
14156TIP3    H263960   3.160   0.761   0.141  0.7778 -1.4545 -0.0294
14157TIP3   OH263961   2.974   2.020  14.650  0.4576 -0.3409  0.6538
14157TIP3    H163962   3.040   1.974  14.599  1.8341  0.1463  1.9561
14157TIP3    H263963   2.892   1.973  14.630  1.5115 -2.2818  0.6302
14158TIP3   OH263964   5.347   4.528  16.479 -0.2902 -0.3715 -0.1702
14158TIP3    H163965   5.314   4.461  16.419 -0.0313  0.8871 -1.7935
14158TIP3    H263966   5.355   4.607  16.425 -0.8149  1.0628  1.7113
14159TIP3   OH263967   3.446   6.588  13.669  0.3243  0.0904 -0.3511
14159TIP3    H163968   3.502   6.564  13.743  1.7561  0.5649 -1.2398
14159TIP3    H263969   3.426   6.504  13.626  1.1859 -0.0064 -0.5849
14160TIP3   OH263970   1.521   1.318  13.306 -0.0187 -0.5757  0.2074
14160TIP3    H163971   1.595   1.333  13.364  1.3273 -1.1714 -1.2739
14160TIP3    H263972   1.496   1.405  13.275  1.4073 -0.5183 -0.8440
14161TIP3   OH263973   2.479   6.613  15.974 -0.2251 -0.8196 -0.4977
14161TIP3    H163974   2.464   6.685  15.912  1.0803 -0.6150 -0.6023
14161TIP3    H263975   2.402   6.558  15.965 -0.5034 -0.2862 -1.6112
14162TIP3   OH263976   2.487   1.092   0.735  0.4839 -0.0453 -0.0462
14162TIP3    H163977   2.572   1.049   0.730  0.1821 -0.7352  0.5171
14162TIP3    H263978   2.484   1.149   0.659  0.8157 -1.2030 -0.9509
14163TIP3   OH263979   2.021   4.652  12.919 -0.0200 -0.0127  0.1351
14163TIP3    H163980   2.087   4.718  12.899 -1.6539  2.3133  1.9300
14163TIP3    H263981   2.053   4.610  12.999 -0.5829  0.9913  0.9054
14164TIP3   OH263982   3.628   1.889  15.030  0.9920 -0.1975  0.6849
14164TIP3    H163983   3.606   1.804  15.068  0.8070 -0.4856 -0.0574
14164TIP3    H263984   3.721   1.900  15.049  0.9909 -0.5055  0.8834
14165TIP3   OH263985   0.447   5.615  15.808  0.0138 -0.2307  0.2260
14165TIP3    H163986   0.513   5.649  15.869  0.6862  0.8161 -1.0242
14165TIP3    H263987   0.408   5.694  15.769 -0.7653 -0.8723 -0.3197
14166TIP3   OH263988   3.100   4.678  16.886  0.2927  0.1773  0.4464
14166TIP3    H163989   3.036   4.681  16.956  1.4093 -0.7874  1.5505
14166TIP3    H263990   3.151   4.758  16.897  1.3501 -0.6253  1.6461
14167TIP3   OH263991   2.991   6.798   1.530  0.0113  0.3612  0.0050
14167TIP3    H163992   2.910   6.756   1.560  0.2412  1.2761  2.0239
14167TIP3    H263993   3.054   6.781   1.600  1.8101 -0.8785 -1.8018
14168TIP3   OH263994   4.131   5.031  16.281 -0.0691  0.7401  0.0769
14168TIP3    H163995   4.111   4.941  16.307  1.1164  0.8194  1.4192
14168TIP3    H263996   4.104   5.084  16.356 -0.3424  1.4658 -0.5210
14169TIP3   OH263997   1.888   5.677   5.581 -0.3485 -0.0745  0.3657
14169TIP3    H163998   1.970   5.676   5.631 -0.6163  0.6807  0.8384
14169TIP3    H263999   1.838   5.749   5.620 -0.3374  0.9114 -1.3707
14170TIP3   OH264000   2.905   3.855   3.213 -0.1902  0.0678  0.9637
14170TIP3    H164001   2.954   3.905   3.279 -1.7656  0.0507  2.1956
14170TIP3    H264002   2.973   3.814   3.159  1.1485  0.2905  2.4045
14171TIP3   OH264003   5.030   3.017  14.852 -0.3020  0.7759  0.6050
14171TIP3    H164004   5.008   2.929  14.823 -1.8381  0.5697  2.2400
14171TIP3    H264005   5.029   3.070  14.773 -1.1223 -0.3452 -0.1607
14172TIP3   OH264006   3.608   6.406   2.034  0.4746  0.2330  0.9324
14172TIP3    H164007   3.546   6.469   1.998 -0.4923 -1.3406 -0.2995
14172TIP3    H264008   3.671   6.390   1.965  2.2028  1.6644  2.1112
14173TIP3   OH264009   6.758   6.558   2.992  0.4307 -0.1261  0.1753
14173TIP3    H164010   6.762   6.604   3.077 -0.5557 -1.4136  0.9496
14173TIP3    H264011   6.848   6.533   2.974  0.7891  0.9442  0.3755
14174TIP3   OH264012   0.147   0.055  15.914 -0.1113 -0.6219  0.5884
14174TIP3    H164013   0.181   0.022  15.998  4.2847 -1.8595 -1.3912
14174TIP3    H264014   0.207   0.127  15.891  0.9087 -2.3900 -2.8632
14175TIP3   OH264015   5.693   2.987   5.880  0.3803 -0.4503  0.1853
14175TIP3    H164016   5.772   2.960   5.833 -1.3250 -2.9714 -1.4612
14175TIP3    H264017   5.675   3.075   5.847  2.0243 -0.1366  0.0153
14176TIP3   OH264018   2.667   0.819  16.758 -0.6329  0.3159 -0.0153
14176TIP3    H164019   2.649   0.725  16.768 -0.5357  0.4350  1.4216
14176TIP3    H264020   2.651   0.856  16.845  1.7669  1.2221  0.1159
14177TIP3   OH264021   4.961   0.168  10.493 -0.0879 -0.0668  0.5963
14177TIP3    H164022   5.003   0.215  10.564  1.1462  0.0388 -0.1775
14177TIP3    H264023   4.954   0.078  10.525 -1.5131  0.3859  1.6705
14178TIP3   OH264024   5.413   1.386  14.722 -0.3335  0.3574  0.3143
14178TIP3    H164025   5.330   1.406  14.765 -0.6991  2.5685 -1.2700
14178TIP3    H264026   5.473   1.455  14.750  1.3289 -1.6338  2.0722
14179TIP3   OH264027   2.130   3.811   0.665  0.2309 -0.1899  0.6145
14179TIP3    H164028   2.214   3.782   0.701  1.0600  1.1707 -0.1405
14179TIP3    H264029   2.113   3.895   0.707 -0.8731 -0.5397  0.9016
14180TIP3   OH264030   0.186   1.196   5.034  0.4416 -0.0678 -0.2827
14180TIP3    H164031   0.099   1.202   4.996 -0.5262  0.5197  1.8744
14180TIP3    H264032   0.178   1.240   5.119  2.0088 -2.7121  1.3468
14181TIP3   OH264033   6.733   1.900  13.570  0.4460  0.2238  0.4224
14181TIP3    H164034   6.759   1.990  13.553  0.2364  0.2098  0.0077
14181TIP3    H264035   6.646   1.907  13.609 -0.4030  0.1375 -1.3543
14182TIP3   OH264036   2.176   2.532  13.963  0.3563  0.2682  0.3848
14182TIP3    H164037   2.199   2.440  13.977  1.1218  0.4661  0.5268
14182TIP3    H264038   2.082   2.537  13.978  0.5861 -0.1595  2.2633
14183TIP3   OH264039   3.413   0.946   3.931 -0.0594  0.5157  0.1152
14183TIP3    H164040   3.482   0.950   3.997  2.0324  0.0309 -1.9288
14183TIP3    H264041   3.382   1.036   3.922  1.6697  1.1014 -0.2562
14184TIP3   OH264042   6.155   4.189   3.196  0.0497 -0.1814  0.4375
14184TIP3    H164043   6.067   4.219   3.220  0.5925  0.6321  1.4628
14184TIP3    H264044   6.204   4.188   3.278  0.5751 -2.1725  0.1461
14185TIP3   OH264045   5.833   4.331   1.974 -0.0005  0.1322  0.0925
14185TIP3    H164046   5.784   4.300   2.049  1.7537 -0.8357  0.9062
14185TIP3    H264047   5.774   4.317   1.899 -1.0963 -0.5635  1.0555
14186TIP3   OH264048   4.632   2.263  17.125 -0.5725  0.0331 -0.5932
14186TIP3    H164049   4.682   2.345  17.132  0.2106 -0.6095  2.9985
14186TIP3    H264050   4.696   2.198  17.097 -0.1655 -0.1122  0.6234
14187TIP3   OH264051   6.606   4.431  15.023 -0.3947 -0.5911 -0.2054
14187TIP3    H164052   6.602   4.344  15.062  0.6117 -0.9387 -0.8618
14187TIP3    H264053   6.547   4.484  15.078 -0.5218 -1.5238  0.5822
14188TIP3   OH264054   4.953   3.860   3.711 -0.2510 -0.6854 -0.0304
14188TIP3    H164055   4.958   3.910   3.630  2.4477 -0.7155  0.0497
14188TIP3    H264056   4.979   3.922   3.779  0.0396 -1.3515  0.4792
14189TIP3   OH264057   3.762   6.485   3.610 -0.1219 -0.5881 -0.2440
14189TIP3    H164058   3.761   6.420   3.539 -0.1000 -0.4962 -0.3282
14189TIP3    H264059   3.676   6.477   3.651  0.2419 -1.3854  0.3938
14190TIP3   OH264060   3.872   1.222  15.412 -0.5789 -0.0348 -0.6022
14190TIP3    H164061   3.832   1.269  15.339 -0.9393  0.9410  0.2022
14190TIP3    H264062   3.921   1.151  15.371 -2.2309 -0.6129 -1.7027
14191TIP3   OH264063   3.322   6.831  16.951 -0.1242 -0.3918  0.5475
14191TIP3    H164064   3.277   6.774  16.888  0.5229 -1.8803  1.3688
14191TIP3    H264065   3.327   6.916  16.907 -1.7970 -0.7445 -0.4282
14192TIP3   OH264066   4.473   1.564   0.770  0.2322 -0.3813  0.1213
14192TIP3    H164067   4.399   1.522   0.727 -1.1652  1.3298  0.7279
14192TIP3    H264068   4.520   1.608   0.700 -1.3113  1.3321  0.0578
14193TIP3   OH264069   5.564   0.517  15.008 -0.1014 -0.3103 -0.3760
14193TIP3    H164070   5.502   0.545  15.076 -0.0011 -0.3813 -0.2547
14193TIP3    H264071   5.511   0.460  14.951 -0.3499  0.2661 -0.7253
14194TIP3   OH264072   3.904   5.333   3.900 -0.0962 -0.0948 -0.1333
14194TIP3    H164073   3.879   5.425   3.907 -2.1820 -0.6843  0.9262
14194TIP3    H264074   3.884   5.309   3.809 -0.7960  0.1638 -0.0475
14195TIP3   OH264075   6.739   0.192   3.722  0.1042  0.3985 -0.2987
14195TIP3    H164076   6.702   0.280   3.712  0.0367  0.2892 -1.0957
14195TIP3    H264077   6.693   0.140   3.656  0.7657 -0.0262 -0.4275
14196TIP3   OH264078   1.012   2.155  16.979  0.6334  0.0691 -0.2402
14196TIP3    H164079   0.999   2.073  16.931  0.7112  1.5128 -2.9382
14196TIP3    H264080   1.106   2.158  16.996  0.5196 -0.7503  0.6773
14197TIP3   OH264081   1.998   4.238  13.383 -0.0324  0.1692 -0.1386
14197TIP3    H164082   1.955   4.172  13.329  0.3339 -1.5777  1.6046
14197TIP3    H264083   1.937   4.312  13.383 -0.2620  0.0392 -2.4638
14198TIP3   OH264084   4.499   4.041  12.697  0.3071 -0.8974  0.0586
14198TIP3    H164085   4.411   4.055  12.662 -0.0252 -0.1027  1.1707
14198TIP3    H264086   4.539   4.128  12.697  0.7805 -1.1130  0.3812
14199TIP3   OH264087   6.482   2.940   5.961  0.4774  0.0860 -0.0771
14199TIP3    H164088   6.500   3.034   5.962  0.2997  0.1191 -0.0104
14199TIP3    H264089   6.386   2.934   5.964  0.4934 -0.0992  0.0526
14200TIP3   OH264090   0.781   5.673  11.095 -0.1520 -0.0539  0.0455
14200TIP3    H164091   0.823   5.732  11.032 -0.4595  0.5626  0.4199
14200TIP3    H264092   0.719   5.622  11.042  0.5465 -0.4835 -0.3857
14201TIP3   OH264093   4.149   6.603  11.811  0.3092 -0.4510  0.2178
14201TIP3    H164094   4.101   6.538  11.759 -1.9260  0.8780  0.4775
14201TIP3    H264095   4.204   6.649  11.748  0.4648 -1.3114 -0.2925
14202TIP3   OH264096   3.177   6.463  14.995  0.3827  0.3328 -0.0589
14202TIP3    H164097   3.100   6.420  14.959  0.8749 -2.5168  1.8948
14202TIP3    H264098   3.250   6.430  14.941  0.7896 -1.7006  1.5894
14203TIP3   OH264099   3.301   5.102   3.661 -0.4634  0.2774  0.0471
14203TIP3    H164100   3.308   5.197   3.651  1.3314  0.2694  0.8797
14203TIP3    H264101   3.372   5.067   3.607 -1.3140 -0.6292 -0.5119
14204TIP3   OH264102   4.252   0.727   1.236 -0.6426  0.0384 -0.2113
14204TIP3    H164103   4.220   0.811   1.269  0.6121  0.8784 -1.0277
14204TIP3    H264104   4.328   0.707   1.291  0.3982  0.5785 -1.3856
14205TIP3   OH264105   2.044   2.168   5.560 -0.2795  0.4497 -0.1290
14205TIP3    H164106   2.028   2.125   5.476 -1.0682  0.5314 -0.0303
14205TIP3    H264107   2.037   2.262   5.540  0.0264  0.4880 -0.0647
14206TIP3   OH264108   4.034   1.073  11.759  0.0113 -0.0275  0.3362
14206TIP3    H164109   3.969   1.082  11.690  0.3837  0.9029  0.0871
14206TIP3    H264110   3.984   1.073  11.840 -0.2669  1.2792  0.1786
14207TIP3   OH264111   4.851   3.074   5.105 -0.3967 -0.1231 -0.3984
14207TIP3    H164112   4.877   3.071   5.013 -0.5334  3.1543 -0.6452
14207TIP3    H264113   4.765   3.116   5.104 -0.1361  0.5259  1.2450
14208TIP3   OH264114   4.704   0.722  13.679 -0.2174 -0.2507 -0.1370
14208TIP3    H164115   4.758   0.646  13.654 -2.4109 -1.4835 -1.4211
14208TIP3    H264116   4.616   0.700  13.650 -1.2689  2.1321  0.9499
14209TIP3   OH264117   2.363   1.154   4.213  0.2107 -0.3051  0.3132
14209TIP3    H164118   2.449   1.165   4.173  0.8980  0.5297  1.9481
14209TIP3    H264119   2.371   1.194   4.299 -1.2596 -1.8611  1.2365
14210TIP3   OH264120   0.647   3.981   4.176  0.1087 -0.1839 -0.2275
14210TIP3    H164121   0.621   3.935   4.256 -0.4543  0.3459 -0.0979
14210TIP3    H264122   0.705   3.920   4.131 -0.6744 -1.0497 -0.0970
14211TIP3   OH264123   5.772   2.005  15.121 -0.4064 -0.2088 -0.3241
14211TIP3    H164124   5.719   2.085  15.120  0.4550  0.3688 -0.0303
14211TIP3    H264125   5.739   1.954  15.046 -0.4583  0.7457 -0.9661
14212TIP3   OH264126   1.758   5.879  16.789 -0.3952  0.3052  0.1326
14212TIP3    H164127   1.734   5.819  16.718 -0.4242 -1.3561  1.4786
14212TIP3    H264128   1.675   5.919  16.814 -0.8138 -0.9107  0.7845
14213TIP3   OH264129   4.738   1.104  16.667  0.1375 -0.3729 -0.1571
14213TIP3    H164130   4.811   1.161  16.689 -1.0114  1.1837 -0.1615
14213TIP3    H264131   4.765   1.060  16.586  0.2117  1.9013 -1.4466
14214TIP3   OH264132   1.733   6.446  17.217 -0.1553 -0.1475 -0.1968
14214TIP3    H164133   1.824   6.432  17.243 -0.1777 -0.0425 -0.0586
14214TIP3    H264134   1.704   6.521  17.270  0.2576  1.0675 -1.6271
14215TIP3   OH264135   5.858   4.811  11.261 -0.0856 -0.1570  0.1390
14215TIP3    H164136   5.916   4.803  11.186  0.3237 -1.8336  0.5999
14215TIP3    H264137   5.866   4.902  11.288 -0.0294  0.4085 -1.6603
14216TIP3   OH264138   3.500   0.063   0.487  0.0023  0.5420  0.1732
14216TIP3    H164139   3.572   0.095   0.434  0.3318 -2.2389 -1.2395
14216TIP3    H264140   3.541   0.035   0.569 -0.1377  2.5040  0.9752
14217TIP3   OH264141   2.518   5.998   4.450 -0.0213  0.1443  0.2578
14217TIP3    H164142   2.541   5.993   4.357 -1.4036  0.3170 -0.1032
14217TIP3    H264143   2.518   5.907   4.480 -1.8403 -0.1459 -0.5028
14218TIP3   OH264144   0.746   2.261  17.000 -0.2554 -0.6667  0.7348
14218TIP3    H164145   0.823   2.204  17.005  0.1493 -0.2691 -0.6100
14218TIP3    H264146   0.678   2.213  17.046  0.2186 -2.0026  0.0980
14219TIP3   OH264147   5.529   3.403   4.726 -0.5702 -0.9801 -0.1753
14219TIP3    H164148   5.470   3.466   4.685 -0.6900 -1.9867 -1.6456
14219TIP3    H264149   5.523   3.422   4.819 -1.1812  0.6658 -0.5052
14220TIP3   OH264150   2.513   4.693  16.760  0.6919  0.1057  0.3162
14220TIP3    H164151   2.586   4.632  16.761  2.6220  2.2925  1.6068
14220TIP3    H264152   2.521   4.740  16.677  0.9826  0.5855  0.6117
14221TIP3   OH264153   3.104   3.546   4.476  0.0830 -0.1175  0.0276
14221TIP3    H164154   3.112   3.639   4.455  1.3153  0.0386  1.1039
14221TIP3    H264155   3.076   3.544   4.567 -0.4097 -0.8119 -0.1327
14222TIP3   OH264156   0.863   3.466  16.939 -0.1267 -0.2130  0.8118
14222TIP3    H164157   0.808   3.395  16.971 -0.1847  0.2722  1.8407
14222TIP3    H264158   0.951   3.443  16.969  0.2345 -0.9320 -0.7322
14223TIP3   OH264159   4.629   4.484  14.093  0.0913 -0.0166 -0.1037
14223TIP3    H164160   4.535   4.473  14.082  0.2257 -0.5362 -0.8333
14223TIP3    H264161   4.640   4.518  14.182 -0.7626 -0.2144  0.0784
14224TIP3   OH264162   2.262   5.154  12.543  0.5985  0.6001 -0.2006
14224TIP3    H164163   2.274   5.078  12.600 -1.7836  1.7434  2.0774
14224TIP3    H264164   2.332   5.214  12.568  1.4851 -0.1427 -0.8279
14225TIP3   OH264165   2.956   0.566   2.754 -0.2265 -0.1631 -0.3620
14225TIP3    H164166   2.879   0.555   2.810  0.0448  0.4310  0.1451
14225TIP3    H264167   2.948   0.655   2.719  0.2766 -0.0587 -0.2216
14226TIP3   OH264168   2.843   4.782  16.780  0.8467 -0.0465 -0.0656
14226TIP3    H164169   2.852   4.852  16.845  0.5760 -3.3249  3.8751
14226TIP3    H264170   2.933   4.762  16.754  1.0443  0.5454  0.1489
14227TIP3   OH264171   3.093   3.537   5.349  0.4553  0.1639  0.3511
14227TIP3    H164172   3.010   3.574   5.380  0.3017  0.8001 -0.7699
14227TIP3    H264173   3.131   3.495   5.427  1.1470  3.5300  2.0456
14228TIP3   OH264174   1.150   4.487  11.991 -0.2831  0.2392 -0.2451
14228TIP3    H164175   1.192   4.405  11.965  0.8014  0.7813 -0.2786
14228TIP3    H264176   1.061   4.481  11.958 -0.0023 -0.6226 -0.8691
14229TIP3   OH264177   2.434   2.062   4.824 -0.4887  0.7812  0.1009
14229TIP3    H164178   2.419   2.098   4.911  1.1393  0.1249  0.6730
14229TIP3    H264179   2.398   1.973   4.828 -0.8788  0.9255 -0.0780
14230TIP3   OH264180   0.186   3.408  13.428 -0.0024 -0.2722 -0.3968
14230TIP3    H164181   0.120   3.402  13.359  1.5084  0.5271 -1.9790
14230TIP3    H264182   0.162   3.487  13.477 -0.6331 -0.4123 -0.4699
14231TIP3   OH264183   0.530   4.163  12.011 -0.0369 -0.2658 -0.4258
14231TIP3    H164184   0.550   4.177  12.104 -2.5104  3.3827 -0.2394
14231TIP3    H264185   0.607   4.198  11.965  0.0047  0.6080  0.2726
14232TIP3   OH264186   4.859   3.101  16.956  0.2701 -0.8686  0.0320
14232TIP3    H164187   4.914   3.107  16.878  1.8976 -1.8019  1.0357
14232TIP3    H264188   4.897   3.028  17.006 -0.3922  0.0166  1.9137
14233TIP3   OH264189   1.521   4.549   1.188 -0.2233  0.3101 -0.2313
14233TIP3    H164190   1.594   4.497   1.154 -0.9910 -0.4786 -0.7277
14233TIP3    H264191   1.490   4.599   1.112 -1.1969 -0.5672 -0.4304
14234TIP3   OH264192   0.086   4.712  11.403 -0.1493 -0.2235 -0.2832
14234TIP3    H164193   0.075   4.802  11.433  0.2557 -0.1584 -0.3175
14234TIP3    H264194   0.175   4.710  11.366 -0.2909 -0.5432 -0.6128
14235TIP3   OH264195   3.561   4.770   2.364 -0.2776  0.4480 -0.0510
14235TIP3    H164196   3.639   4.796   2.316 -1.1284  0.7204 -1.3437
14235TIP3    H264197   3.567   4.675   2.372  0.5280  0.5352  0.5144
14236TIP3   OH264198   2.994   4.128   5.594  0.5603  0.0798  0.2221
14236TIP3    H164199   3.001   4.145   5.500 -0.1504  0.2095  0.1891
14236TIP3    H264200   2.900   4.134   5.613  0.5675 -1.0198  0.7320
14237TIP3   OH264201   4.955   5.259   1.558  0.0780 -0.1187 -0.1297
14237TIP3    H164202   4.977   5.318   1.630  0.4961  0.2506 -0.5526
14237TIP3    H264203   4.887   5.202   1.593  1.7247 -1.3399  1.2409
14238TIP3   OH264204   2.104   6.674  16.704 -0.1161  0.1421 -0.4068
14238TIP3    H164205   2.043   6.692  16.775  1.1165  0.5227  0.6009
14238TIP3    H264206   2.157   6.600  16.735  0.6974  0.5652 -0.7470
14239TIP3   OH264207   0.960   6.263   1.042  0.0005 -0.6830 -0.1873
14239TIP3    H164208   1.056   6.257   1.035  0.0433  0.7248 -1.1400
14239TIP3    H264209   0.938   6.203   1.113  1.8226  0.5891  1.5870
14240TIP3   OH264210   4.117   0.793  13.106 -0.6772 -0.1638  0.4160
14240TIP3    H164211   4.158   0.785  13.020 -0.1090  1.0362  0.5620
14240TIP3    H264212   4.082   0.705  13.124 -1.7882 -0.1854 -1.5167
14241TIP3   OH264213   5.584   1.535   2.203  0.1152 -0.1158 -0.9574
14241TIP3    H164214   5.577   1.476   2.127  1.3313 -0.7612 -0.5897
14241TIP3    H264215   5.664   1.585   2.187  0.2628 -0.1010 -0.2060
14242TIP3   OH264216   1.743   1.122   5.055  0.0139  0.1270  0.0698
14242TIP3    H164217   1.775   1.032   5.052 -1.1757 -0.2982 -0.8844
14242TIP3    H264218   1.695   1.133   4.973 -1.3467  1.0606  0.9436
14243TIP3   OH264219   5.045   5.901  15.791 -0.4908 -0.3645  0.2602
14243TIP3    H164220   5.058   5.819  15.840  1.0305  0.1155  0.7150
14243TIP3    H264221   5.088   5.968  15.845 -0.2810  0.4582 -0.9014
14244TIP3   OH264222   1.882   6.607   2.624 -0.5161 -0.2779 -0.1164
14244TIP3    H164223   1.910   6.693   2.654 -0.8781 -0.1244 -0.2137
14244TIP3    H264224   1.815   6.580   2.687 -0.1903 -0.6239  0.0900
14245TIP3   OH264225   3.629   5.921  15.740 -1.1427  0.0989  0.6408
14245TIP3    H164226   3.688   5.889  15.809 -0.4179  2.0228  0.9866
14245TIP3    H264227   3.546   5.938  15.786 -0.8489  0.7892  0.9315
14246TIP3   OH264228   3.886   4.809  15.208 -0.2123 -0.4320 -0.2221
14246TIP3    H164229   3.966   4.810  15.156  0.3025  0.3177  0.5583
14246TIP3    H264230   3.915   4.779  15.295 -0.4255  1.4850  0.5656
14247TIP3   OH264231   3.886   0.516  15.093 -0.1929  0.4854  0.8333
14247TIP3    H164232   3.894   0.442  15.154 -1.2446  0.0082  0.4206
14247TIP3    H264233   3.965   0.567  15.108  1.5090 -1.6691 -0.1567
14248TIP3   OH264234   1.808   5.576  15.534 -0.0411  0.4097 -0.4153
14248TIP3    H164235   1.757   5.500  15.506 -0.7251  0.1909  1.2838
14248TIP3    H264236   1.886   5.538  15.576  0.1954  0.6901 -0.5938
14249TIP3   OH264237   1.821   0.415  16.581  0.0044  0.1226  0.0656
14249TIP3    H164238   1.768   0.440  16.656  0.7262  0.2266  0.5512
14249TIP3    H264239   1.775   0.340  16.543 -1.4575  1.3262 -0.6136
14250TIP3   OH264240   6.466   1.659  11.175 -0.4882  0.0305  0.2124
14250TIP3    H164241   6.469   1.700  11.088  0.5856 -0.3027  0.0754
14250TIP3    H264242   6.434   1.571  11.158 -0.9543  0.1875  0.2559
14251TIP3   OH264243   0.174   3.661   3.565 -0.1201 -0.4604  0.0932
14251TIP3    H164244   0.084   3.666   3.595 -0.5717 -1.6120 -1.0066
14251TIP3    H264245   0.179   3.724   3.493  0.4426  0.8494  1.2164
14252TIP3   OH264246   0.935   6.548  15.822  0.0935 -0.5051 -0.2022
14252TIP3    H164247   0.890   6.513  15.898 -0.9802  0.1177 -0.5325
14252TIP3    H264248   0.935   6.477  15.759 -0.4964 -0.4914 -0.2232
14253TIP3   OH264249   6.128   6.260   5.535  0.2300  0.4355 -0.1537
14253TIP3    H164250   6.123   6.316   5.458  1.1958  1.7622  0.7178
14253TIP3    H264251   6.103   6.173   5.503 -0.8144  1.2385 -1.6365
14254TIP3   OH264252   1.988   6.117  13.519  0.4549 -0.0488 -0.2074
14254TIP3    H164253   2.066   6.066  13.542  1.0119  0.6573 -0.5109
14254TIP3    H264254   1.925   6.096  13.588  1.0517 -0.3120  0.2677
14255TIP3   OH264255   3.086   2.351   1.500 -0.9925 -0.3583  0.1659
14255TIP3    H164256   3.171   2.309   1.489 -0.6732  0.0167  1.0750
14255TIP3    H264257   3.095   2.403   1.580 -2.0636 -0.2784  0.2561
14256TIP3   OH264258   3.036   4.164   5.332  0.3522 -0.1636  0.5203
14256TIP3    H164259   3.065   4.099   5.268  0.2093 -1.3623  1.6230
14256TIP3    H264260   3.010   4.240   5.280 -1.0783 -1.5904 -0.9479
14257TIP3   OH264261   6.578   0.924   0.034 -0.0380  0.4610 -0.3709
14257TIP3    H164262   6.608   0.991  -0.028  2.0236 -1.5487 -1.7165
14257TIP3    H264263   6.640   0.929   0.106 -0.6213  0.7868  0.1161
14258TIP3   OH264264   1.138   5.721  12.364  0.5021  0.4999 -0.2018
14258TIP3    H164265   1.197   5.646  12.369  0.9846  0.8916  0.0560
14258TIP3    H264266   1.051   5.684  12.378  0.9105  0.2562  2.2723
14259TIP3   OH264267   3.688   2.543   3.430 -0.0978 -0.2233  0.6762
14259TIP3    H164268   3.693   2.605   3.358 -0.3682  0.5787  1.3327
14259TIP3    H264269   3.632   2.586   3.495 -2.1913 -2.1099  0.2211
14260TIP3   OH264270   5.913   4.599  15.971 -0.1103 -0.2747  0.0103
14260TIP3    H164271   5.827   4.570  15.940 -1.0516  0.7343  1.5065
14260TIP3    H264272   5.934   4.540  16.043  0.8802 -1.0515 -0.8889
14261TIP3   OH264273   3.673   5.779   3.191 -0.3040  0.3648  0.0785
14261TIP3    H164274   3.629   5.695   3.199 -2.0703  1.0321 -1.5550
14261TIP3    H264275   3.766   5.759   3.194 -0.6951 -1.5957  0.1224
14262TIP3   OH264276   0.734   6.393  13.927  0.5082  0.1083 -0.4829
14262TIP3    H164277   0.822   6.427  13.947 -0.3906  1.4251  1.5819
14262TIP3    H264278   0.721   6.322  13.989  0.0220  0.0714 -0.6248
14263TIP3   OH264279   2.095   4.966   2.668 -0.0426 -0.6816 -0.3834
14263TIP3    H164280   2.085   5.042   2.725  0.0807 -0.2741 -0.9000
14263TIP3    H264281   2.008   4.955   2.628 -0.6465 -2.0604  1.2212
14264TIP3   OH264282   2.033   4.501  14.882 -0.4227  0.0852 -0.6362
14264TIP3    H164283   2.116   4.457  14.900 -0.2388  0.8075  0.3559
14264TIP3    H264284   1.989   4.506  14.966 -2.1248 -1.5002 -1.3638
14265TIP3   OH264285   5.782   3.144  17.219  0.2114  0.0140 -0.1772
14265TIP3    H164286   5.700   3.097  17.230  0.0304  0.0309 -1.3691
14265TIP3    H264287   5.756   3.235  17.204  0.5299  0.3663  1.1929
14266TIP3   OH264288   0.024   1.312   2.871 -0.1137 -0.0617 -0.2363
14266TIP3    H164289   0.004   1.310   2.778 -1.5892  1.1640 -0.0019
14266TIP3    H264290  -0.016   1.394   2.902  0.2878 -0.4683  1.4751
14267TIP3   OH264291   4.397   3.107   2.260  0.5643 -0.2379 -0.2340
14267TIP3    H164292   4.321   3.061   2.296  0.1424  0.2599 -0.4821
14267TIP3    H264293   4.450   3.038   2.220 -0.6110 -0.3820 -1.5822
14268TIP3   OH264294   0.279   6.544   0.113  0.3358 -0.1158 -0.5896
14268TIP3    H164295   0.239   6.487   0.047  0.7265  0.3217 -1.2181
14268TIP3    H264296   0.368   6.560   0.080  0.4325  0.3592 -0.1111
14269TIP3   OH264297   2.365   3.194   5.750 -0.0574 -0.6267 -0.0394
14269TIP3    H164298   2.450   3.152   5.739  0.0339 -0.2834 -0.7705
14269TIP3    H264299   2.303   3.122   5.760  0.3017 -0.8828  0.3423
14270TIP3   OH264300   4.140   2.108  11.678 -0.6874 -0.1484 -0.0154
14270TIP3    H164301   4.098   2.108  11.592  0.1148 -0.8095 -0.4153
14270TIP3    H264302   4.192   2.028  11.680  0.6026  0.6723  0.4505
14271TIP3   OH264303   2.366   2.935   5.917  0.5277  0.4571  0.1762
14271TIP3    H164304   2.459   2.937   5.939  0.0488 -2.6850  3.7152
14271TIP3    H264305   2.324   2.989   5.984 -0.3268  0.4743 -0.3498
14272TIP3   OH264306   4.051   4.105  16.740 -0.1115 -0.9490  0.2850
14272TIP3    H164307   4.036   4.153  16.658 -0.8346 -2.3355 -0.4171
14272TIP3    H264308   3.970   4.057  16.756 -0.7057  0.6964  2.8361
14273TIP3   OH264309   1.994   2.157   0.914 -0.1129  0.2003  0.3740
14273TIP3    H164310   2.040   2.075   0.930 -1.0496 -0.4274 -0.0535
14273TIP3    H264311   1.996   2.167   0.819  0.0433  0.7094  0.4278
14274TIP3   OH264312   4.025   3.517  16.033  0.6818 -0.0765  0.5100
14274TIP3    H164313   3.973   3.594  16.008  1.0004  0.2473  0.8215
14274TIP3    H264314   4.080   3.548  16.105  0.6342 -0.6693  0.8074
14275TIP3   OH264315   1.568   6.378  17.015  0.0808  0.6801  0.3483
14275TIP3    H164316   1.626   6.402  17.087 -1.9858  0.2331  2.2574
14275TIP3    H264317   1.618   6.402  16.936  1.8574  2.5480  1.9016
14276TIP3   OH264318   0.553   4.496  16.538 -0.2687 -0.3537 -0.2501
14276TIP3    H164319   0.597   4.577  16.567  0.0992 -1.0573  1.2572
14276TIP3    H264320   0.496   4.473  16.611 -0.5049 -1.3629 -0.7457
14277TIP3   OH264321   5.982   6.796   4.119  0.2364  0.9352 -0.6968
14277TIP3    H164322   5.945   6.772   4.204 -0.5029 -0.5558 -1.4028
14277TIP3    H264323   5.996   6.891   4.125 -0.5881  0.9975  0.7729
14278TIP3   OH264324   4.215   1.304  13.261 -0.3974 -0.6305  0.6699
14278TIP3    H164325   4.121   1.317  13.265 -0.3616  0.4176 -0.9412
14278TIP3    H264326   4.226   1.214  13.232 -0.9761 -0.2561 -0.8015
14279TIP3   OH264327   2.381   5.932  16.929  0.1727  0.3183 -0.0910
14279TIP3    H164328   2.351   5.995  16.995 -0.0492  1.2116 -1.0199
14279TIP3    H264329   2.452   5.977  16.883  1.8607 -1.1261  0.9554
14280TIP3   OH264330   2.117   3.503   1.068 -0.4650  0.3179 -0.3231
14280TIP3    H164331   2.085   3.530   0.982 -0.5666  0.8175 -0.1304
14280TIP3    H264332   2.211   3.488   1.056 -0.8199 -1.6374 -1.0122
14281TIP3   OH264333   6.118   1.908   5.916  0.3367  0.1195  0.2787
14281TIP3    H164334   6.139   1.818   5.940 -1.4130 -0.2854  0.4169
14281TIP3    H264335   6.066   1.941   5.989 -2.1062  0.0128 -1.3005
14282TIP3   OH264336   5.028   2.234  16.185  0.3221 -0.2264  0.0932
14282TIP3    H164337   5.043   2.325  16.212  1.7152  0.0763 -1.5152
14282TIP3    H264338   5.098   2.184  16.228  0.2836 -0.3509  0.0119
14283TIP3   OH264339   3.898   4.526   2.528  0.1237  0.3011 -0.0273
14283TIP3    H164340   3.918   4.586   2.600  2.7038 -0.2713 -0.1590
14283TIP3    H264341   3.849   4.455   2.570  2.2304 -0.4110  1.4461
14284TIP3   OH264342   3.263   4.691   5.540 -0.0865 -0.5406 -0.4447
14284TIP3    H164343   3.186   4.745   5.529 -0.6559 -1.2222  0.0853
14284TIP3    H264344   3.232   4.612   5.585  1.2753  0.1153  1.8359
14285TIP3   OH264345   3.945   1.784  11.352 -0.2105 -0.5006 -0.2246
14285TIP3    H164346   3.928   1.863  11.301 -0.0655 -0.9132 -0.9254
14285TIP3    H264347   3.928   1.809  11.443 -2.9901 -0.4283 -0.6830
14286TIP3   OH264348   2.527   6.566   5.013  0.4038 -0.4039  0.2435
14286TIP3    H164349   2.563   6.519   5.088  2.9201 -0.8400 -1.1049
14286TIP3    H264350   2.553   6.657   5.027  0.0774 -0.3297  0.3568
14287TIP3   OH264351   3.461   2.239   0.179 -0.7849  0.6517  0.1695
14287TIP3    H164352   3.441   2.280   0.094 -1.2852  0.9398  0.4220
14287TIP3    H264353   3.522   2.301   0.221 -0.7423  0.6380  0.1279
14288TIP3   OH264354   2.544   1.751   1.227 -0.0597  0.4961 -0.0707
14288TIP3    H164355   2.556   1.798   1.309 -0.5263  0.9091 -0.2366
14288TIP3    H264356   2.458   1.709   1.235  0.4613 -0.5760  0.1902
14289TIP3   OH264357   6.383   0.397  12.900 -0.4128  0.2681  0.0133
14289TIP3    H164358   6.396   0.478  12.950  0.6709  0.7223 -0.9656
14289TIP3    H264359   6.466   0.382  12.856 -0.6222 -1.3582  0.1038
14290TIP3   OH264360   5.531   4.605  15.318  0.0860  0.4821 -0.2027
14290TIP3    H164361   5.565   4.594  15.229  1.1900  0.8214  0.1651
14290TIP3    H264362   5.500   4.517  15.342 -0.1830  0.3749 -0.8897
14291TIP3   OH264363   0.168   3.144   6.060  0.1737 -0.0606  0.7634
14291TIP3    H164364   0.181   3.223   6.113 -0.6639  0.4899  0.1831
14291TIP3    H264365   0.234   3.151   5.991 -1.8335  1.8140 -1.1414
14292TIP3   OH264366   5.358   1.747  13.133  0.4154  0.5625  0.0102
14292TIP3    H164367   5.299   1.820  13.151  0.1611  0.1885  0.7432
14292TIP3    H264368   5.307   1.668  13.151  0.0405  0.0890 -2.6930
14293TIP3   OH264369   0.380   2.655  10.606  0.1774 -0.5693  0.6687
14293TIP3    H164370   0.315   2.644  10.676 -0.2101 -0.2421  0.3616
14293TIP3    H264371   0.422   2.739  10.626  0.3907 -0.6982  0.7692
14294TIP3   OH264372   6.742   4.589  14.797  0.3977 -0.0417 -0.6697
14294TIP3    H164373   6.715   4.522  14.859  0.9705 -0.9697 -1.4089
14294TIP3    H264374   6.664   4.604  14.743 -0.2982  1.1952  0.5886
14295TIP3   OH264375   2.979   5.781  15.489  0.2181 -0.4052  0.2327
14295TIP3    H164376   2.971   5.691  15.519 -0.7080  0.0018  1.2969
14295TIP3    H264377   2.934   5.782  15.404  2.1283 -1.3838 -0.8632
14296TIP3   OH264378   1.646   4.957   2.844 -0.2876 -0.0131 -1.0411
14296TIP3    H164379   1.663   4.897   2.771 -0.2415  0.4885 -1.4471
14296TIP3    H264380   1.691   5.038   2.819  3.2477 -0.9752  1.2933
14297TIP3   OH264381   5.281   0.256   2.369 -0.7206 -0.4055 -0.1433
14297TIP3    H164382   5.367   0.239   2.331 -0.4490 -0.9367  0.7062
14297TIP3    H264383   5.224   0.270   2.292  0.3039  0.9884 -0.6941
14298TIP3   OH264384   6.025   5.010  16.183 -0.1066  0.5950 -0.3609
14298TIP3    H164385   5.978   5.051  16.110 -0.4927  1.8317  0.5319
14298TIP3    H264386   5.955   4.975  16.239  0.1618  0.0456 -0.3715
14299TIP3   OH264387   5.173   4.763   2.996  0.3398  0.0901 -0.4828
14299TIP3    H164388   5.140   4.677   2.972  0.9381 -0.2186 -0.1964
14299TIP3    H264389   5.267   4.751   3.009  0.0117  0.1229  2.5000
14300TIP3   OH264390   3.853   4.861   6.671  0.7386  0.0104 -0.4664
14300TIP3    H164391   3.829   4.948   6.703  0.6933 -0.1883  0.0388
14300TIP3    H264392   3.770   4.816   6.659  0.8148 -0.5743  0.9976
14301TIP3   OH264393   0.517   2.619  15.210 -0.1710 -0.2153  0.0249
14301TIP3    H164394   0.589   2.568  15.173 -1.7942 -0.3525 -3.3099
14301TIP3    H264395   0.539   2.709  15.188  0.2814  0.0541  1.4965
14302TIP3   OH264396   6.798   5.519  16.507  0.2697  0.7625 -0.3761
14302TIP3    H164397   6.835   5.547  16.591 -2.0304  0.2821  0.8839
14302TIP3    H264398   6.799   5.423  16.512 -1.4903  0.7294 -0.0815
14303TIP3   OH264399   4.539   4.773  14.572 -0.1605 -0.1580 -1.0024
14303TIP3    H164400   4.577   4.837  14.632  0.6979 -0.5925 -1.0620
14303TIP3    H264401   4.446   4.772  14.594  0.0756 -0.0452  0.0873
14304TIP3   OH264402   1.143   1.345  15.558  0.1709 -0.1048 -0.5576
14304TIP3    H164403   1.159   1.279  15.490 -1.3503 -0.6691 -0.4254
14304TIP3    H264404   1.048   1.359  15.555 -0.0681 -0.7373  1.9627
14305TIP3   OH264405   0.564   4.852  11.332  0.4564  0.7711  0.2224
14305TIP3    H164406   0.587   4.803  11.253  3.5076 -0.1296  1.4882
14305TIP3    H264407   0.602   4.938  11.319  2.0603  0.2437  1.0992
14306TIP3   OH264408   1.067   4.124  15.343  0.6012  0.3506 -0.0148
14306TIP3    H164409   1.104   4.066  15.409  0.1487 -2.0758 -1.7511
14306TIP3    H264410   1.110   4.097  15.261  0.1206  2.2849 -0.9738
14307TIP3   OH264411   0.957   0.373  15.525 -0.7146 -0.0894  0.3206
14307TIP3    H164412   0.934   0.381  15.432 -0.5414  0.0091  0.2850
14307TIP3    H264413   0.958   0.278  15.541 -0.4671 -0.1187  0.1487
14308TIP3   OH264414   2.687   2.900   5.185  0.6772  0.2432  0.2692
14308TIP3    H164415   2.713   2.847   5.110  0.2418 -0.0649  0.3351
14308TIP3    H264416   2.700   2.843   5.260 -1.3002 -0.3509  0.2103
14309TIP3   OH264417   3.070   3.321  13.666 -0.3256  0.3105  0.1708
14309TIP3    H164418   3.141   3.311  13.602  0.0011 -0.3956  0.6227
14309TIP3    H264419   2.990   3.303  13.616  0.0427 -1.9679  0.2988
14310TIP3   OH264420   2.937   1.700   1.895 -0.5087 -0.4352  0.4522
14310TIP3    H164421   2.988   1.649   1.832  0.2083 -0.8662  1.3655
14310TIP3    H264422   2.990   1.778   1.912  0.0766 -1.0623  1.6903
14311TIP3   OH264423   5.215   2.921   2.782 -0.3039 -0.2832  0.5487
14311TIP3    H164424   5.250   2.834   2.761  1.5287  0.4356  0.3736
14311TIP3    H264425   5.174   2.951   2.701  1.5820  0.1182 -0.3121
14312TIP3   OH264426   2.646   3.475  13.528 -0.0386  0.2896  0.3759
14312TIP3    H164427   2.633   3.569  13.514  3.6454  0.9245  0.4170
14312TIP3    H264428   2.619   3.461  13.619 -1.2998  1.1187  0.1621
14313TIP3   OH264429   1.643   3.244  11.001  0.1455 -0.1542  0.7765
14313TIP3    H164430   1.711   3.181  11.024 -0.2676 -1.4198 -1.2625
14313TIP3    H264431   1.562   3.207  11.037 -0.1876 -1.1564 -0.8821
14314TIP3   OH264432   1.574   3.277  16.770 -0.0692  0.4648 -0.0979
14314TIP3    H164433   1.617   3.297  16.853  1.1723 -0.6983 -0.4196
14314TIP3    H264434   1.645   3.246  16.714 -1.5395 -4.0284  0.1085
14315TIP3   OH264435   2.622   6.027  14.884  0.4334  1.1327  0.1795
14315TIP3    H164436   2.558   5.990  14.823  0.9072  0.7027 -0.0676
14315TIP3    H264437   2.674   5.952  14.913  1.7745  1.6613 -0.7623
14316TIP3   OH264438   5.993   0.584   2.770  0.3087  0.1538 -0.7094
14316TIP3    H164439   5.944   0.658   2.806 -0.2430 -0.7193  0.4090
14316TIP3    H264440   6.033   0.618   2.690 -0.2030  1.5561 -0.3967
14317TIP3   OH264441   2.630   6.359   0.926  0.2302 -0.5480  0.1121
14317TIP3    H164442   2.553   6.311   0.898  0.2610 -0.6553  0.2078
14317TIP3    H264443   2.702   6.295   0.920  0.1023 -0.8134  1.1888
14318TIP3   OH264444   0.295   2.976  14.517  0.7761 -0.2741 -0.4077
14318TIP3    H164445   0.387   2.998  14.534  0.0327  0.9737  2.7341
14318TIP3    H264446   0.290   2.882  14.533  1.5101 -0.3509 -0.5977
14319TIP3   OH264447   2.791   0.218  16.701 -0.4098  0.2634 -0.6493
14319TIP3    H164448   2.857   0.154  16.727  0.5777  1.8341  0.9269
14319TIP3    H264449   2.724   0.167  16.656 -0.1718 -2.0605  1.4309
14320TIP3   OH264450   3.964   0.869  16.012 -0.5031 -0.0175 -0.2647
14320TIP3    H164451   4.009   0.786  15.994  0.5537 -0.1328  2.4152
14320TIP3    H264452   4.017   0.911  16.079 -2.1165  1.9133 -0.1042
14321TIP3   OH264453   4.010   2.785   4.377  0.2293  0.7933  0.2977
14321TIP3    H164454   3.993   2.879   4.383  1.7195  1.1108  0.0499
14321TIP3    H264455   3.926   2.746   4.353 -0.5818  1.9666  1.1148
14322TIP3   OH264456   4.323   5.830   5.090  0.4246 -0.6855  0.3649
14322TIP3    H164457   4.418   5.844   5.088  0.3432 -0.0625  0.5742
14322TIP3    H264458   4.302   5.817   5.183  0.1869  0.0962  0.4297
14323TIP3   OH264459   3.390   2.387  17.160 -0.2954 -0.3794 -0.4461
14323TIP3    H164460   3.376   2.478  17.134 -0.5301 -0.5355 -0.8812
14323TIP3    H264461   3.305   2.345  17.146 -0.1755 -0.6774 -0.2946
14324TIP3   OH264462   5.637   0.890   6.368 -0.1956 -0.0457  0.0044
14324TIP3    H164463   5.561   0.939   6.336 -1.3279 -0.5388  1.7819
14324TIP3    H264464   5.685   0.952   6.423  0.0077 -0.0898 -0.1220
14325TIP3   OH264465   4.303   6.295   6.528 -0.2684  0.8198  0.2418
14325TIP3    H164466   4.295   6.216   6.581  0.8045  0.9620  0.6425
14325TIP3    H264467   4.220   6.301   6.481 -0.9887  0.3348  1.4056
14326TIP3   OH264468   1.757   2.871  12.784  0.5381  0.1270  0.1278
14326TIP3    H164469   1.708   2.906  12.710 -1.4567 -2.0246  0.3315
14326TIP3    H264470   1.719   2.915  12.860  0.4445  0.0738  0.1116
14327TIP3   OH264471   5.750   4.610  12.518  0.0586 -0.6750 -0.1133
14327TIP3    H164472   5.822   4.550  12.497  0.8099  0.1945 -0.0675
14327TIP3    H264473   5.793   4.692  12.542 -0.9585 -0.0485 -0.3626
14328TIP3   OH264474   2.082   1.330   4.335  0.4566 -0.1604  0.0272
14328TIP3    H164475   2.046   1.373   4.257 -1.5046 -0.9440  0.4479
14328TIP3    H264476   2.162   1.287   4.304 -0.5278 -0.8492 -1.6844
14329TIP3   OH264477   1.024   6.061  12.448 -0.2376  0.3116 -0.2135
14329TIP3    H164478   1.040   5.969  12.429 -1.4239 -0.2339  1.2452
14329TIP3    H264479   0.929   6.070  12.442 -0.2542  1.1207  0.9970
14330TIP3   OH264480   6.562   0.752   5.159  0.8378 -0.0957 -0.3405
14330TIP3    H164481   6.637   0.788   5.207 -0.2119 -0.2795  1.5295
14330TIP3    H264482   6.485   0.787   5.204 -0.2098 -0.8857 -1.4493
14331TIP3   OH264483   0.205   3.303   0.478  0.1923  0.0525  0.4671
14331TIP3    H164484   0.204   3.383   0.531  1.7260 -0.1867  0.9069
14331TIP3    H264485   0.127   3.309   0.424 -0.0172  1.5768  0.8947
14332TIP3   OH264486   0.539   4.589  13.141  0.4979  0.5036 -0.2083
14332TIP3    H164487   0.563   4.535  13.217 -0.6403 -1.7378 -1.3401
14332TIP3    H264488   0.468   4.541  13.099  1.8225  1.0294 -3.3562
14333TIP3   OH264489   2.816   4.675  10.927  0.1171 -0.3590 -0.3182
14333TIP3    H164490   2.840   4.631  11.008 -0.6860 -0.6697 -0.2428
14333TIP3    H264491   2.772   4.608  10.875  0.0873 -0.0009 -0.7683
14334TIP3   OH264492   1.914   0.304  14.260  0.3270 -0.4312 -0.1234
14334TIP3    H164493   1.931   0.291  14.167  1.1404  0.5506 -0.1335
14334TIP3    H264494   1.928   0.398  14.274 -1.3656 -0.2664  0.6736
14335TIP3   OH264495   5.507   2.956  12.413  0.4899  0.6653  0.4397
14335TIP3    H164496   5.555   2.915  12.341 -1.2378 -1.1506  0.2591
14335TIP3    H264497   5.419   2.918  12.409 -0.4142  2.4173  1.9646
14336TIP3   OH264498   5.374   1.509   5.470  0.5266 -0.6130 -0.5128
14336TIP3    H164499   5.439   1.452   5.429  1.3735  0.4452 -0.6843
14336TIP3    H264500   5.398   1.510   5.563  0.5494 -0.4980 -0.5195
14337TIP3   OH264501   1.451   4.856  12.000  0.1242  0.1613 -0.2583
14337TIP3    H164502   1.433   4.762  11.992  1.3700 -0.3067  1.8042
14337TIP3    H264503   1.392   4.885  12.069 -1.2542  1.2522 -1.8289
14338TIP3   OH264504   6.081   5.302   5.823 -0.5877  0.3868  0.2608
14338TIP3    H164505   6.074   5.396   5.839 -1.0419  0.1141  1.9050
14338TIP3    H264506   5.991   5.270   5.832 -0.1221 -0.5143  2.1779
14339TIP3   OH264507   4.921   1.486   5.385  0.6438 -0.7351 -0.1015
14339TIP3    H164508   4.898   1.564   5.437  0.1008 -0.8592 -0.1506
14339TIP3    H264509   5.010   1.503   5.356  0.3093  0.1726 -0.6541
14340TIP3   OH264510   5.111   2.843   3.232 -0.1544  0.4059 -0.1965
14340TIP3    H164511   5.075   2.761   3.196 -0.7951  1.2549 -1.6022
14340TIP3    H264512   5.194   2.817   3.272  0.1422 -0.7862 -1.4878
14341TIP3   OH264513   0.835   6.659   4.249 -0.1926 -0.0570  0.5162
14341TIP3    H164514   0.930   6.657   4.260 -0.2542 -0.9076  0.9750
14341TIP3    H264515   0.822   6.693   4.161  0.5769 -0.7525  0.1185
14342TIP3   OH264516   6.056   5.751   5.947  0.0052 -0.3167  0.2417
14342TIP3    H164517   6.092   5.834   5.916  1.5035 -0.1542  2.1834
14342TIP3    H264518   6.068   5.754   6.042 -0.7828 -2.3601  0.4555
14343TIP3   OH264519   6.172   1.560  14.395 -0.3646 -0.8118 -0.3238
14343TIP3    H164520   6.225   1.551  14.316  1.0671 -1.4133  0.6813
14343TIP3    H264521   6.083   1.536  14.367  0.0644 -0.7480 -1.7977
14344TIP3   OH264522   5.954   3.414  11.263 -0.4226 -0.3201 -0.0002
14344TIP3    H164523   6.001   3.479  11.210 -0.9504  0.4241  0.4335
14344TIP3    H264524   5.943   3.339  11.204  0.6225 -0.2072 -0.3475
14345TIP3   OH264525   5.177   2.365  16.568  0.4079  0.2362 -0.4184
14345TIP3    H164526   5.254   2.308  16.576  1.7121  1.7560 -1.6192
14345TIP3    H264527   5.177   2.416  16.649  1.5931  1.3004 -1.0632
14346TIP3   OH264528   6.659   1.143  14.469  0.2665  0.1645 -0.1105
14346TIP3    H164529   6.667   1.073  14.534 -1.3881 -0.9039 -0.9971
14346TIP3    H264530   6.611   1.212  14.515 -2.5483 -1.3177 -0.6338
14347TIP3   OH264531   4.215   5.592   0.949  0.2885 -0.7181 -0.7249
14347TIP3    H164532   4.179   5.528   1.010  0.7141 -1.5334 -1.3240
14347TIP3    H264533   4.309   5.594   0.967  0.2341  0.0166 -0.4638
14348TIP3   OH264534   5.270   6.463  14.871 -1.0135 -0.1307 -0.0791
14348TIP3    H164535   5.178   6.456  14.845 -0.9959 -0.2119 -0.1201
14348TIP3    H264536   5.281   6.555  14.895 -0.7747  0.1678 -1.2997
14349TIP3   OH264537   5.284   4.487  11.832 -0.0078  0.2365 -0.0416
14349TIP3    H164538   5.284   4.582  11.822 -2.3970  0.4450  1.1061
14349TIP3    H264539   5.348   4.470  11.901 -1.2162  1.3253  1.4304
14350TIP3   OH264540   0.859   6.308  14.333  0.0474 -0.1106 -0.5800
14350TIP3    H164541   0.833   6.230  14.381  2.3872 -0.6836 -0.1086
14350TIP3    H264542   0.798   6.375  14.361 -0.1013 -1.0160  1.4239
14351TIP3   OH264543   6.381   4.783   0.460  0.2360 -0.9797  0.3335
14351TIP3    H164544   6.364   4.711   0.400  0.0053 -2.0157  1.5953
14351TIP3    H264545   6.354   4.861   0.411 -2.3780 -2.0035 -0.0336
14352TIP3   OH264546   1.014   5.725  13.011  0.0043 -0.4440  0.0372
14352TIP3    H164547   0.980   5.735  13.100 -0.6234  0.0281 -0.2473
14352TIP3    H264548   1.053   5.810  12.991  0.2441 -0.5853 -0.0968
14353TIP3   OH264549   6.712   4.769   1.418  0.3054 -0.1332  0.0646
14353TIP3    H164550   6.797   4.771   1.463 -0.1533  2.3986  0.9788
14353TIP3    H264551   6.684   4.678   1.425  1.4176 -0.3776  2.8070
14354TIP3   OH264552   3.417   1.528  12.436 -0.2126 -0.7380  0.2933
14354TIP3    H164553   3.396   1.482  12.517 -0.1111  0.4309  1.0056
14354TIP3    H264554   3.350   1.596  12.428 -0.1216 -0.7320 -0.5107
14355TIP3   OH264555   6.085   6.314  16.907 -0.1816 -0.6105  0.3495
14355TIP3    H164556   6.024   6.247  16.876 -0.4067  0.1783 -0.9751
14355TIP3    H264557   6.172   6.277  16.889 -0.2974 -0.7437  0.0633
14356TIP3   OH264558   4.984   6.374  16.944  0.1469  0.5139 -0.1268
14356TIP3    H164559   4.960   6.466  16.930  0.4457  0.7759  0.9962
14356TIP3    H264560   4.901   6.327  16.940 -0.0272  0.8529 -0.5643
14357TIP3   OH264561   2.090   3.934   5.457 -0.1033 -0.0135 -0.0026
14357TIP3    H164562   2.095   3.943   5.552 -2.1380  2.7513 -0.0271
14357TIP3    H264563   2.161   3.989   5.424  0.7469 -1.1528 -0.1425
14358TIP3   OH264564   0.500   6.762   1.201 -0.1526  0.2109 -0.0179
14358TIP3    H164565   0.546   6.786   1.282 -0.9518 -0.8609  0.7859
14358TIP3    H264566   0.567   6.765   1.133  0.2294  2.6356  0.3705
14359TIP3   OH264567   6.304   3.218   3.178 -0.0615  0.7672  0.0679
14359TIP3    H164568   6.307   3.273   3.100  1.2096  0.4449 -0.1395
14359TIP3    H264569   6.327   3.131   3.148 -1.5818  0.2000  0.4826
14360TIP3   OH264570   1.092   4.098   2.005 -0.4927  0.4872  0.0099
14360TIP3    H164571   1.127   4.013   2.028 -0.4859  0.2653 -0.7708
14360TIP3    H264572   1.015   4.109   2.062 -1.0044 -0.4248 -0.4748
14361TIP3   OH264573   0.385   4.269  12.486  0.7658  0.0325  0.1109
14361TIP3    H164574   0.415   4.358  12.468 -0.0295  0.4029  0.5520
14361TIP3    H264575   0.326   4.248  12.414 -0.0473  0.3612  0.6659
14362TIP3   OH264576   2.781   4.964   5.701 -0.3726 -0.2839 -0.7005
14362TIP3    H164577   2.772   5.000   5.789 -2.7530 -0.1039 -0.9314
14362TIP3    H264578   2.786   4.869   5.714 -0.9937 -0.2738 -0.3625
14363TIP3   OH264579   0.390   5.606   2.391 -0.2956 -0.8364 -0.1276
14363TIP3    H164580   0.303   5.576   2.365 -0.8323  1.0595 -0.6667
14363TIP3    H264581   0.374   5.683   2.446  1.0299  0.9843 -2.1294
14364TIP3   OH264582   2.455   6.647  12.261  0.1554  0.9053  0.2275
14364TIP3    H164583   2.413   6.696  12.190 -1.8752  0.2972  0.9344
14364TIP3    H264584   2.386   6.634  12.325  1.2996 -0.6888  1.2165
14365TIP3   OH264585   2.768   6.615  13.656  0.2281 -0.1929  0.0992
14365TIP3    H164586   2.788   6.675  13.728 -0.3439  0.3157 -0.1611
14365TIP3    H264587   2.750   6.672  13.582  1.5527 -0.7177 -0.6592
14366TIP3   OH264588   4.755   5.122  16.199  0.8909 -0.1330 -0.4549
14366TIP3    H164589   4.849   5.119  16.184  0.7427  1.0082 -1.7981
14366TIP3    H264590   4.740   5.205  16.244  0.4653  0.0683 -0.9468
14367TIP3   OH264591   1.676   5.238   0.717  0.5410 -0.2267  0.3754
14367TIP3    H164592   1.619   5.287   0.776  0.4236  0.9344 -0.6686
14367TIP3    H264593   1.626   5.229   0.636  1.8212  0.8944 -0.5903
14368TIP3   OH264594   0.651   4.983  14.483  0.4141  0.0633 -0.5403
14368TIP3    H164595   0.635   5.074  14.509  1.3249  0.3166 -0.8248
14368TIP3    H264596   0.571   4.937  14.508  0.7637  0.5020  1.6839
14369TIP3   OH264597   0.344   0.068   3.962 -0.1801  0.0394  0.1701
14369TIP3    H164598   0.276   0.130   3.989  0.3278 -0.2522  2.3017
14369TIP3    H264599   0.315  -0.017   3.997  0.4134 -0.4311 -0.4444
14370TIP3   OH264600   1.159   4.954   1.549  0.3741 -0.4601  0.2671
14370TIP3    H164601   1.178   4.861   1.558 -1.6479 -1.0765 -0.9741
14370TIP3    H264602   1.086   4.969   1.609  0.1430  0.1231 -0.1517
14371TIP3   OH264603   1.080   0.864   4.987 -0.0956 -0.0748 -0.1668
14371TIP3    H164604   1.106   0.854   4.895 -0.5965 -2.4127 -0.1120
14371TIP3    H264605   1.163   0.877   5.034  0.4141 -1.2120 -0.7084
14372TIP3   OH264606   2.445   5.917  16.410 -0.0982 -0.3808  0.1050
14372TIP3    H164607   2.384   5.959  16.471  0.3742  0.5090 -0.0189
14372TIP3    H264608   2.506   5.869  16.467  0.9092  1.2099  0.4173
14373TIP3   OH264609   5.813   2.951   6.513 -0.2521 -0.1955 -0.3890
14373TIP3    H164610   5.723   2.959   6.481  0.4373  0.9174 -2.2391
14373TIP3    H264611   5.807   2.968   6.607 -2.0344 -0.7818 -0.3607
14374TIP3   OH264612   5.348   4.982  10.857 -0.2959 -0.3819  0.1323
14374TIP3    H164613   5.329   4.909  10.799  0.7604  0.1983 -0.9970
14374TIP3    H264614   5.388   4.941  10.934 -0.3355 -1.0469 -0.1916
14375TIP3   OH264615   6.116   6.105  13.517  0.3223  0.3841 -0.4959
14375TIP3    H164616   6.030   6.066  13.506  0.8678 -1.2128  0.4808
14375TIP3    H264617   6.177   6.031  13.510  1.5421  1.3203 -0.2195
14376TIP3   OH264618   1.453   5.329  13.323  0.4015 -0.0652  0.1230
14376TIP3    H164619   1.507   5.406  13.341  0.6813 -0.2846  0.2177
14376TIP3    H264620   1.508   5.273  13.268  0.4365 -0.4909  0.5843
14377TIP3   OH264621   3.447   0.896  16.077  0.6668  0.2407  0.0195
14377TIP3    H164622   3.399   0.942  16.007  0.3918 -1.4397 -0.9616
14377TIP3    H264623   3.391   0.906  16.154 -0.2860  0.0255 -0.6180
14378TIP3   OH264624   4.636   1.888   5.355  0.2392  0.4066  0.2230
14378TIP3    H164625   4.705   1.916   5.415 -0.0214  1.3230  0.1245
14378TIP3    H264626   4.555   1.893   5.406 -0.1921  2.6143 -0.5267
14379TIP3   OH264627   1.302   0.379  13.462 -0.7580 -0.3734  0.4019
14379TIP3    H164628   1.369   0.335  13.411 -0.8140 -0.0684  0.0642
14379TIP3    H264629   1.299   0.330  13.544 -0.5570 -0.7662  0.1784
14380TIP3   OH264630   2.960   1.633  10.931  0.5386  0.0308 -0.3015
14380TIP3    H164631   3.055   1.618  10.937  0.8883  2.1774  0.2155
14380TIP3    H264632   2.948   1.724  10.957 -1.6360 -0.0401 -0.8551
14381TIP3   OH264633   1.413   5.203  15.933 -0.1913 -0.5157  0.0069
14381TIP3    H164634   1.463   5.147  15.993 -0.2307 -0.5481  0.0100
14381TIP3    H264635   1.466   5.283  15.926 -0.4056 -0.3282  0.4432
14382TIP3   OH264636   5.731   5.041  13.997 -0.4899  0.1452 -0.2884
14382TIP3    H164637   5.653   5.087  14.027  0.7058  2.3198 -0.3096
14382TIP3    H264638   5.777   5.105  13.944  0.9207 -1.3606 -0.9644
14383TIP3   OH264639   3.056   1.583   3.775 -0.5371 -0.9328  0.2564
14383TIP3    H164640   2.975   1.591   3.825  0.4938 -0.5418  1.9678
14383TIP3    H264641   3.055   1.657   3.714 -1.0220 -0.3756  0.9231
14384TIP3   OH264642   1.333   3.927  17.114  0.0775  0.3168 -0.0806
14384TIP3    H164643   1.312   4.019  17.099 -1.0098  0.2355  0.8412
14384TIP3    H264644   1.252   3.888  17.146  1.0735 -0.4736  1.6313
14385TIP3   OH264645   2.801   3.074   4.948  0.0567  0.3585 -0.8705
14385TIP3    H164646   2.821   3.020   5.024 -1.3867  0.7030 -0.2025
14385TIP3    H264647   2.857   3.041   4.878  1.5917  0.1851  0.3994
14386TIP3   OH264648   2.454   0.357   5.205 -0.0220  0.5345  0.0571
14386TIP3    H164649   2.424   0.312   5.126  0.6529 -0.9487  0.6150
14386TIP3    H264650   2.548   0.368   5.192  0.1636 -0.0579  0.7901
14387TIP3   OH264651   2.404   6.477  12.638  0.0044 -0.5396 -0.1563
14387TIP3    H164652   2.353   6.455  12.716  1.0431 -1.0441  0.4097
14387TIP3    H264653   2.343   6.524  12.581 -0.8929 -0.5564  0.7684
14388TIP3   OH264654   0.434   5.917  11.223 -0.1227  0.4618 -0.1915
14388TIP3    H164655   0.462   6.008  11.220 -0.7812  0.7069  0.6911
14388TIP3    H264656   0.481   5.875  11.151  0.4664  1.4144 -0.3795
14389TIP3   OH264657   0.293   1.216  17.117 -0.4488 -0.2186  0.2469
14389TIP3    H164658   0.263   1.125  17.120 -0.7659 -0.1958 -1.4809
14389TIP3    H264659   0.251   1.258  17.192 -2.5085 -0.8587 -0.4977
14390TIP3   OH264660   4.789   1.496   2.341 -0.2180  0.0555 -0.2474
14390TIP3    H164661   4.872   1.542   2.324  0.1266 -1.3056 -2.6496
14390TIP3    H264662   4.760   1.465   2.255 -2.6814 -0.4643  0.6908
14391TIP3   OH264663   4.404   3.823   3.448  0.0273  0.5231 -0.4457
14391TIP3    H164664   4.484   3.772   3.461  1.6589  1.9931 -3.5594
14391TIP3    H264665   4.385   3.814   3.354 -2.0179  2.2557 -0.2674
14392TIP3   OH264666   2.605   6.126  12.008  0.1318 -0.0444 -0.3337
14392TIP3    H164667   2.521   6.090  12.035  0.7240 -0.4641  1.0398
14392TIP3    H264668   2.669   6.078  12.061  1.2862 -0.1803 -1.8076
14393TIP3   OH264669   2.944   3.192  15.820 -0.7286  0.0103 -0.0734
14393TIP3    H164670   3.014   3.132  15.797 -1.2669 -0.2216 -1.2058
14393TIP3    H264671   2.901   3.152  15.896  1.0026  0.7102  1.3535
14394TIP3   OH264672   6.610   3.531   6.247  0.0759  0.2728 -0.5043
14394TIP3    H164673   6.652   3.492   6.324  0.2899  1.4964  0.0168
14394TIP3    H264674   6.675   3.594   6.214 -0.2867  0.2463 -1.2937
14395TIP3   OH264675   5.373   5.453  13.228  0.0284  0.5728  0.8298
14395TIP3    H164676   5.405   5.492  13.310 -0.2135  0.2858  1.0610
14395TIP3    H264677   5.280   5.477  13.225  0.1234  0.9034  0.4520
14396TIP3   OH264678   1.363   5.236  13.575 -0.1242 -0.2406 -0.5068
14396TIP3    H164679   1.380   5.142  13.576 -2.4967 -0.7732  1.7532
14396TIP3    H264680   1.368   5.261  13.483 -0.3204 -2.7691 -1.2750
14397TIP3   OH264681   0.824   4.631   2.298  0.5498  0.0577  0.1411
14397TIP3    H164682   0.916   4.654   2.311  0.7922  0.2943 -1.7494
14397TIP3    H264683   0.782   4.714   2.275 -0.5666  0.3275  2.8049
14398TIP3   OH264684   6.536   5.859   0.500 -0.1605 -0.0086 -0.2249
14398TIP3    H164685   6.601   5.923   0.470 -0.4874 -0.0614 -1.0650
14398TIP3    H264686   6.454   5.888   0.461 -0.6517  0.0365  0.8071
14399TIP3   OH264687   4.861   3.003   2.819  0.2851  0.2747 -0.1051
14399TIP3    H164688   4.875   2.930   2.880  0.3337  0.6129  0.2985
14399TIP3    H264689   4.824   2.963   2.741 -0.8206 -0.0249  0.5598
14400TIP3   OH264690   3.510   5.254   1.764 -0.7323 -0.4342 -0.4737
14400TIP3    H164691   3.576   5.190   1.736  0.3751  0.5050 -0.0555
14400TIP3    H264692   3.550   5.339   1.748 -2.5252  0.2211 -1.8726
14401TIP3   OH264693   1.479   0.140  16.050  0.3337 -0.0333 -0.6784
14401TIP3    H164694   1.516   0.195  15.981  0.3226  1.3316  0.3679
14401TIP3    H264695   1.389   0.124  16.022  0.2681  0.6745 -0.8894
14402TIP3   OH264696   3.996   0.842  13.942  0.1480 -0.7407 -0.6103
14402TIP3    H164697   4.016   0.863  13.851  0.3819 -0.0450 -0.4052
14402TIP3    H264698   3.978   0.927  13.983 -0.5794 -1.0993 -0.1532
14403TIP3   OH264699   0.036   1.368  12.976 -0.2936 -0.0338 -0.3193
14403TIP3    H164700  -0.035   1.324  13.022 -1.0543  2.3933  1.0320
14403TIP3    H264701   0.107   1.372  13.041 -0.7830  1.9665  0.1560
14404TIP3   OH264702   3.883   6.100   3.799 -0.2828 -0.1142  0.2095
14404TIP3    H164703   3.948   6.092   3.870  2.2894  0.3758 -1.9311
14404TIP3    H264704   3.878   6.194   3.782 -0.9035 -0.2260 -0.2293
14405TIP3   OH264705   4.858   2.616  16.414  0.0713 -0.3129  0.5156
14405TIP3    H164706   4.816   2.543  16.369 -1.5596  0.6156  0.4341
14405TIP3    H264707   4.804   2.631  16.492  1.5077 -0.4145  1.5643
14406TIP3   OH264708   5.636   1.085   6.078  0.3263  0.6777 -0.4354
14406TIP3    H164709   5.575   1.020   6.115 -1.7019  2.4240 -0.4756
14406TIP3    H264710   5.723   1.049   6.094 -0.5625 -0.4429  2.6803
14407TIP3   OH264711   5.658   2.701  12.748 -0.2201  0.4664  0.3442
14407TIP3    H164712   5.736   2.646  12.743 -1.9634 -2.1931  0.2593
14407TIP3    H264713   5.673   2.758  12.824  2.0616  0.5424 -0.1060
14408TIP3   OH264714   3.553   1.241  15.350 -0.0660 -0.7863 -0.3889
14408TIP3    H164715   3.488   1.301  15.312 -0.4530  0.8241  2.5097
14408TIP3    H264716   3.560   1.269  15.441  3.4068 -2.0927 -0.1166
14409TIP3   OH264717   2.748   4.189   3.368 -0.9267  0.1066 -0.1443
14409TIP3    H164718   2.723   4.254   3.434 -0.7974  1.1650 -1.1077
14409TIP3    H264719   2.831   4.221   3.334 -0.0496 -1.4417  0.4792
14410TIP3   OH264720   3.762   2.688  10.570  1.0126 -0.1065 -0.0522
14410TIP3    H164721   3.847   2.696  10.613  0.1480  2.4316  1.4038
14410TIP3    H264722   3.772   2.735  10.487  0.5189  2.1547  1.0929
14411TIP3   OH264723   6.502   1.071  16.638 -0.2808  0.4456  0.1266
14411TIP3    H164724   6.570   1.046  16.575  0.1757 -0.3746  0.9263
14411TIP3    H264725   6.519   1.017  16.715 -1.5776  0.5523  0.5126
14412TIP3   OH264726   0.309   1.546   6.393  0.3520 -0.2983 -0.1229
14412TIP3    H164727   0.377   1.539   6.326  0.1837  2.2465 -0.6593
14412TIP3    H264728   0.228   1.521   6.347  0.2237  1.5089 -0.9587
14413TIP3   OH264729   3.265   5.784  15.685  0.2892 -0.2730 -0.1136
14413TIP3    H164730   3.331   5.716  15.700 -0.3784 -0.8480  0.2970
14413TIP3    H264731   3.274   5.807  15.593  0.7456 -0.6903 -0.1731
14414TIP3   OH264732   1.623   0.965   4.182 -0.0207 -0.3271 -0.0965
14414TIP3    H164733   1.673   0.990   4.104  0.1151  0.7785  0.3229
14414TIP3    H264734   1.650   0.876   4.201  1.3846  0.0562 -0.2148
14415TIP3   OH264735   3.980   5.856  11.639 -0.4004  0.0723 -0.2531
14415TIP3    H164736   3.969   5.855  11.544 -0.6056  2.5223 -0.3173
14415TIP3    H264737   4.068   5.823  11.653  0.4802  1.7506 -1.4985
14416TIP3   OH264738   2.043   0.825  13.113 -0.1091  0.4395 -0.1404
14416TIP3    H164739   2.007   0.907  13.079  0.8634  0.6912 -0.5909
14416TIP3    H264740   2.105   0.853  13.181  0.8297  0.1311 -0.8540
14417TIP3   OH264741   5.122   5.623  14.544 -0.5480  0.3897  0.2630
14417TIP3    H164742   5.110   5.686  14.615 -2.2193 -0.3659  0.7116
14417TIP3    H264743   5.071   5.547  14.572 -0.8095 -0.1226 -1.5350
14418TIP3   OH264744   4.127   6.142  15.497  0.3977  0.4569  0.3261
14418TIP3    H164745   4.213   6.105  15.473  0.1873  1.4853 -2.3957
14418TIP3    H264746   4.071   6.121  15.423 -1.7148 -0.0317  1.9801
14419TIP3   OH264747   4.403   6.715   3.857  0.0574  0.7206  0.5998
14419TIP3    H164748   4.386   6.800   3.898 -1.9198 -0.1063  1.5983
14419TIP3    H264749   4.323   6.665   3.870  0.4663 -0.6662 -1.6464
14420TIP3   OH264750   6.316   5.535   1.915  0.4161 -0.3033  0.4833
14420TIP3    H164751   6.332   5.442   1.902  0.6014 -0.1104 -0.8057
14420TIP3    H264752   6.342   5.576   1.833 -4.0357  0.3711 -0.8892
14421TIP3   OH264753   2.653   0.459   6.062 -0.1581  0.0767 -0.1124
14421TIP3    H164754   2.722   0.516   6.028 -0.1213  0.6272  0.8369
14421TIP3    H264755   2.693   0.372   6.061  0.5499  0.3753  0.3407
14422TIP3   OH264756   2.835   3.542   5.914  0.8435 -0.1916  0.4713
14422TIP3    H164757   2.877   3.586   5.988  1.2643 -1.4088  0.9833
14422TIP3    H264758   2.744   3.569   5.918  1.4470  2.3552 -0.5306
14423TIP3   OH264759   3.782   5.773   5.393 -0.0615  0.1818 -0.1248
14423TIP3    H164760   3.784   5.697   5.450  0.8663 -0.3690 -0.8566
14423TIP3    H264761   3.780   5.848   5.453 -1.4920 -0.4046  0.6021
14424TIP3   OH264762   5.420   1.474  10.270 -0.4128 -0.0647 -0.2403
14424TIP3    H164763   5.508   1.440  10.253 -0.0599  0.5735  0.2349
14424TIP3    H264764   5.395   1.435  10.353 -0.1780  0.4832  0.0980
14425TIP3   OH264765   4.593   4.731   5.594  0.4739  0.2832  0.1611
14425TIP3    H164766   4.585   4.754   5.687 -1.5938 -1.4825  0.4965
14425TIP3    H264767   4.666   4.784   5.563  2.8099 -0.7556  3.3335
14426TIP3   OH264768   0.789   1.506   3.439 -0.1983 -0.5747 -0.0728
14426TIP3    H164769   0.751   1.467   3.360  0.4793 -0.6178 -0.3861
14426TIP3    H264770   0.736   1.471   3.510 -0.5671 -0.8550 -0.4743
14427TIP3   OH264771   1.226   4.608  16.784 -0.1107 -0.2096 -0.4100
14427TIP3    H164772   1.290   4.600  16.854 -0.6003 -1.0143 -0.0400
14427TIP3    H264773   1.172   4.683  16.810 -0.3975 -0.6125  0.1664
14428TIP3   OH264774   0.279   3.399  16.742 -0.4846  0.9359  0.3099
14428TIP3    H164775   0.308   3.307  16.744  1.0716  1.1024 -3.8310
14428TIP3    H264776   0.185   3.395  16.758 -0.3851 -1.3321  0.6959
14429TIP3   OH264777   1.796   4.614   3.948  0.0018  0.5716 -0.6168
14429TIP3    H164778   1.853   4.572   4.013 -0.1845  0.6484 -0.4004
14429TIP3    H264779   1.832   4.588   3.864 -1.0393 -1.3554 -0.5232
14430TIP3   OH264780   5.758   6.248   0.782 -0.4788  0.0072 -0.0334
14430TIP3    H164781   5.708   6.291   0.851 -1.2014 -1.0292  0.1081
14430TIP3    H264782   5.708   6.265   0.702 -0.7948 -0.6059  0.0312
14431TIP3   OH264783   5.473   3.589   5.980  0.7501  0.6487  0.3581
14431TIP3    H164784   5.553   3.537   5.969  0.1284 -0.5862  1.4604
14431TIP3    H264785   5.494   3.651   6.051  0.1982 -0.9150  1.9768
14432TIP3   OH264786   3.500   6.186  16.790  0.0066 -0.3751 -0.6575
14432TIP3    H164787   3.547   6.190  16.707 -0.7626 -0.8982 -1.1346
14432TIP3    H264788   3.413   6.152  16.767 -1.3326  2.4202 -0.1196
14433TIP3   OH264789   0.518   4.748   4.726 -0.0570 -0.2512 -0.0230
14433TIP3    H164790   0.504   4.808   4.652  0.9951  0.3380  0.2434
14433TIP3    H264791   0.599   4.702   4.705 -0.2697 -0.7954  0.3108
14434TIP3   OH264792   5.904   6.817   0.631  0.7552  0.5646 -0.2757
14434TIP3    H164793   5.844   6.742   0.632  1.5828 -0.1175  0.0561
14434TIP3    H264794   5.849   6.891   0.607 -0.5060  0.2356  1.4174
14435TIP3   OH264795   5.606   4.057   3.125 -0.0639  0.4232 -0.1541
14435TIP3    H164796   5.687   4.028   3.084 -0.7805 -1.7395 -0.1238
14435TIP3    H264797   5.618   4.039   3.218  0.3923  2.5562  0.2614
14436TIP3   OH264798   5.422   1.265   2.828 -0.1951  0.3088 -0.3315
14436TIP3    H164799   5.352   1.250   2.765 -0.2950  0.3866 -0.2400
14436TIP3    H264800   5.392   1.221   2.907 -0.5579  1.1024 -0.0150
14437TIP3   OH264801   1.809   2.612  13.205  0.0525 -0.4014  0.1037
14437TIP3    H164802   1.811   2.708  13.209  0.8003 -0.3473 -1.0120
14437TIP3    H264803   1.760   2.593  13.124  0.4511 -0.9433 -0.0172
14438TIP3   OH264804   4.331   3.003   3.316 -0.4667  0.4325 -0.8260
14438TIP3    H164805   4.409   3.009   3.261 -0.9257  2.6603 -1.3353
14438TIP3    H264806   4.334   3.081   3.371 -0.8371 -0.9493  1.2936
14439TIP3   OH264807   4.151   0.945   1.364 -0.0308  0.3588  0.2089
14439TIP3    H164808   4.154   0.965   1.458  0.7224 -0.9623  0.4896
14439TIP3    H264809   4.057   0.948   1.343 -0.3626 -0.7884  1.3637
14440TIP3   OH264810   2.089   6.668   1.266 -0.1927  0.0297 -0.5035
14440TIP3    H164811   2.022   6.679   1.333 -1.2649 -2.3604 -1.0806
14440TIP3    H264812   2.056   6.597   1.211  3.0582 -1.6666 -0.4983
14441TIP3   OH264813   1.078   1.894  11.819 -0.0827  0.5025 -0.2710
14441TIP3    H164814   1.115   1.948  11.889 -1.0303  0.7819  0.0308
14441TIP3    H264815   1.088   1.804  11.850  0.9413  0.5266 -0.4995
14442TIP3   OH264816   0.088   6.784   0.685  0.5404  0.0905 -0.1986
14442TIP3    H164817   0.015   6.775   0.624  1.2457  0.0305 -1.0545
14442TIP3    H264818   0.057   6.845   0.752  0.0334  0.7880 -1.0539
14443TIP3   OH264819   2.580   4.054  13.028 -0.5694 -0.1985 -0.0622
14443TIP3    H164820   2.533   3.990  13.082  1.3104 -1.5670  0.0658
14443TIP3    H264821   2.642   4.095  13.088 -1.3104  1.3224 -0.2960
14444TIP3   OH264822   5.091   2.206  15.051 -0.1892 -0.0322  0.2784
14444TIP3    H164823   5.134   2.274  15.103  1.3964  0.4443 -1.5249
14444TIP3    H264824   5.118   2.124  15.092  2.4441  0.2555 -0.6505
14445TIP3   OH264825   1.312   3.025   1.895 -0.0226 -0.1245 -0.1507
14445TIP3    H164826   1.307   2.942   1.944 -2.0308  0.6380  1.0885
14445TIP3    H264827   1.381   3.011   1.830  1.8762 -1.6771  2.0351
14446TIP3   OH264828   0.087   5.508  16.806 -0.7445 -0.1231  0.1928
14446TIP3    H164829   0.132   5.431  16.842 -1.1439 -0.1938  0.5545
14446TIP3    H264830   0.145   5.540  16.737 -1.3726 -1.7849 -1.1780
14447TIP3   OH264831   0.264   3.769  14.547 -0.9102  0.0497  0.1958
14447TIP3    H164832   0.188   3.767  14.488 -0.9007 -1.8428  0.1693
14447TIP3    H264833   0.322   3.834  14.508 -1.4192 -0.3051 -1.2409
14448TIP3   OH264834   0.189   4.277  15.302 -0.0371  0.6816  0.4502
14448TIP3    H164835   0.194   4.353  15.244  0.1488  1.0489  0.9405
14448TIP3    H264836   0.120   4.299  15.365 -2.2755 -0.8871 -1.2862
14449TIP3   OH264837   6.006   1.442  12.213 -0.1288 -0.4526  0.6933
14449TIP3    H164838   6.052   1.411  12.291 -3.2165 -2.9113  1.7287
14449TIP3    H264839   6.055   1.405  12.140  0.3903 -1.7916  1.6747
14450TIP3   OH264840   6.340   2.838  11.770  0.0304  0.0799  0.1066
14450TIP3    H164841   6.288   2.844  11.691 -0.4764 -1.5701  0.2871
14450TIP3    H264842   6.329   2.924  11.812 -2.0328  0.0076 -0.1717
14451TIP3   OH264843   4.032   2.951   3.335  0.0958 -0.3792 -0.2916
14451TIP3    H164844   4.118   2.976   3.301  0.4974 -2.1784 -0.6729
14451TIP3    H264845   4.051   2.904   3.416 -0.7293  1.6433  1.1760
14452TIP3   OH264846   6.716   6.521  15.419 -0.3214 -0.3850 -0.2295
14452TIP3    H164847   6.774   6.511  15.495  1.3865 -1.5988 -1.6151
14452TIP3    H264848   6.674   6.436  15.410 -0.3745 -0.3050 -0.7518
14453TIP3   OH264849   6.242   3.526   0.850  0.2132 -0.0973  0.3322
14453TIP3    H164850   6.251   3.613   0.888  0.7285 -0.1302  0.2870
14453TIP3    H264851   6.151   3.501   0.868 -0.4139  1.0787 -1.0107
14454TIP3   OH264852   4.914   3.232  16.575 -0.3902  0.1469  0.6647
14454TIP3    H164853   4.891   3.154  16.626  1.3604  0.9914  2.9098
14454TIP3    H264854   4.850   3.233  16.504 -0.4116 -3.4005  0.4276
14455TIP3   OH264855   3.831   0.000   6.297  0.2947  0.3740 -0.3325
14455TIP3    H164856   3.760   0.056   6.328 -0.6056 -0.4362 -0.9133
14455TIP3    H264857   3.789  -0.066   6.243  1.4371 -0.4155 -0.2964
14456TIP3   OH264858   0.733   4.063   3.247 -0.9254  0.0857  0.0692
14456TIP3    H164859   0.783   4.006   3.306 -1.4737  1.1431  1.6345
14456TIP3    H264860   0.794   4.087   3.178  0.0122 -0.5124  0.6766
14457TIP3   OH264861   5.096   0.456   5.308  0.3163  0.1330  0.6804
14457TIP3    H164862   5.086   0.550   5.297 -1.3888  0.1173  1.6639
14457TIP3    H264863   5.006   0.424   5.317  0.7855 -1.7581 -0.8663
14458TIP3   OH264864   6.509   5.567  15.580 -0.0248 -0.0815  0.0109
14458TIP3    H164865   6.506   5.579  15.675  0.9146 -1.9238  0.3173
14458TIP3    H264866   6.574   5.630  15.550 -0.2765  0.4682  0.5713
14459TIP3   OH264867   6.709   5.656  14.957 -0.0481 -0.3119  0.1122
14459TIP3    H164868   6.706   5.594  15.029  0.1258 -0.6614 -0.1754
14459TIP3    H264869   6.657   5.731  14.987  1.4370  0.3020  1.2846
14460TIP3   OH264870   3.519   5.335   2.254  0.2505 -1.0150 -0.0803
14460TIP3    H164871   3.506   5.249   2.296 -0.2908 -0.4834  0.8663
14460TIP3    H264872   3.431   5.364   2.232  0.2924 -0.0263  0.9949
14461TIP3   OH264873   5.913   3.044  15.880 -0.0506  0.2392  0.5971
14461TIP3    H164874   5.912   3.037  15.976 -0.5817 -0.6097  0.5425
14461TIP3    H264875   5.831   3.001  15.853 -0.4195  1.3943 -0.1785
14462TIP3   OH264876   3.949   2.122  10.602  0.2734 -0.3727 -0.1266
14462TIP3    H164877   3.975   2.034  10.629  2.7387  0.3456  0.0521
14462TIP3    H264878   3.890   2.152  10.672 -0.4957 -1.7990 -0.1296
14463TIP3   OH264879   3.103   4.833  13.107  0.7646 -0.2286 -0.3048
14463TIP3    H164880   3.047   4.830  13.185 -0.3715 -1.4797 -1.1322
14463TIP3    H264881   3.056   4.889  13.045  1.7733  0.9480 -0.0596
14464TIP3   OH264882   1.068   6.732   0.472 -0.1351 -0.1091  0.0070
14464TIP3    H164883   0.999   6.765   0.530 -0.2526 -0.2995 -0.0218
14464TIP3    H264884   1.020   6.692   0.399 -0.0387 -1.8064  0.8263
14465TIP3   OH264885   3.826   5.286   4.865 -0.0535 -0.1299  0.6158
14465TIP3    H164886   3.876   5.228   4.807  1.5515  2.0545 -0.3172
14465TIP3    H264887   3.807   5.363   4.812 -1.1948  0.6805  2.1256
14466TIP3   OH264888   1.753   0.986  13.758  0.6877 -0.2266  0.6397
14466TIP3    H164889   1.742   0.891  13.763 -0.3531 -0.2382 -0.9389
14466TIP3    H264890   1.668   1.022  13.785  0.7891  0.2125  0.3971
14467TIP3   OH264891   3.283   0.494  11.745 -1.6429 -0.4936  0.4814
14467TIP3    H164892   3.310   0.420  11.690 -0.4303  1.1386 -1.2237
14467TIP3    H264893   3.196   0.517  11.712 -1.7505 -0.7532  0.5796
14468TIP3   OH264894   3.480   0.841   2.429  0.6022  0.1971  0.1240
14468TIP3    H164895   3.476   0.790   2.510 -0.8172  2.5370  1.6636
14468TIP3    H264896   3.554   0.900   2.441  0.2009  0.7602 -0.1233
14469TIP3   OH264897   0.781   5.534  16.694 -0.5813 -0.5605 -0.0989
14469TIP3    H164898   0.787   5.625  16.665  1.2497 -0.0967  1.4891
14469TIP3    H264899   0.728   5.537  16.774  1.3532 -0.4575  1.2578
14470TIP3   OH264900   3.450   0.865  14.078 -0.6283  0.0347  0.6638
14470TIP3    H164901   3.526   0.923  14.070 -1.1701  0.7662  0.7219
14470TIP3    H264902   3.473   0.788  14.026 -0.8938  1.3750 -1.5781
14471TIP3   OH264903   2.285   2.322  11.329  0.1180 -0.5944  0.0009
14471TIP3    H164904   2.295   2.359  11.241  0.6682  0.5589  0.5284
14471TIP3    H264905   2.193   2.334  11.349  0.3695  1.0166  0.3554
14472TIP3   OH264906   0.345   1.714  16.750  0.7591 -0.3841  0.2083
14472TIP3    H164907   0.379   1.639  16.799  1.0547  0.3621  1.1680
14472TIP3    H264908   0.286   1.758  16.811 -0.4702 -0.5866 -0.7978
14473TIP3   OH264909   3.793   1.784   2.748  0.3009  0.1993  0.3198
14473TIP3    H164910   3.806   1.689   2.749  0.0475  0.1526  1.9287
14473TIP3    H264911   3.712   1.798   2.700  0.3065 -0.4060  0.1372
14474TIP3   OH264912   4.602   5.698   4.517  0.1968  0.6161  0.3357
14474TIP3    H164913   4.612   5.785   4.555 -0.3152  1.0712 -0.5292
14474TIP3    H264914   4.575   5.714   4.426  0.7334 -0.4352 -0.0353
14475TIP3   OH264915   4.862   2.643   5.167 -0.5633 -0.4752 -0.5969
14475TIP3    H164916   4.819   2.557   5.162 -0.3780 -0.8132  2.0447
14475TIP3    H264917   4.794   2.701   5.202  0.3117 -0.4293  1.1274
14476TIP3   OH264918   1.526   3.767  12.544  0.6511  0.2337  0.0836
14476TIP3    H164919   1.501   3.699  12.605 -0.3467  1.7839  1.4900
14476TIP3    H264920   1.520   3.725  12.458  0.6465 -1.5778  0.9195
14477TIP3   OH264921   3.692   2.231  11.810 -0.0057 -0.0895 -0.4505
14477TIP3    H164922   3.754   2.203  11.877 -0.5787 -1.4159 -0.4577
14477TIP3    H264923   3.739   2.219  11.727  0.4460  0.8737 -0.3490
14478TIP3   OH264924   0.618   5.455   2.429 -0.1103  0.0619 -0.1045
14478TIP3    H164925   0.535   5.501   2.434 -1.1039 -1.7809  3.8264
14478TIP3    H264926   0.679   5.510   2.479 -0.5476 -1.2407  1.9907
14479TIP3   OH264927   2.854   0.465   2.980  0.3617  0.1452  0.7132
14479TIP3    H164928   2.908   0.499   3.051  1.9473  0.1578 -0.4335
14479TIP3    H264929   2.907   0.395   2.941 -1.2569 -1.1400  0.6866
14480TIP3   OH264930   6.190   2.029   4.708  0.2953 -0.2485  0.1427
14480TIP3    H164931   6.161   1.962   4.646 -0.8232  0.4671 -0.1438
14480TIP3    H264932   6.211   2.105   4.653  1.1257 -0.2171  0.4977
14481TIP3   OH264933   4.862   1.626  13.561  0.0475  0.0459  0.3515
14481TIP3    H164934   4.829   1.592  13.478  0.3186  0.9133 -0.1254
14481TIP3    H264935   4.808   1.583  13.628 -0.3813 -0.4238 -0.2837
14482TIP3   OH264936   1.914   4.308  16.654 -0.0800 -0.3806  0.3809
14482TIP3    H164937   1.961   4.224  16.658  1.1741  0.3126  0.4065
14482TIP3    H264938   1.974   4.368  16.612 -0.9373  0.5535  0.4546
14483TIP3   OH264939   2.528   4.083  11.294  0.0472 -0.1924 -0.4172
14483TIP3    H164940   2.585   4.151  11.331  1.4082 -2.2057  1.4302
14483TIP3    H264941   2.525   4.015  11.361 -3.7087 -0.7256 -0.9046
14484TIP3   OH264942   3.019   1.776   6.389 -0.9925  0.0192 -0.0509
14484TIP3    H164943   2.994   1.738   6.473 -0.3764  1.1944  0.6937
14484TIP3    H264944   3.089   1.719   6.357 -1.3373 -0.5251  0.1551
14485TIP3   OH264945   0.798   1.687   0.818 -0.4726  0.8684 -0.1793
14485TIP3    H164946   0.864   1.756   0.826  0.7532 -0.3119  0.3485
14485TIP3    H264947   0.714   1.733   0.817  0.2435  2.2936  1.3004
14486TIP3   OH264948   4.073   1.643  14.108 -0.9314  0.1309 -0.2089
14486TIP3    H164949   4.152   1.696  14.116 -0.5592 -0.4014 -0.2656
14486TIP3    H264950   4.073   1.588  14.186 -0.9516 -0.2547 -0.4794
14487TIP3   OH264951   3.626   3.485  11.304 -0.0057  0.0184 -0.5635
14487TIP3    H164952   3.557   3.524  11.251 -1.1592 -1.2581 -0.0800
14487TIP3    H264953   3.614   3.523  11.391  0.0842  0.0215 -0.5522
14488TIP3   OH264954   3.880   5.048   4.709  0.0918  0.6576 -0.3898
14488TIP3    H164955   3.862   4.970   4.656  1.2352  1.4835 -2.1083
14488TIP3    H264956   3.915   5.014   4.791 -0.6782 -0.6527 -0.5722
14489TIP3   OH264957   2.228   2.073   1.225 -0.0920  0.6397  0.0709
14489TIP3    H164958   2.220   2.168   1.217  0.1930  0.6792  0.2516
14489TIP3    H264959   2.301   2.060   1.285 -0.6463  0.3159  0.6796
14490TIP3   OH264960   4.240   5.436  15.724  0.0519 -0.1626  0.2111
14490TIP3    H164961   4.214   5.528  15.718 -1.8429 -0.7065 -0.5971
14490TIP3    H264962   4.198   5.404  15.803 -1.3146 -0.8942 -0.7711
14491TIP3   OH264963   6.148   2.569  14.848 -0.1262 -0.0303  0.1945
14491TIP3    H164964   6.181   2.480  14.831  0.2822  0.3597 -1.1765
14491TIP3    H264965   6.054   2.563  14.829  0.3395  0.4490 -2.8278
14492TIP3   OH264966   3.424   5.284   4.083 -0.2111 -0.1511 -0.0389
14492TIP3    H164967   3.479   5.235   4.022 -0.7265 -0.6776 -0.0878
14492TIP3    H264968   3.466   5.272   4.168 -0.2692 -0.5698 -0.0714
14493TIP3   OH264969   0.472   5.415  16.717  0.0899 -0.2220  0.1508
14493TIP3    H164970   0.549   5.363  16.740  0.0666  0.1098  1.0230
14493TIP3    H264971   0.489   5.445  16.628  2.2664  2.0934  1.2102
14494TIP3   OH264972   6.463   1.906   1.326 -0.3415 -0.8907  0.2698
14494TIP3    H164973   6.391   1.843   1.333 -0.1899 -0.9339  1.6627
14494TIP3    H264974   6.437   1.978   1.383  0.3406 -0.5317  0.1380
14495TIP3   OH264975   5.248   1.619  15.311  0.1339 -0.3307  0.0813
14495TIP3    H164976   5.276   1.620  15.403  0.9480 -0.4608 -0.1581
14495TIP3    H264977   5.170   1.674  15.309  0.4361  0.1300  0.7491
14496TIP3   OH264978   3.605   0.716  16.751  0.4020  0.5093  0.8630
14496TIP3    H164979   3.668   0.645  16.742 -1.0980 -0.9550  1.5101
14496TIP3    H264980   3.520   0.673  16.756 -0.8793  2.5171 -1.7260
14497TIP3   OH264981   1.455   0.666  14.143 -0.3257 -0.3284 -0.6279
14497TIP3    H164982   1.407   0.744  14.115 -1.9273 -0.7878  0.6634
14497TIP3    H264983   1.515   0.696  14.210 -0.2829 -0.0704 -0.7824
14498TIP3   OH264984   5.914   3.902  15.315 -0.2923 -0.2845 -0.1447
14498TIP3    H164985   5.973   3.977  15.321  0.4288 -0.9325  1.3943
14498TIP3    H264986   5.868   3.915  15.232 -0.1461  1.8065  0.0379
14499TIP3   OH264987   1.131   6.499   0.766  0.3236  0.7308  0.2439
14499TIP3    H164988   1.044   6.465   0.745  0.8807  1.2413 -3.5090
14499TIP3    H264989   1.177   6.424   0.806 -0.1888 -1.3753 -2.7702
14500TIP3   OH264990   6.025   5.673  12.520 -0.0858 -0.2240  0.4404
14500TIP3    H164991   5.931   5.684  12.536 -0.2287 -1.8171  0.8973
14500TIP3    H264992   6.067   5.705  12.600 -0.4555 -2.3967  1.5850
14501TIP3   OH264993   5.447   0.759   3.806  0.3030 -0.3658  0.0506
14501TIP3    H164994   5.449   0.853   3.823  3.3629 -0.4771  0.8495
14501TIP3    H264995   5.466   0.719   3.891  1.4282 -1.5646 -0.7212
14502TIP3   OH264996   4.846   3.054   1.699 -0.0814 -0.0024 -0.1677
14502TIP3    H164997   4.815   2.985   1.641 -1.6367  1.1312 -0.7365
14502TIP3    H264998   4.924   3.089   1.656  0.2517 -0.8453 -0.2681
14503TIP3   OH264999   6.024   4.940   3.629 -0.2419 -0.2618  0.4003
14503TIP3    H165000   5.988   4.882   3.696 -2.6461  0.3015 -0.3167
14503TIP3    H265001   6.053   4.881   3.560 -1.0494 -0.7061  0.4287
14504TIP3   OH265002   5.674   2.620   5.731 -0.1228  0.2627 -1.1353
14504TIP3    H165003   5.767   2.633   5.712 -0.0867  1.1322 -0.4387
14504TIP3    H265004   5.663   2.656   5.818 -0.7339 -1.6046 -0.3881
14505TIP3   OH265005   0.003   3.407  14.360  0.2289  0.4044  0.1257
14505TIP3    H165006  -0.017   3.328  14.411  0.6949  0.1222 -0.1246
14505TIP3    H265007  -0.062   3.408  14.290  0.4109  0.0706 -0.0524
14506TIP3   OH265008   5.513   4.904   1.002  0.1511  0.1613  0.4805
14506TIP3    H165009   5.540   4.820   0.966  1.7817  0.2562  1.4009
14506TIP3    H265010   5.433   4.885   1.050 -0.9281 -0.3442 -1.4199
14507TIP3   OH265011   0.075   5.420   0.011  0.2361  0.0765 -1.0922
14507TIP3    H165012   0.144   5.385  -0.046  0.3128 -0.5470 -0.6256
14507TIP3    H265013   0.092   5.379   0.096  0.4004  1.3467 -0.4904
14508TIP3   OH265014   3.207   6.262  14.767 -0.3431  0.0212 -0.1636
14508TIP3    H165015   3.288   6.211  14.757  0.0639  0.9189 -1.8232
14508TIP3    H265016   3.176   6.275  14.677 -0.6796  2.2854  0.2242
14509TIP3   OH265017   4.235   0.655   5.259 -0.0446  0.4247 -0.0134
14509TIP3    H165018   4.183   0.735   5.256 -0.8903 -0.1028  0.2448
14509TIP3    H265019   4.233   0.622   5.169  0.3969  0.7442 -0.1438
14510TIP3   OH265020   3.011   1.464   5.837  0.0464  0.4974  0.4511
14510TIP3    H165021   3.039   1.386   5.788  0.2695  0.2838  0.9188
14510TIP3    H265022   2.924   1.484   5.801  0.4457  0.6842 -0.4382
14511TIP3   OH265023   1.620   0.482   3.434  0.6695  0.2615  0.1890
14511TIP3    H165024   1.713   0.503   3.430  0.8004 -0.0033  1.4429
14511TIP3    H265025   1.584   0.543   3.498 -0.4364  1.6822 -1.6736
14512TIP3   OH265026   2.747   2.073  12.160 -0.0781 -0.1516 -0.2995
14512TIP3    H165027   2.802   1.996  12.145  0.7215 -0.2160  2.5424
14512TIP3    H265028   2.659   2.038  12.173  0.4464 -0.7822  1.9752
14513TIP3   OH265029   2.438   1.626  12.803  0.2449  0.0306 -0.0995
14513TIP3    H165030   2.372   1.683  12.765 -0.5293  0.1088  1.2975
14513TIP3    H265031   2.467   1.571  12.731 -0.8410  0.4650 -0.8895
14514TIP3   OH265032   3.685   1.652  11.190  0.3006 -0.6675  0.0733
14514TIP3    H165033   3.663   1.741  11.218  0.0603 -0.4754 -0.6948
14514TIP3    H265034   3.652   1.646  11.100  2.4134 -0.7185 -0.7629
14515TIP3   OH265035   3.954   3.623   6.293  0.5585 -0.1531 -0.3474
14515TIP3    H165036   3.963   3.719   6.286 -1.4151 -0.0002 -1.7286
14515TIP3    H265037   4.044   3.591   6.301  1.2936  1.7848 -0.2701
14516TIP3   OH265038   3.131   1.498   4.099  0.1405 -0.3287  0.1098
14516TIP3    H165039   3.211   1.469   4.054  0.6893 -0.7762  1.3197
14516TIP3    H265040   3.113   1.585   4.063  1.1957 -0.2086 -0.1653
14517TIP3   OH265041   4.291   6.070  11.323  0.1370 -0.1290 -0.4759
14517TIP3    H165042   4.369   6.054  11.270  0.2396  0.2112 -0.4315
14517TIP3    H265043   4.308   6.025  11.406 -0.9379 -2.5507 -1.4683
14518TIP3   OH265044   6.331   3.177   6.272 -0.5240 -0.2404  0.3488
14518TIP3    H165045   6.337   3.224   6.355 -0.0742  0.1228  0.1116
14518TIP3    H265046   6.322   3.085   6.298 -0.2939 -0.1413  0.8005
14519TIP3   OH265047   1.158   0.818   1.199 -0.0852 -0.1858  0.0223
14519TIP3    H165048   1.077   0.787   1.241  0.1260 -1.1362 -0.2692
14519TIP3    H265049   1.199   0.739   1.164 -0.2593  0.5681 -2.0204
14520TIP3   OH265050   2.620   0.172  11.329 -0.3961  0.1350 -0.2086
14520TIP3    H165051   2.696   0.148  11.277  0.7257  0.4501  1.2124
14520TIP3    H265052   2.546   0.135  11.282  0.7893 -1.6988 -0.7243
14521TIP3   OH265053   2.741   0.829   0.267 -0.3461 -0.4501  0.0965
14521TIP3    H165054   2.737   0.773   0.346 -3.6522  0.5489  0.8157
14521TIP3    H265055   2.670   0.892   0.279  1.0278  1.7577 -2.3101
14522TIP3   OH265056   5.060   5.534  13.918 -0.2429 -0.0763  0.4181
14522TIP3    H165057   5.114   5.608  13.892  0.7611 -0.6850  0.7157
14522TIP3    H265058   5.052   5.542  14.013  0.8154 -0.9358  0.6081
14523TIP3   OH265059   4.196   2.160  16.090  0.2472  0.1521  0.0838
14523TIP3    H165060   4.141   2.188  16.016  0.6475  1.3938  0.2350
14523TIP3    H265061   4.136   2.159  16.165 -0.3284 -1.7927 -0.3417
14524TIP3   OH265062   2.119   6.316   1.740 -0.4003  0.2315 -0.0630
14524TIP3    H165063   2.204   6.360   1.727 -0.7668  0.7389 -0.8194
14524TIP3    H265064   2.055   6.388   1.739 -0.8925 -0.2027 -0.0287
14525TIP3   OH265065   5.847   5.327  16.268 -0.3916  0.1251  0.4854
14525TIP3    H165066   5.924   5.363  16.224 -0.4741  2.2047  1.9132
14525TIP3    H265067   5.789   5.301  16.197  0.5160  1.0002 -0.6243
14526TIP3   OH265068   3.423   4.204  11.384 -0.2138 -0.1729 -0.6212
14526TIP3    H165069   3.443   4.152  11.306 -1.4350 -1.2397 -0.2702
14526TIP3    H265070   3.338   4.245  11.363 -1.0468 -1.2621  0.4882
14527TIP3   OH265071   5.628   4.623   3.343 -0.1762 -0.0560 -0.3424
14527TIP3    H165072   5.614   4.528   3.344  2.9629 -0.6405  1.7584
14527TIP3    H265073   5.547   4.659   3.377 -0.8884 -2.1047  0.3139
14528TIP3   OH265074   4.436   4.852   0.769  1.0060  0.0088  0.3841
14528TIP3    H165075   4.478   4.874   0.852  0.2701  1.9003  0.2851
14528TIP3    H265076   4.452   4.927   0.712  0.8187 -0.9114 -0.9432
14529TIP3   OH265077   5.692   2.636  12.467 -0.2515  0.3147 -0.0372
14529TIP3    H165078   5.621   2.571  12.468 -0.7711  0.8820  0.3706
14529TIP3    H265079   5.665   2.702  12.530  0.0973  1.1130 -0.7094
14530TIP3   OH265080   1.209   1.524  14.196  0.6617  0.6164 -0.0166
14530TIP3    H165081   1.210   1.614  14.164  0.9177  0.0278 -1.7706
14530TIP3    H265082   1.133   1.484  14.154 -0.4320  0.3974  2.0110
14531TIP3   OH265083   4.753   5.668   1.193 -0.1063  0.4939 -0.3695
14531TIP3    H165084   4.740   5.579   1.160 -1.9752  0.7082 -0.3177
14531TIP3    H265085   4.688   5.677   1.262 -0.4127  2.1271 -0.8409
14532TIP3   OH265086   2.335   1.161   0.296  0.1207  0.5735 -0.1385
14532TIP3    H165087   2.396   1.121   0.234  0.9064  1.6208 -0.0758
14532TIP3    H265088   2.288   1.226   0.245 -1.8586 -1.0354 -0.4802
14533TIP3   OH265089   2.594   5.001  11.829 -0.6061 -0.4973  0.4664
14533TIP3    H165090   2.579   5.018  11.922 -0.2114  2.7840  0.0616
14533TIP3    H265091   2.523   5.047  11.784  1.0514  0.9023 -0.9042
14534TIP3   OH265092   0.675   3.443   3.830 -0.3560  0.0548  0.0209
14534TIP3    H165093   0.609   3.474   3.892 -0.0963 -0.4274  0.5422
14534TIP3    H265094   0.743   3.511   3.833 -1.0270  0.7846 -0.8606
14535TIP3   OH265095   2.200   3.628   4.114 -0.1458  0.3504  0.0003
14535TIP3    H165096   2.177   3.536   4.126  2.0918 -0.4263 -1.0768
14535TIP3    H265097   2.248   3.650   4.194 -1.7158  0.9888  0.8012
14536TIP3   OH265098   3.274   1.354  13.727  0.8370  0.1181  0.4117
14536TIP3    H165099   3.186   1.336  13.758 -0.0724  2.3656 -0.7029
14536TIP3    H265100   3.310   1.267  13.707 -1.9117 -0.7678 -1.2126
14537TIP3   OH265101   0.303   2.606   1.689  0.6618  0.5029  0.0124
14537TIP3    H165102   0.351   2.638   1.766  1.3145 -0.9685  0.2559
14537TIP3    H265103   0.369   2.558   1.638 -0.2303 -0.3347 -0.3760
14538TIP3   OH265104   5.024   2.795  16.719 -0.2156  0.6584  0.8099
14538TIP3    H165105   5.102   2.830  16.677 -1.4035  0.6935 -1.5311
14538TIP3    H265106   5.024   2.702  16.698  0.1446  0.2456  2.4596
14539TIP3   OH265107   4.709   4.474   1.937  0.0440  0.1289 -0.1831
14539TIP3    H165108   4.658   4.460   2.017  0.1302  0.9811  0.0298
14539TIP3    H265109   4.670   4.552   1.897  2.0845  1.7249  0.7484
14540TIP3   OH265110   2.148   2.419   0.912  0.5756  0.3923  0.0444
14540TIP3    H165111   2.113   2.331   0.899  0.2352  0.8287 -2.4803
14540TIP3    H265112   2.219   2.407   0.975 -0.9556 -1.2722  1.5858
14541TIP3   OH265113   1.141   0.246   0.193 -0.2072 -0.0538 -0.3846
14541TIP3    H165114   1.118   0.320   0.249  1.1609  0.7533 -0.8324
14541TIP3    H265115   1.196   0.191   0.247 -2.4889 -1.6403  0.4714
14542TIP3   OH265116   4.854   3.527  12.400 -0.5890 -0.4451  0.1984
14542TIP3    H165117   4.789   3.588  12.363 -1.3407 -1.9534 -1.1023
14542TIP3    H265118   4.936   3.551  12.357 -0.7521  0.0401  0.1531
14543TIP3   OH265119   4.171   0.424  11.723 -0.4382  0.3372 -0.2682
14543TIP3    H165120   4.236   0.354  11.729 -0.1817  0.5599 -0.4506
14543TIP3    H265121   4.088   0.381  11.746 -0.3623 -0.1417 -0.8644
14544TIP3   OH265122   6.200   1.739  12.082  0.1713 -0.3496  0.2621
14544TIP3    H165123   6.123   1.690  12.052 -0.3806 -0.7123  2.1345
14544TIP3    H265124   6.270   1.673  12.086 -0.0961 -0.5953  1.0149
14545TIP3   OH265125   5.177   0.829   4.715  0.2669 -0.0899 -0.1281
14545TIP3    H165126   5.221   0.863   4.793 -1.7324 -0.8094  1.3809
14545TIP3    H265127   5.178   0.734   4.726  0.8910 -0.2826 -1.5553
14546TIP3   OH265128   0.017   0.693   0.032 -0.3288 -0.0115  0.2727
14546TIP3    H165129  -0.047   0.625   0.056 -2.9635  2.7036  1.5875
14546TIP3    H265130   0.079   0.694   0.105  1.1756 -2.3888 -0.8197
14547TIP3   OH265131   4.801   2.367  15.604  0.3350 -0.0117  0.3855
14547TIP3    H165132   4.851   2.361  15.522  0.3479  0.7314  0.3324
14547TIP3    H265133   4.834   2.295  15.657 -1.8766 -2.5732 -1.4253
14548TIP3   OH265134   6.345   5.097   5.141  0.0329 -0.4797  0.1062
14548TIP3    H165135   6.398   5.102   5.220 -0.6079 -0.2319  0.5295
14548TIP3    H265136   6.364   5.179   5.094  0.6079 -0.7427 -0.1332
14549TIP3   OH265137   0.220   1.658  13.471 -0.0421  0.0823 -0.1344
14549TIP3    H165138   0.138   1.651  13.422 -0.8417 -1.2374  1.2982
14549TIP3    H265139   0.236   1.752  13.477 -1.8939  0.4145  0.2440
14550TIP3   OH265140   4.200   1.841   3.687 -0.0955 -0.2181  0.4118
14550TIP3    H165141   4.273   1.897   3.714  0.3810 -1.3866  1.6846
14550TIP3    H265142   4.242   1.757   3.666 -0.9339 -0.4968 -0.1576
14551TIP3   OH265143   5.059   4.856   1.763 -0.8144  0.1748 -0.0637
14551TIP3    H165144   5.083   4.894   1.678 -0.0346  0.0969  0.1139
14551TIP3    H265145   5.091   4.766   1.759 -0.7063  0.1914  0.3376
14552TIP3   OH265146   1.275   4.972  13.832 -0.1473  0.6766  0.1842
14552TIP3    H165147   1.208   4.983  13.765 -0.2025  1.2142  0.3245
14552TIP3    H265148   1.331   5.049  13.823  1.6218 -0.6862 -1.2398
14553TIP3   OH265149   0.714   5.347   1.099  0.2327 -0.1448 -1.1639
14553TIP3    H165150   0.806   5.339   1.126  0.6845 -1.4129 -2.9010
14553TIP3    H265151   0.683   5.426   1.143  1.6586 -0.5985  0.7886
14554TIP3   OH265152   5.444   5.850   4.199  0.1730 -0.1219  0.1286
14554TIP3    H165153   5.367   5.827   4.252  0.1546 -0.5325 -0.0759
14554TIP3    H265154   5.481   5.927   4.243 -2.4680  2.5193 -1.8044
14555TIP3   OH265155   1.077   0.119   3.973 -0.1654 -0.7589  0.5315
14555TIP3    H165156   1.062   0.191   3.911 -1.8558 -1.8270 -0.3762
14555TIP3    H265157   1.092   0.163   4.057  1.6283  0.7066 -0.4695
14556TIP3   OH265158   1.576   0.468   4.822  0.4742 -0.4750 -0.4392
14556TIP3    H165159   1.573   0.460   4.918 -2.0080 -1.1276 -0.5079
14556TIP3    H265160   1.551   0.559   4.805  1.3648 -0.2287 -0.4763
14557TIP3   OH265161   3.973   3.024  16.425  0.2710  0.0010  0.8176
14557TIP3    H165162   3.884   3.045  16.451  0.2016  0.3451  0.3015
14557TIP3    H265163   3.971   2.930  16.406 -0.3111  0.2644 -0.5065
14558TIP3   OH265164   5.625   3.816  16.644 -0.1547  0.0676  0.0300
14558TIP3    H165165   5.629   3.727  16.679  2.6056  0.7704  1.8837
14558TIP3    H265166   5.663   3.809  16.557 -1.4449 -0.7755 -0.4912
14559TIP3   OH265167   1.589   1.295  15.528  0.0843 -0.3760 -0.0138
14559TIP3    H165168   1.645   1.357  15.480  0.2454 -1.2154 -0.9510
14559TIP3    H265169   1.614   1.209  15.493 -0.0506 -0.9850  1.3434
14560TIP3   OH265170   5.531   0.750   0.535 -0.3551  0.0118 -0.4512
14560TIP3    H165171   5.520   0.784   0.446 -0.9210  1.1705  0.0490
14560TIP3    H265172   5.508   0.658   0.528 -0.4209  0.0945 -1.4990
14561TIP3   OH265173   3.364   3.036  10.751 -0.3037 -0.4318  0.5880
14561TIP3    H165174   3.357   3.087  10.671  1.5326 -1.8564 -0.5493
14561TIP3    H265175   3.303   2.963  10.739  0.7733 -1.2518 -0.0336
14562TIP3   OH265176   1.631   5.128  12.314  0.1550  0.0639  0.3137
14562TIP3    H165177   1.621   5.217  12.281  0.9072 -0.0146 -0.1659
14562TIP3    H265178   1.719   5.102  12.285 -0.1852 -0.9542  0.1626
14563TIP3   OH265179   0.727   5.025  12.094  0.0776  0.3448 -0.2470
14563TIP3    H165180   0.750   5.017  12.002 -0.7170  0.4749 -0.4669
14563TIP3    H265181   0.763   4.946  12.135  1.2784  0.7576 -0.4774
14564TIP3   OH265182   2.515   3.240  16.256  0.1922  0.1710  0.2683
14564TIP3    H165183   2.539   3.274  16.169  0.4267 -0.2665  0.1598
14564TIP3    H265184   2.587   3.182  16.279 -1.0936 -1.7510 -0.3659
14565TIP3   OH265185   1.634   0.238  11.109  0.1918 -0.2127 -0.3326
14565TIP3    H165186   1.696   0.286  11.163  0.1893 -0.0505 -0.4733
14565TIP3    H265187   1.607   0.301  11.042 -1.9462  0.5528  1.1090
14566TIP3   OH265188   3.027   3.630  11.305 -0.8207 -0.1007 -0.1760
14566TIP3    H165189   3.111   3.666  11.276 -1.6560  1.1659 -1.1508
14566TIP3    H265190   3.030   3.637  11.400 -0.0754  0.5392 -0.2316
14567TIP3   OH265191   5.673   4.758   4.353 -0.4056 -0.1198 -0.2354
14567TIP3    H165192   5.627   4.747   4.436  2.1796  0.6402  1.4290
14567TIP3    H265193   5.694   4.669   4.324  0.2196 -0.3458  0.8833
14568TIP3   OH265194   6.212   3.471  13.778  1.3281 -0.4278 -0.0110
14568TIP3    H165195   6.280   3.535  13.757  0.2005  0.5675 -0.8224
14568TIP3    H265196   6.131   3.512  13.746  0.4215 -1.7897  0.4671
14569TIP3   OH265197   2.187   5.348   5.823 -0.5930  0.1548 -0.2261
14569TIP3    H165198   2.249   5.382   5.757 -0.8215  0.1829 -0.4264
14569TIP3    H265199   2.129   5.291   5.773 -1.8158  1.4769 -0.3682
14570TIP3   OH265200   6.535   6.735  10.923 -0.0087 -0.2437  0.4375
14570TIP3    H165201   6.532   6.820  10.967 -1.2899  0.2187 -0.4946
14570TIP3    H265202   6.627   6.708  10.930  0.0885  0.4131  2.2169
14571TIP3   OH265203   2.775   5.077   1.523  0.2380 -0.2910  0.3263
14571TIP3    H165204   2.772   5.046   1.432  1.3899  0.1577  0.1182
14571TIP3    H265205   2.689   5.055   1.558 -0.7894  0.8948 -1.3094
14572TIP3   OH265206   1.705   3.783   3.203  0.6827  0.0828 -0.5432
14572TIP3    H165207   1.640   3.756   3.268  1.7449 -0.0585  0.4945
14572TIP3    H265208   1.658   3.781   3.120 -0.6342 -0.0114  0.1778
14573TIP3   OH265209   0.433   6.802  13.755  0.1577  0.1502 -0.2495
14573TIP3    H165210   0.485   6.728  13.723  0.7901  0.3729  0.2460
14573TIP3    H265211   0.355   6.762  13.793  0.1100 -0.2093 -0.7244
14574TIP3   OH265212   3.825   0.538  12.067 -0.2065  0.8959 -0.4049
14574TIP3    H165213   3.917   0.562  12.057 -0.3111  1.2413 -0.5720
14574TIP3    H265214   3.826   0.455  12.114  0.1434  1.5493  0.7717
14575TIP3   OH265215   2.180   2.971   4.732  0.7730  0.2907 -0.1533
14575TIP3    H165216   2.263   2.973   4.779  0.1956  0.9996  0.8809
14575TIP3    H265217   2.114   2.961   4.801 -0.0910  1.2310 -0.8185
14576TIP3   OH265218   1.055   0.628  15.530  0.4238 -0.4663  0.7254
14576TIP3    H165219   0.969   0.592  15.508 -1.1986  2.7072  1.3001
14576TIP3    H265220   1.099   0.557  15.577 -3.5985 -0.9870  4.3845
14577TIP3   OH265221   5.484   5.474   0.110  0.1311 -0.5827 -0.4761
14577TIP3    H165222   5.515   5.401   0.164  0.1450 -0.3265 -0.1338
14577TIP3    H265223   5.393   5.451   0.089 -0.4532  0.1089  1.0920
14578TIP3   OH265224   1.805   5.350   3.507 -0.4975 -0.2569 -0.1809
14578TIP3    H165225   1.875   5.411   3.529 -0.6806 -0.7266  1.8742
14578TIP3    H265226   1.849   5.269   3.484 -0.3341 -0.4656  0.8271
14579TIP3   OH265227   4.585   2.003  16.683 -0.2998  0.5873 -0.4573
14579TIP3    H165228   4.561   2.084  16.729 -2.1545  0.0118 -0.3292
14579TIP3    H265229   4.511   1.986  16.625  1.1053  0.1905 -2.1944
14580TIP3   OH265230   3.260   0.948  16.275 -0.5563 -0.1911 -0.1445
14580TIP3    H165231   3.235   1.027  16.323  1.2024  0.0956  0.3741
14580TIP3    H265232   3.225   0.876  16.327  0.8773  0.1404  1.3545
14581TIP3   OH265233   1.272   5.056   0.315  0.4783  0.3653 -0.3609
14581TIP3    H165234   1.185   5.070   0.277 -0.0901 -1.4069  0.1919
14581TIP3    H265235   1.327   5.034   0.240  0.0510 -0.1634 -0.5263
14582TIP3   OH265236   2.560   6.666  10.314  0.1503  0.0637 -0.8316
14582TIP3    H165237   2.620   6.651  10.387 -2.4725  0.5088  1.5634
14582TIP3    H265238   2.540   6.578  10.281  0.4391 -0.2330 -0.2275
14583TIP3   OH265239   4.842   6.344   4.361 -0.4090 -0.4599  0.2465
14583TIP3    H165240   4.759   6.365   4.404  0.1567  3.2608 -0.1096
14583TIP3    H265241   4.818   6.305   4.278 -1.7733 -0.3435  0.5721
14584TIP3   OH265242   3.811   3.956  16.775 -0.6000 -0.5836 -0.1576
14584TIP3    H165243   3.793   3.872  16.733 -2.4540 -0.4624  0.3267
14584TIP3    H265244   3.776   3.947  16.864  0.9131  0.0560  0.5410
14585TIP3   OH265245   5.248   4.392   1.284 -0.0872  0.5590  0.1361
14585TIP3    H165246   5.341   4.399   1.309 -0.0170 -0.0883  0.0810
14585TIP3    H265247   5.203   4.370   1.365 -0.4596  2.6378  0.5407
14586TIP3   OH265248   5.127   5.380  16.071 -0.2699  0.4693 -0.3973
14586TIP3    H165249   5.147   5.320  16.143 -0.0561  0.4634 -0.4604
14586TIP3    H265250   5.211   5.396  16.029 -0.2614  1.1764 -0.1072
14587TIP3   OH265251   5.496   1.229  15.003  0.0913  0.3324  0.0906
14587TIP3    H165252   5.534   1.230  14.916 -0.5838 -1.6914 -0.2875
14587TIP3    H265253   5.421   1.288  14.998  0.8703  1.2936 -0.2853
14588TIP3   OH265254   3.517   2.026   2.018  0.6539 -0.3688  0.3396
14588TIP3    H165255   3.449   1.985   1.964  1.3358 -0.7028 -0.2862
14588TIP3    H265256   3.595   2.024   1.963  0.8711  1.1479  0.5692
14589TIP3   OH265257   2.340   1.422  11.062  0.1982  0.7070  0.2003
14589TIP3    H165258   2.384   1.354  11.113  0.8283  0.9005 -0.0713
14589TIP3    H265259   2.377   1.504  11.093  0.3289  0.8490 -0.3166
14590TIP3   OH265260   4.925   0.163  15.596 -0.1440 -0.4448 -0.4487
14590TIP3    H165261   4.964   0.077  15.578  0.4299 -0.4761  0.8155
14590TIP3    H265262   4.922   0.169  15.691 -0.8890  0.6340 -0.5152
14591TIP3   OH265263   6.224   3.646  13.223  0.4159 -0.3404  0.2320
14591TIP3    H165264   6.197   3.624  13.312  0.5117 -1.2206  0.0566
14591TIP3    H265265   6.258   3.563  13.188 -1.0792 -0.4038 -1.1647
14592TIP3   OH265266   1.305   4.740   3.474 -0.5476  0.0571 -0.2135
14592TIP3    H165267   1.221   4.784   3.484 -1.4096 -1.2006 -1.5956
14592TIP3    H265268   1.330   4.754   3.383  0.4223 -0.1671 -0.0032
14593TIP3   OH265269   4.034   2.377  11.180 -0.0574 -0.5147  0.0486
14593TIP3    H165270   4.033   2.327  11.098 -2.6442  1.1040 -1.0463
14593TIP3    H265271   4.119   2.421  11.181 -0.9805  1.7834 -3.4425
14594TIP3   OH265272   4.231   4.761   1.491 -0.3711  0.7615  0.1480
14594TIP3    H165273   4.320   4.793   1.502 -0.0609 -0.1111  0.2345
14594TIP3    H265274   4.183   4.835   1.454  0.3753  1.2498  0.1492
14595TIP3   OH265275   4.501   1.186   5.385 -0.2168  0.0160 -0.6910
14595TIP3    H165276   4.418   1.233   5.376 -0.8336 -0.1492  2.6630
14595TIP3    H265277   4.475   1.096   5.409  0.7663  0.4012  2.2652
14596TIP3   OH265278   5.814   2.051   5.756 -0.0233 -0.4815  0.1186
14596TIP3    H165279   5.873   2.114   5.798 -0.3561  0.3930 -0.6808
14596TIP3    H265280   5.870   1.996   5.702  0.4158 -1.6301  1.6686
14597TIP3   OH265281   5.677   5.708   0.780  0.7351  0.1928  0.0051
14597TIP3    H165282   5.701   5.799   0.798 -0.6246  1.4069 -3.4519
14597TIP3    H265283   5.582   5.709   0.773  0.7219 -1.4231 -0.4895
14598TIP3   OH265284   5.222   3.324  11.452 -0.2493  0.1599 -0.1558
14598TIP3    H165285   5.313   3.331  11.480  0.4223 -0.7852 -1.9697
14598TIP3    H265286   5.223   3.257  11.384 -2.2079  0.5809 -0.6467
14599TIP3   OH265287   2.043   1.941   3.046  0.2095  0.0469  0.1459
14599TIP3    H165288   2.099   1.958   3.122 -0.0990 -0.6701  0.5426
14599TIP3    H265289   1.988   1.867   3.073  1.8259 -1.9457 -1.6832
14600TIP3   OH265290   6.281   0.720   3.346 -0.0743  0.6766  0.1189
14600TIP3    H165291   6.349   0.719   3.413 -0.2727 -2.4177  0.4102
14600TIP3    H265292   6.199   0.729   3.395 -0.0628  1.4456  0.0091
14601TIP3   OH265293   0.642   5.186   4.495 -0.1848 -0.0427  0.3875
14601TIP3    H165294   0.591   5.250   4.545  0.1271  0.5309 -0.0243
14601TIP3    H265295   0.584   5.161   4.424  0.3337  1.1180 -0.4748
14602TIP3   OH265296   1.850   1.484  13.621 -0.1837  0.4713  0.5221
14602TIP3    H165297   1.843   1.578  13.635 -1.3631  0.2900  1.3120
14602TIP3    H265298   1.860   1.474  13.527  0.1710  1.3926  0.4556
14603TIP3   OH265299   4.541   2.418  11.972 -0.2228 -0.3335 -0.5865
14603TIP3    H165300   4.601   2.366  12.025 -0.6212 -0.4358 -0.2291
14603TIP3    H265301   4.597   2.465  11.910  0.1186 -1.3934 -1.1018
14604TIP3   OH265302   5.599   0.342  16.626  0.3248 -0.2177  0.3357
14604TIP3    H165303   5.606   0.312  16.717 -0.2474 -0.1032  0.4147
14604TIP3    H265304   5.515   0.386  16.621 -0.2839 -1.4412 -0.5997
14605TIP3   OH265305   6.675   6.398  10.850 -0.0723  0.4436 -0.0654
14605TIP3    H165306   6.751   6.343  10.831 -0.7665 -0.0652 -1.5065
14605TIP3    H265307   6.712   6.485  10.865  0.7722  0.3781 -1.5309
14606TIP3   OH265308   4.895   2.042  12.008 -0.1270  0.5939 -0.7024
14606TIP3    H165309   4.918   2.090  12.087 -0.6262  0.3886 -0.4307
14606TIP3    H265310   4.810   2.003  12.027  0.7580 -1.3710 -0.4436
14607TIP3   OH265311   0.623   6.677   0.615 -0.0156  0.3032  0.1504
14607TIP3    H165312   0.586   6.628   0.542 -1.0764  1.3056 -0.0315
14607TIP3    H265313   0.547   6.720   0.655  0.8155  1.5114  0.4877
14608TIP3   OH265314   5.360   6.238  14.191  0.0817  0.0453  0.4466
14608TIP3    H165315   5.325   6.151  14.208 -0.7503  0.6313  1.9836
14608TIP3    H265316   5.354   6.249  14.096 -1.5549 -0.8641  0.4026
14609TIP3   OH265317   5.590   3.694   3.583  0.1153 -0.3320  0.1699
14609TIP3    H165318   5.555   3.620   3.633 -0.5854 -1.2234 -1.5726
14609TIP3    H265319   5.569   3.771   3.637 -2.1923 -1.0950  0.4741
14610TIP3   OH265320   0.283   0.047  14.978 -0.5814  0.0336 -0.1286
14610TIP3    H165321   0.304  -0.042  15.007  0.9362  0.4186  0.0625
14610TIP3    H265322   0.347   0.102  15.023 -2.2953  1.4014  0.7597
14611TIP3   OH265323   6.027   2.623   3.053 -0.2496 -0.0317  0.4583
14611TIP3    H165324   6.044   2.604   3.145 -1.1899  1.0431  0.8755
14611TIP3    H265325   5.933   2.610   3.043 -0.0327 -1.0362 -0.5951
14612TIP3   OH265326   4.999   0.709  13.045  0.1717 -0.0108  0.1887
14612TIP3    H165327   5.036   0.723  12.957  1.2820 -2.1630  0.2336
14612TIP3    H265328   5.052   0.764  13.102 -0.6229  1.4898 -0.4581
14613TIP3   OH265329   1.561   0.119   5.473  0.4345 -0.0433 -0.1073
14613TIP3    H165330   1.490   0.112   5.537  0.1660 -3.2099 -0.5609
14613TIP3    H265331   1.621   0.184   5.509 -0.1570 -1.0262  2.9315
14614TIP3   OH265332   6.167   2.592  11.585 -0.2858  0.0227  0.6946
14614TIP3    H165333   6.173   2.682  11.553 -1.2274  0.0180  0.4868
14614TIP3    H265334   6.080   2.586  11.623  0.0005 -0.6292  1.2526
14615TIP3   OH265335   4.668   0.295  14.034 -0.0622  0.0151 -0.3792
14615TIP3    H165336   4.670   0.201  14.054  1.4837 -0.3708 -2.0869
14615TIP3    H265337   4.584   0.308  13.991 -0.3921 -0.5424  0.0781
14616TIP3   OH265338   0.369   0.962  16.481  0.1746  0.3666 -0.4845
14616TIP3    H165339   0.381   0.867  16.482  1.7275  0.5230  0.8302
14616TIP3    H265340   0.313   0.980  16.556  1.9469  0.6513  0.8348
14617TIP3   OH265341   2.834   1.245   1.068 -0.2065 -0.2918 -0.7415
14617TIP3    H165342   2.757   1.301   1.058 -0.1719 -0.0829  0.1115
14617TIP3    H265343   2.907   1.299   1.040 -0.2879 -0.2535 -0.8819
14618TIP3   OH265344   6.096   6.114  15.657 -0.5944  0.2095 -0.4579
14618TIP3    H165345   6.147   6.157  15.726 -1.5283 -1.6036  1.5027
14618TIP3    H265346   6.055   6.185  15.609 -0.4053  1.5621  1.2937
14619TIP3   OH265347   3.404   1.740   2.539 -0.0694 -0.0152 -0.2246
14619TIP3    H165348   3.354   1.707   2.465 -1.1223 -0.6290  0.7334
14619TIP3    H265349   3.341   1.746   2.611  0.7404  1.3240  0.4266
14620TIP3   OH265350   5.254   6.192   0.254 -0.2020 -0.2120  0.2415
14620TIP3    H165351   5.219   6.134   0.321  1.1526  0.0754  1.2299
14620TIP3    H265352   5.222   6.154   0.171 -0.5419 -1.5093  0.9361
14621TIP3   OH265353   1.372   0.311  10.783 -0.2457  0.2543 -0.3678
14621TIP3    H165354   1.436   0.364  10.830 -0.0806 -1.3456  1.3201
14621TIP3    H265355   1.420   0.232  10.759 -0.3756  0.9342 -3.1854
14622TIP3   OH265356   2.261   3.862   2.904  0.2363  0.2801 -0.1802
14622TIP3    H165357   2.344   3.856   2.951 -0.3875  0.5347  0.9818
14622TIP3    H265358   2.234   3.771   2.893  0.1180  0.2362  0.4479
14623TIP3   OH265359   6.007   6.460  11.229  0.4006  0.4653 -0.6931
14623TIP3    H165360   6.036   6.503  11.149  0.1214 -0.8727 -1.5317
14623TIP3    H265361   6.082   6.407  11.256 -0.1817 -0.6510 -1.2012
14624TIP3   OH265362   1.781   6.586  15.322 -0.5016 -0.2621 -0.0191
14624TIP3    H165363   1.869   6.623  15.332  0.4060 -1.4645 -2.7125
14624TIP3    H265364   1.781   6.509  15.379 -0.2626  0.3922  0.8962
14625TIP3   OH265365   0.739   2.705  11.823  0.4198 -0.3381 -0.1521
14625TIP3    H165366   0.737   2.754  11.905  0.3027 -1.8752  0.7954
14625TIP3    H265367   0.756   2.772  11.756 -0.0727  1.0273  1.0341
14626TIP3   OH265368   1.207   3.497  12.377  0.1054 -0.2586 -0.3963
14626TIP3    H165369   1.115   3.474  12.394  0.5115 -1.7521 -0.0874
14626TIP3    H265370   1.245   3.418  12.340  1.6701 -0.1955  0.9687
14627TIP3   OH265371   3.377   1.988  16.868  0.4433 -0.5447 -0.5482
14627TIP3    H165372   3.372   2.060  16.931  1.7517 -1.2938  0.4604
14627TIP3    H265373   3.314   1.923  16.901  0.6506 -0.6616 -0.3823
14628TIP3   OH265374   3.240   2.859   0.529  0.3277  0.0624 -0.0763
14628TIP3    H165375   3.184   2.820   0.462  1.2034  0.7208 -1.2299
14628TIP3    H265376   3.211   2.950   0.534  2.4060  0.9367 -2.0421
14629TIP3   OH265377   2.011   5.219  12.502  0.5650  0.3923 -0.2439
14629TIP3    H165378   1.969   5.269  12.571 -1.2814 -3.1731  1.5098
14629TIP3    H265379   2.104   5.217  12.526  0.4809  1.8828  0.2736
14630TIP3   OH265380   4.525   3.045   1.822  0.5201 -0.0818  0.5771
14630TIP3    H165381   4.489   2.973   1.874 -0.6498 -0.0091 -0.1085
14630TIP3    H265382   4.507   3.124   1.874 -0.9714  0.0300 -0.0779
14631TIP3   OH265383   0.807   6.578  16.915 -0.4982 -0.3560 -0.4649
14631TIP3    H165384   0.714   6.557  16.926 -0.6810  0.8529  0.4357
14631TIP3    H265385   0.826   6.555  16.824 -1.7832 -0.2481 -0.7739
14632TIP3   OH265386   3.598   3.072  16.090  0.4409 -0.1754  0.0001
14632TIP3    H165387   3.653   2.993  16.097 -1.1732 -1.2605  1.2511
14632TIP3    H265388   3.633   3.131  16.156  1.2687 -0.0764 -0.5131
14633TIP3   OH265389   2.242   2.264   2.619 -0.0789  0.0835  0.8347
14633TIP3    H165390   2.233   2.184   2.567  1.8615  0.1989  0.2547
14633TIP3    H265391   2.289   2.238   2.697  2.2712  0.9286 -0.2207
14634TIP3   OH265392   0.575   1.535  14.781  0.3450 -0.3386 -0.7978
14634TIP3    H165393   0.588   1.454  14.830 -0.0051  1.4274  2.4848
14634TIP3    H265394   0.481   1.550  14.782  0.5349  1.0833  0.5190
14635TIP3   OH265395   3.980   2.016  11.194  0.5150 -0.1180 -0.5108
14635TIP3    H165396   4.058   1.992  11.145  0.2564 -1.6750 -0.2011
14635TIP3    H265397   3.912   2.030  11.127  1.0792  1.4816 -0.7953
14636TIP3   OH265398   1.532   4.340  15.220 -0.0258  0.4256  0.6686
14636TIP3    H165399   1.516   4.252  15.255 -1.8421  1.2097  2.0088
14636TIP3    H265400   1.494   4.339  15.133 -1.1124  0.1919  1.1291
14637TIP3   OH265401   6.249   2.605  13.688 -0.1133  0.0590  0.2214
14637TIP3    H165402   6.316   2.585  13.754 -0.7447  0.4979  1.0191
14637TIP3    H265403   6.297   2.652  13.620  0.4025  0.4026  0.7977
14638TIP3   OH265404   2.245   1.395  15.940  0.2603  0.2355 -0.8906
14638TIP3    H165405   2.283   1.456  16.004  1.4132 -1.9651  0.6871
14638TIP3    H265406   2.164   1.364  15.981 -0.7739  1.2997 -2.0700
14639TIP3   OH265407   5.875   3.862   2.915 -0.1030  0.1348 -0.5747
14639TIP3    H165408   5.802   3.807   2.887  0.4384  0.0414 -1.8744
14639TIP3    H265409   5.926   3.876   2.835  2.9316 -2.2176  0.7429
14640TIP3   OH265410   0.408   2.811   6.083  0.0925  0.4509 -0.0805
14640TIP3    H165411   0.405   2.883   6.146 -1.2124 -0.7282  1.2963
14640TIP3    H265412   0.430   2.852   5.999 -1.7083  2.6224  0.4290
14641TIP3   OH265413   2.544   0.443  14.914  0.3750  0.2011  0.0407
14641TIP3    H165414   2.449   0.451  14.909  0.3596  1.4596  1.3173
14641TIP3    H265415   2.566   0.370  14.857 -1.3070  0.1813 -0.6390
14642TIP3   OH265416   1.269   0.742  16.527 -0.6149  0.3961 -0.7782
14642TIP3    H165417   1.254   0.765  16.618 -1.9450 -1.3459 -0.5104
14642TIP3    H265418   1.240   0.819  16.477 -1.6762  0.6346  0.1809
14643TIP3   OH265419   1.975   3.946   2.586  0.1800  0.3055  0.1742
14643TIP3    H165420   1.935   3.979   2.666  0.0968 -1.0966  0.7507
14643TIP3    H265421   1.961   3.851   2.590  0.2570  0.2000 -1.4638
14644TIP3   OH265422   1.709   0.521   3.805  0.3840  0.5209  0.0976
14644TIP3    H165423   1.768   0.579   3.852  2.6505 -1.8346  0.4118
14644TIP3    H265424   1.622   0.558   3.819  1.2681  1.7063  3.4391
14645TIP3   OH265425   5.508   0.290   1.559 -0.2971  0.2393  0.2844
14645TIP3    H165426   5.464   0.228   1.617 -0.0432 -0.9580 -0.7608
14645TIP3    H265427   5.513   0.245   1.475  2.5000  0.5023  0.2252
14646TIP3   OH265428   1.401   5.407   0.704  0.4590 -0.0390  0.5743
14646TIP3    H165429   1.425   5.340   0.640  0.9166  1.9815 -1.5032
14646TIP3    H265430   1.307   5.421   0.691  0.2476 -0.6326  1.3923
14647TIP3   OH265431   4.850   4.006   0.277  0.2819 -0.3711  0.1108
14647TIP3    H165432   4.867   4.084   0.223  1.0995 -0.6629 -0.0701
14647TIP3    H265433   4.801   4.039   0.352 -1.3793 -0.0345 -1.0550
14648TIP3   OH265434   6.224   2.379  15.689  0.3163 -0.1977  0.1066
14648TIP3    H165435   6.299   2.405  15.742  0.5439 -1.1606  0.2801
14648TIP3    H265436   6.148   2.412  15.737  0.5660 -0.3008  0.5802
14649TIP3   OH265437   2.296   3.445  11.540 -0.0686 -0.2037 -0.3164
14649TIP3    H165438   2.330   3.467  11.453 -1.2332 -1.9105 -1.2653
14649TIP3    H265439   2.287   3.530  11.584  3.0782  0.5003 -0.8270
14650TIP3   OH265440   1.503   3.800   3.026  0.0890 -0.3034 -0.4610
14650TIP3    H165441   1.453   3.729   2.985  1.0322  0.5014 -3.2571
14650TIP3    H265442   1.448   3.877   3.014  0.1760 -0.1211  0.2757
14651TIP3   OH265443   6.824   4.417   2.834  1.0467  0.3727 -0.7767
14651TIP3    H165444   6.838   4.474   2.910  2.2180 -1.8420  0.7872
14651TIP3    H265445   6.906   4.423   2.785  0.6863  0.9899 -1.3171
14652TIP3   OH265446   4.839   1.233  14.277  0.2284  0.1062  0.6614
14652TIP3    H165447   4.745   1.221  14.262 -0.0643  0.1431  2.3228
14652TIP3    H265448   4.861   1.311  14.226 -1.1793  1.5497  2.1223
14653TIP3   OH265449   4.845   0.018   4.185  0.0348  0.7767 -0.2672
14653TIP3    H165450   4.806   0.035   4.100  1.3704 -1.1321 -1.3474
14653TIP3    H265451   4.867  -0.076   4.183  1.0915  0.9156  1.7501
14654TIP3   OH265452   0.891   2.299  11.979 -0.2499 -0.2625 -0.8654
14654TIP3    H165453   0.812   2.341  11.947 -0.4367  1.4148  1.5329
14654TIP3    H265454   0.879   2.294  12.074  1.5021 -2.1777 -0.6643
14655TIP3   OH265455   6.437   4.623  11.096 -0.1626 -0.0108 -0.1355
14655TIP3    H165456   6.513   4.648  11.044  0.5461  1.1071  1.3591
14655TIP3    H265457   6.364   4.670  11.057 -0.2250 -1.4608 -1.8782
14656TIP3   OH265458   3.588   5.521   3.249  0.0243  0.0421  0.1039
14656TIP3    H165459   3.496   5.497   3.253  0.7206 -2.9820 -0.2313
14656TIP3    H265460   3.611   5.543   3.340 -1.1442  1.6304  0.0620
14657TIP3   OH265461   3.237   1.169  13.949  0.2919  0.1984  1.0057
14657TIP3    H165462   3.231   1.082  13.909 -0.5429  1.0343 -0.7676
14657TIP3    H265463   3.330   1.193  13.941 -0.0530  0.8536 -1.6192
14658TIP3   OH265464   4.326   2.071  13.037  0.3192  0.2033 -0.0838
14658TIP3    H165465   4.326   1.978  13.062  4.1258 -0.5148 -1.9871
14658TIP3    H265466   4.265   2.075  12.963 -1.5117 -0.2486  1.3304
14659TIP3   OH265467   3.029   6.252   1.067 -0.1440  0.3246  0.0750
14659TIP3    H165468   3.054   6.163   1.095  0.2827  0.6978  0.9138
14659TIP3    H265469   3.107   6.305   1.084 -0.1885  0.7548 -1.0003
14660TIP3   OH265470   3.845   6.299   3.015 -0.0463  0.2014 -0.8334
14660TIP3    H165471   3.777   6.341   3.067  0.3229  0.1972 -0.3345
14660TIP3    H265472   3.805   6.220   2.979  0.1271 -0.6142  0.6949
14661TIP3   OH265473   6.667   5.973  14.555  0.2657 -0.2637  0.3084
14661TIP3    H165474   6.734   5.947  14.619  0.9192  0.2570 -0.1427
14661TIP3    H265475   6.588   5.928  14.583  0.5650 -0.1255  1.4252
14662TIP3   OH265476   5.067   1.675  14.028 -0.8644  0.1283 -0.4377
14662TIP3    H165477   5.105   1.759  14.053  0.3143 -0.1122 -1.3307
14662TIP3    H265478   5.131   1.610  14.058 -1.6009 -0.4420 -0.0637
14663TIP3   OH265479   4.697   3.994   3.196  0.2430 -0.1045  0.7372
14663TIP3    H165480   4.712   3.916   3.250  0.3011 -0.3816  0.3177
14663TIP3    H265481   4.771   3.996   3.135  0.2456  0.2841  0.7485
14664TIP3   OH265482   5.011   4.202   4.386  0.4829  0.2541 -0.3816
14664TIP3    H165483   4.982   4.276   4.440  0.8256 -0.9165  1.5160
14664TIP3    H265484   4.960   4.128   4.418  1.9656 -0.8337 -0.4322
14665TIP3   OH265485   3.704   6.730  10.914  0.1074 -0.9051  0.1709
14665TIP3    H165486   3.646   6.761  10.845 -0.4059 -1.6887  0.2269
14665TIP3    H265487   3.720   6.806  10.969  0.8649 -0.1701 -1.0298
14666TIP3   OH265488   6.176   5.206  11.926 -0.0173  0.1894 -0.6345
14666TIP3    H165489   6.267   5.180  11.932 -0.6312 -2.0333 -0.3115
14666TIP3    H265490   6.136   5.179  12.008 -1.0094  1.0277 -0.8058
14667TIP3   OH265491   5.891   1.306  11.897  0.1126 -0.0679  0.2929
14667TIP3    H165492   5.816   1.261  11.938  1.6875 -1.8040  1.4197
14667TIP3    H265493   5.958   1.307  11.965  1.5947  0.2233 -1.1265
14668TIP3   OH265494   5.457   0.681   4.497 -0.5467  0.5124 -0.2982
14668TIP3    H165495   5.406   0.632   4.561  1.1493  2.2956  2.7127
14668TIP3    H265496   5.444   0.635   4.414 -3.9461 -1.2195  1.0073
14669TIP3   OH265497   3.865   5.624  12.697  0.1240  0.2236  0.1853
14669TIP3    H165498   3.841   5.619  12.604 -0.2541 -0.7135  0.3233
14669TIP3    H265499   3.838   5.712  12.724 -1.1174 -0.0115 -0.2343
14670TIP3   OH265500   1.377   4.854   2.869 -0.0998  0.2144  0.4034
14670TIP3    H165501   1.465   4.874   2.838  0.3800 -0.5868  1.1777
14670TIP3    H265502   1.375   4.758   2.875 -1.6533  0.0741 -1.3610
14671TIP3   OH265503   2.358   1.787   0.638  0.2381 -0.1936  0.1244
14671TIP3    H165504   2.280   1.808   0.588  1.1401 -0.1236 -1.3275
14671TIP3    H265505   2.361   1.692   0.640  0.4615 -0.2002 -0.4028
14672TIP3   OH265506   0.013   4.968  15.896  0.8980  0.5669 -0.5013
14672TIP3    H165507   0.043   4.878  15.903  2.8073  1.1510 -0.4152
14672TIP3    H265508  -0.028   4.974  15.810  0.7878 -0.3537 -0.5202
14673TIP3   OH265509   3.875   6.400  16.293  0.1433  0.3364 -0.2222
14673TIP3    H165510   3.943   6.457  16.256 -0.0929  1.1407  0.5447
14673TIP3    H265511   3.832   6.362  16.217  1.4278 -0.1694 -0.7304
14674TIP3   OH265512   2.560   0.637  17.081  0.3324 -0.0378  0.3155
14674TIP3    H165513   2.529   0.569  17.021  0.6557  0.1181 -0.0304
14674TIP3    H265514   2.616   0.590  17.144 -1.5810 -0.5553  1.7442
14675TIP3   OH265515   2.387   6.096   2.688 -0.2751 -0.5622 -0.0505
14675TIP3    H165516   2.371   6.190   2.689  0.0380 -0.4453 -1.8312
14675TIP3    H265517   2.481   6.088   2.670 -0.2768 -1.2168  0.2032
14676TIP3   OH265518   2.636   4.895  12.945 -0.0108  0.1897 -0.5527
14676TIP3    H165519   2.657   4.826  13.008  0.5649 -0.5428 -1.5089
14676TIP3    H265520   2.721   4.933  12.923  0.0429 -0.8020 -2.2359
14677TIP3   OH265521   6.271   1.629  12.374  0.4751  0.0270  0.1585
14677TIP3    H165522   6.354   1.591  12.344  0.8495  0.8844  0.0714
14677TIP3    H265523   6.206   1.562  12.356  1.2589 -0.9733  0.9267
14678TIP3   OH265524   0.728   3.700   3.312  0.5457 -0.3423  0.0418
14678TIP3    H165525   0.770   3.626   3.356  3.6870  2.2430  1.8393
14678TIP3    H265526   0.795   3.735   3.254 -1.3524  0.2781 -1.9038
14679TIP3   OH265527   0.408   2.768  12.398  0.3926 -0.3057  0.3127
14679TIP3    H165528   0.502   2.750  12.410  0.5097  0.0162 -0.1067
14679TIP3    H265529   0.374   2.773  12.487  1.2422  1.9788  0.5746
14680TIP3   OH265530   4.667   6.220   4.131  0.8681 -0.1914  0.2278
14680TIP3    H165531   4.670   6.301   4.080 -1.1664 -1.2620 -1.7571
14680TIP3    H265532   4.734   6.165   4.091 -0.4733 -0.8921 -1.1748
14681TIP3   OH265533   1.982   0.210  16.873  0.4060  0.0951 -0.8235
14681TIP3    H165534   1.905   0.247  16.916  2.5014  1.8074  1.8532
14681TIP3    H265535   1.963   0.116  16.866 -1.3987  0.2535  0.9650
14682TIP3   OH265536   3.024   1.808  15.590  0.0838  0.0469  0.0601
14682TIP3    H165537   2.935   1.775  15.604 -0.5976  0.7905 -2.1251
14682TIP3    H265538   3.027   1.830  15.497  2.6424 -0.1440  0.0300
14683TIP3   OH265539   5.870   4.844  15.836 -0.1138  0.6429  0.0921
14683TIP3    H165540   5.816   4.896  15.895  0.4590 -0.4024  1.6011
14683TIP3    H265541   5.876   4.758  15.878 -0.6861 -0.5470 -2.1104
14684TIP3   OH265542   4.270   1.519   4.497 -0.3979  0.0569  0.5627
14684TIP3    H165543   4.204   1.544   4.561 -0.0684 -0.4200  1.1011
14684TIP3    H265544   4.352   1.513   4.547 -0.0069  0.3334 -0.0327
14685TIP3   OH265545   1.837   5.571  10.803 -0.1158  0.0361  0.2553
14685TIP3    H165546   1.867   5.482  10.821 -1.3369 -0.8256 -1.6472
14685TIP3    H265547   1.899   5.605  10.739 -1.2319 -0.5440 -1.1895
14686TIP3   OH265548   6.260   2.220  12.992 -0.1118  0.3254 -0.4386
14686TIP3    H165549   6.311   2.282  13.044  0.2393 -0.0191 -0.3661
14686TIP3    H265550   6.172   2.225  13.029  0.3904 -0.7827  1.0134
14687TIP3   OH265551   0.104   2.704   5.843 -0.1354 -0.3800  0.7182
14687TIP3    H165552   0.170   2.690   5.911 -0.4693  0.3666  1.2125
14687TIP3    H265553   0.073   2.617   5.821  1.4796 -0.8073 -0.0053
14688TIP3   OH265554   6.431   5.660   1.320 -0.1265 -0.1796  0.3594
14688TIP3    H165555   6.499   5.679   1.385  0.4733 -0.7226 -0.0965
14688TIP3    H265556   6.473   5.674   1.235 -1.4497  2.4931  0.0216
14689TIP3   OH265557   1.866   2.264   0.050 -0.3559  0.2957  0.2986
14689TIP3    H165558   1.887   2.171   0.042  2.7611  1.0021 -1.8662
14689TIP3    H265559   1.829   2.273   0.137  0.5387 -2.7744  1.1283
14690TIP3   OH265560   5.676   5.594  13.448 -0.4535  0.0406  0.0147
14690TIP3    H165561   5.699   5.686  13.460  0.8733  0.2517 -3.1858
14690TIP3    H265562   5.582   5.595  13.431 -0.3069  0.9484 -0.8563
14691TIP3   OH265563   4.891   1.369   0.870  0.1872 -0.1279  0.2978
14691TIP3    H165564   4.985   1.362   0.851  0.5440 -0.2955  1.9596
14691TIP3    H265565   4.848   1.330   0.794  1.4422  0.3850 -0.7044
14692TIP3   OH265566   4.696   4.448  11.297 -0.0168  0.4476  0.5839
14692TIP3    H165567   4.626   4.483  11.242  0.2904  0.2207  0.0396
14692TIP3    H265568   4.696   4.505  11.375 -1.6170 -0.3181  1.1824
14693TIP3   OH265569   3.101   6.726  14.007 -0.0635  0.0453  0.8076
14693TIP3    H165570   3.035   6.773  14.059 -0.5748  0.3583 -0.1031
14693TIP3    H265571   3.055   6.650  13.972  0.0634  0.2282  0.2246
14694TIP3   OH265572   1.570   1.019  16.045 -0.5570  0.7936  0.6399
14694TIP3    H165573   1.548   0.942  16.097  2.7867 -1.7797 -1.3053
14694TIP3    H265574   1.536   0.999  15.957  2.2532  0.3302 -0.4416
14695TIP3   OH265575   2.204   3.937   4.273 -0.4121  0.3187 -0.2568
14695TIP3    H165576   2.120   3.974   4.301 -0.4019  1.7802 -2.0022
14695TIP3    H265577   2.242   4.003   4.216  2.5873  0.2917  1.4895
14696TIP3   OH265578   2.173   1.568   4.656  0.0433  0.9729 -0.1735
14696TIP3    H165579   2.118   1.491   4.674 -0.3612  1.1485 -0.6342
14696TIP3    H265580   2.134   1.638   4.707  1.3477  0.5318  1.5104
14697TIP3   OH265581   1.726   1.161  15.066 -0.1703 -0.1001  0.4633
14697TIP3    H165582   1.772   1.117  14.995 -1.1707  0.4079 -0.5363
14697TIP3    H265583   1.720   1.253  15.038 -2.3093 -0.2621  0.2338
14698TIP3   OH265584   6.519   5.065   3.932  0.2913  0.4498  0.2531
14698TIP3    H165585   6.547   5.004   3.864 -0.9053 -1.6374  1.5093
14698TIP3    H265586   6.426   5.081   3.913  0.5234  1.7191  0.0880
14699TIP3   OH265587   6.079   6.328  13.685 -0.4145 -0.2479  0.5617
14699TIP3    H165588   6.110   6.262  13.623  0.3049  1.2706 -0.8000
14699TIP3    H265589   5.984   6.324  13.679 -0.4022  0.9972 -2.0637
14700TIP3   OH265590   1.306   5.501  12.422  0.0942  0.0716 -0.6613
14700TIP3    H165591   1.360   5.551  12.361  0.8686 -1.7311 -1.5152
14700TIP3    H265592   1.364   5.480  12.495  0.1638 -0.6753 -0.9221
14701TIP3   OH265593   5.186   6.066  16.536  0.0923  0.5748  0.1782
14701TIP3    H165594   5.160   6.090  16.625 -0.9340  1.2075 -0.2767
14701TIP3    H265595   5.269   6.020  16.547 -0.3019  0.1407  1.5215
14702TIP3   OH265596   0.909   6.824  15.136  0.2179 -0.3943  0.3765
14702TIP3    H165597   0.913   6.738  15.094 -1.7413 -0.3633  0.0502
14702TIP3    H265598   0.929   6.886  15.066 -1.9959 -0.4059 -0.3250
14703TIP3   OH265599   3.365   1.369  11.884  0.3535 -0.1091  0.3729
14703TIP3    H165600   3.439   1.415  11.845  0.1350 -0.6556 -0.7208
14703TIP3    H265601   3.404   1.297  11.933  0.4864 -2.0374 -2.3915
14704TIP3   OH265602   4.500   5.679   4.251  0.0424  0.6009  0.5188
14704TIP3    H165603   4.564   5.715   4.189 -1.8015  1.2550 -1.1142
14704TIP3    H265604   4.433   5.747   4.259 -1.0152 -0.4945  1.3078
14705TIP3   OH265605   5.388   2.152   4.659 -0.1106  0.2199 -0.1589
14705TIP3    H165606   5.342   2.106   4.589  0.3388 -1.5934  0.6996
14705TIP3    H265607   5.480   2.134   4.644 -0.0282 -0.5424  1.1164
14706TIP3   OH265608   1.617   6.119   1.927 -0.1708 -0.0496 -0.2083
14706TIP3    H165609   1.684   6.185   1.908 -1.8917  2.1625  0.9458
14706TIP3    H265610   1.623   6.058   1.853  1.6060  1.2888 -1.2830
14707TIP3   OH265611   1.014   3.734  11.065  0.0574  0.2923  0.1454
14707TIP3    H165612   1.105   3.765  11.059  0.4334 -0.6430  0.7932
14707TIP3    H265613   0.985   3.728  10.974  0.5670  0.8064 -0.0616
14708TIP3   OH265614   6.750   3.768  12.021 -0.0951 -0.0585 -0.7001
14708TIP3    H165615   6.837   3.804  12.004  0.1176  0.8723  1.9770
14708TIP3    H265616   6.766   3.677  12.048  0.0948  0.2027  0.0874
14709TIP3   OH265617   6.406   3.508  16.321 -0.6936 -0.2202  0.5692
14709TIP3    H165618   6.500   3.492  16.335 -0.7783  0.3315  1.9225
14709TIP3    H265619   6.398   3.521  16.227  0.8554  1.2438  0.5925
14710TIP3   OH265620   6.823   4.946   3.553 -0.4397 -0.4367  0.1393
14710TIP3    H165621   6.806   4.855   3.531 -1.3058 -0.1682 -0.3552
14710TIP3    H265622   6.918   4.955   3.549 -0.2338 -1.6571  1.5937
14711TIP3   OH265623   5.865   2.681   0.905  0.3576 -0.6259 -0.2793
14711TIP3    H165624   5.953   2.689   0.942  0.3915  1.6524 -0.6940
14711TIP3    H265625   5.807   2.715   0.973 -0.2481 -2.1354  0.0009
14712TIP3   OH265626   1.427   6.465   1.425  0.4041 -0.3307  0.1865
14712TIP3    H165627   1.411   6.499   1.513 -0.7366 -0.3960  0.0145
14712TIP3    H265628   1.486   6.529   1.385 -1.7632  1.5761 -0.1567
14713TIP3   OH265629   1.559   5.476  15.848  0.4108  0.1574  0.5481
14713TIP3    H165630   1.591   5.508  15.764  0.9015  2.1833  1.4483
14713TIP3    H265631   1.465   5.493  15.847  0.6138  1.3649  0.8765
14714TIP3   OH265632   3.261   6.422  12.574 -0.0641  0.2328  0.1108
14714TIP3    H165633   3.214   6.505  12.559  1.2735  1.0439  0.2350
14714TIP3    H265634   3.296   6.430  12.663 -1.1732 -1.1360  0.7142
14715TIP3   OH265635   2.176   4.740   0.235 -0.2465 -0.1913 -0.1170
14715TIP3    H165636   2.228   4.665   0.263  0.0164 -0.6834 -1.7773
14715TIP3    H265637   2.238   4.795   0.186 -0.6125  0.7414  0.4380
14716TIP3   OH265638   4.254   5.575  16.472  0.2198 -0.4213  0.0232
14716TIP3    H165639   4.268   5.498  16.417 -0.5998 -1.0423  0.6517
14716TIP3    H265640   4.232   5.645  16.411  1.1247 -0.6350 -0.5703
14717TIP3   OH265641   3.283   2.424   2.426  0.0988  0.1280 -0.5600
14717TIP3    H165642   3.293   2.472   2.344  2.4442 -1.5433 -1.3652
14717TIP3    H265643   3.272   2.333   2.400 -0.8874 -0.2420  0.9911
14718TIP3   OH265644   2.241   4.105  13.089 -0.0617 -0.6988 -0.0876
14718TIP3    H165645   2.154   4.074  13.115 -0.3477 -1.2577 -1.6176
14718TIP3    H265646   2.276   4.034  13.036  0.3666  0.4926 -1.4488
14719TIP3   OH265647   3.550   4.709  13.969  0.4962 -0.2404 -0.5106
14719TIP3    H165648   3.545   4.662  14.052 -0.7903 -0.9227 -0.9587
14719TIP3    H265649   3.625   4.670  13.924  1.7345  0.6986  0.6252
14720TIP3   OH265650   3.909   3.359  14.826 -0.2270  0.0489  0.4549
14720TIP3    H165651   3.970   3.358  14.752  1.7410  2.8361  1.8699
14720TIP3    H265652   3.944   3.294  14.887  0.1933  0.2338  0.4143
14721TIP3   OH265653   0.720   0.405  10.604  0.4356  0.8911 -0.2462
14721TIP3    H165654   0.770   0.424  10.525 -2.6045 -1.4463 -3.0357
14721TIP3    H265655   0.658   0.478  10.610 -0.0089  0.5531 -0.6688
14722TIP3   OH265656   0.434   0.684   0.878  0.0274 -0.1247  0.0567
14722TIP3    H165657   0.425   0.712   0.969  0.5828  0.4057 -0.0506
14722TIP3    H265658   0.464   0.593   0.884 -0.7063 -0.3608  0.3953
14723TIP3   OH265659   5.533   6.458  10.642 -0.0245 -0.3923  0.2366
14723TIP3    H165660   5.613   6.416  10.609 -0.6061 -1.8387  0.5578
14723TIP3    H265661   5.462   6.405  10.605 -0.7419 -1.2829  2.6499
14724TIP3   OH265662   4.819   0.115  13.692 -0.2162  0.2251 -0.3238
14724TIP3    H165663   4.821   0.046  13.759 -2.0547  0.2356 -0.2080
14724TIP3    H265664   4.832   0.068  13.610  1.7183  0.1688 -0.0266
14725TIP3   OH265665   0.527   5.641  15.128 -0.2813 -0.0757 -0.2014
14725TIP3    H165666   0.543   5.707  15.061  0.5480  1.0907  1.0980
14725TIP3    H265667   0.609   5.593  15.135 -0.3314 -0.1264  0.0523
14726TIP3   OH265668   4.885   4.340   0.927  0.5462 -0.8001 -0.5067
14726TIP3    H165669   4.968   4.314   0.887  0.6781 -0.7057 -0.2985
14726TIP3    H265670   4.910   4.375   1.012  0.5669  1.6872 -1.4647
14727TIP3   OH265671   2.060   3.567   0.818 -0.3576 -0.9099 -0.1806
14727TIP3    H165672   1.999   3.507   0.776  0.6301 -1.7153 -0.4980
14727TIP3    H265673   2.124   3.588   0.749 -0.8673  0.7772 -0.1775
14728TIP3   OH265674   1.864   5.805  13.038 -0.5498 -0.6099 -0.7286
14728TIP3    H165675   1.905   5.743  13.098  0.4283  1.1127  0.4465
14728TIP3    H265676   1.778   5.822  13.077 -0.7812 -1.1348 -1.0012
14729TIP3   OH265677   5.442   3.165   4.904 -0.6007  0.3679  0.5720
14729TIP3    H165678   5.501   3.151   4.978 -1.1681 -1.5306  0.7206
14729TIP3    H265679   5.427   3.077   4.868 -0.9511  1.1536 -1.3296
14730TIP3   OH265680   4.987   6.290  16.152 -0.0708  0.4184 -0.2083
14730TIP3    H165681   5.041   6.246  16.218 -1.4956 -0.0455  0.7093
14730TIP3    H265682   4.925   6.222  16.124  0.2518  0.7313 -1.7489
14731TIP3   OH265683   3.218   0.668  12.878 -0.4032 -0.2738  0.3014
14731TIP3    H165684   3.223   0.753  12.922  2.3119  1.1707 -2.4361
14731TIP3    H265685   3.233   0.605  12.949  0.5315  1.7022  1.9872
14732TIP3   OH265686   5.709   5.470  14.388  0.0688  0.1734  0.0966
14732TIP3    H165687   5.693   5.497  14.479 -1.1360 -1.1119  0.3028
14732TIP3    H265688   5.799   5.495  14.371  0.4923 -0.0402  1.8285
14733TIP3   OH265689   0.487   0.382   1.266 -0.2925 -0.4643 -0.0658
14733TIP3    H165690   0.501   0.470   1.232 -1.7139  0.6477  2.0086
14733TIP3    H265691   0.412   0.348   1.216 -0.6780  0.0979  0.1243
14734TIP3   OH265692   3.427   1.043  11.673  0.4673  0.3998  0.2163
14734TIP3    H165693   3.344   0.998  11.689  0.6739  0.3918  1.3503
14734TIP3    H265694   3.416   1.083  11.587 -1.3082  1.6492  0.9656
14735TIP3   OH265695   2.432   1.210  11.217 -0.3930  0.5395  0.3331
14735TIP3    H165696   2.524   1.186  11.228 -0.2764  0.0834 -1.2719
14735TIP3    H265697   2.384   1.140  11.262  0.0303  0.2460  0.3384
14736TIP3   OH265698   1.791   3.520   0.138 -0.1497  0.3484  0.0555
14736TIP3    H165699   1.728   3.544   0.070  0.4555 -1.2641 -1.1335
14736TIP3    H265700   1.873   3.506   0.092  0.9030  1.5025  1.4631
14737TIP3   OH265701   5.788   5.489   1.430 -0.4183 -0.1637  0.3390
14737TIP3    H165702   5.700   5.508   1.461 -0.7978 -0.7398 -0.3659
14737TIP3    H265703   5.800   5.547   1.355 -0.2313 -0.1551  0.3751
14738TIP3   OH265704   2.718   6.765   3.659 -0.0830  0.1440 -0.1223
14738TIP3    H165705   2.763   6.832   3.606  0.0373  0.4780  0.3924
14738TIP3    H265706   2.659   6.816   3.715  0.8611 -0.0732  1.1162
14739TIP3   OH265707   3.425   1.186  13.551  0.0159  0.8213  0.1175
14739TIP3    H165708   3.418   1.098  13.588 -0.4499  0.4996 -0.6997
14739TIP3    H265709   3.515   1.193  13.521 -0.0001  0.5507  0.0086
14740TIP3   OH265710   1.004   1.024  14.868  0.0689  0.0647 -0.2238
14740TIP3    H165711   0.938   1.022  14.799  0.8277  1.8459 -1.0747
14740TIP3    H265712   0.955   1.047  14.947 -0.8404 -2.1969 -0.0663
14741TIP3   OH265713   4.411   4.955   4.052 -0.0770 -0.5274 -0.0625
14741TIP3    H165714   4.501   4.979   4.031 -0.0887 -1.9497 -1.9454
14741TIP3    H265715   4.366   5.039   4.063  1.6934  0.2159  2.1603
14742TIP3   OH265716   0.939   1.475  17.190 -0.0011 -0.0312 -0.3124
14742TIP3    H165717   1.023   1.444  17.225 -0.5278 -1.5510 -0.3239
14742TIP3    H265718   0.880   1.400  17.199 -2.6816  2.2255  3.7826
14743TIP3   OH265719   5.934   0.373  12.506  0.6166  0.0310 -0.1457
14743TIP3    H165720   5.938   0.309  12.577  0.4555  0.5855  0.3683
14743TIP3    H265721   6.025   0.403  12.495  0.9619 -1.3334 -1.3803
14744TIP3   OH265722   4.355   3.432   0.225  0.2374 -0.6252 -0.1675
14744TIP3    H165723   4.438   3.408   0.183  1.0671  1.8942 -0.0923
14744TIP3    H265724   4.299   3.462   0.153 -0.4880 -1.8297 -0.1466
14745TIP3   OH265725   0.021   3.329  16.774  0.2178  0.6273 -0.4206
14745TIP3    H165726  -0.069   3.363  16.779  0.8333  2.1350  1.2976
14745TIP3    H265727   0.010   3.234  16.770 -1.4507  0.7759 -0.3417
14746TIP3   OH265728   2.616   0.906   2.898 -0.2050 -0.3628  0.0702
14746TIP3    H165729   2.588   0.827   2.851 -0.2776 -1.2364  1.5404
14746TIP3    H265730   2.647   0.875   2.983 -0.2512  1.1979  0.6992
14747TIP3   OH265731   2.584   3.670   1.872  0.2892  0.5342 -0.1919
14747TIP3    H165732   2.674   3.648   1.846  0.7712 -0.1146  1.8207
14747TIP3    H265733   2.591   3.759   1.906 -0.5295  1.7690 -3.0271
14748TIP3   OH265734   2.740   6.303  13.423 -0.0241  0.5245  0.0226
14748TIP3    H165735   2.661   6.347  13.394 -0.2025  0.3247  0.2033
14748TIP3    H265736   2.752   6.230  13.362 -0.1753  0.3462  0.2036
14749TIP3   OH265737   6.480   5.597  17.125  0.1906  0.3551  0.3268
14749TIP3    H165738   6.448   5.683  17.151  1.6491  1.0862 -0.1660
14749TIP3    H265739   6.523   5.612  17.041  2.0089 -0.4690  1.0438
14750TIP3   OH265740   4.806   0.180  12.018  0.4457 -0.0743 -0.2346
14750TIP3    H165741   4.900   0.195  12.028  0.3001  0.5631  0.2893
14750TIP3    H265742   4.768   0.208  12.102 -0.1693 -0.7175 -0.2858
14751TIP3   OH265743   6.149   4.780   5.573 -0.0425 -0.0909  0.0045
14751TIP3    H165744   6.238   4.814   5.571 -0.6705  1.6734  0.7196
14751TIP3    H265745   6.123   4.774   5.481  1.2764 -2.0218 -0.3039
14752TIP3   OH265746   4.686   5.562   0.470  0.3463  0.1895  0.7115
14752TIP3    H165747   4.714   5.480   0.430 -0.7300 -0.2652  0.8764
14752TIP3    H265748   4.632   5.535   0.545 -0.2197  1.0433  0.6208
14753TIP3   OH265749   1.079   2.235   0.556  0.6049 -0.0456  0.2332
14753TIP3    H165750   1.146   2.167   0.564 -1.8380 -2.7639 -0.5699
14753TIP3    H265751   1.041   2.242   0.643 -0.7302 -1.5744 -0.1830
14754TIP3   OH265752   2.760   2.463   4.142  0.1141  0.0681 -0.0861
14754TIP3    H165753   2.825   2.393   4.144 -0.0008 -0.0488 -0.3980
14754TIP3    H265754   2.797   2.531   4.199  0.5577  0.0430 -0.3335
14755TIP3   OH265755   5.853   3.675  16.900  0.3667  0.2744 -0.5453
14755TIP3    H165756   5.799   3.752  16.918 -0.8333  0.4288 -3.9628
14755TIP3    H265757   5.928   3.684  16.958 -0.7635  2.8794  0.6800
14756TIP3   OH265758   2.942   5.191   1.295 -0.2000 -0.1548 -0.1300
14756TIP3    H165759   2.848   5.206   1.287  0.0216  2.2640  1.0397
14756TIP3    H265760   2.979   5.277   1.312  2.4524 -0.7879 -2.0466
14757TIP3   OH265761   0.074   3.938   3.168 -0.1667 -0.1092  0.4436
14757TIP3    H165762   0.163   3.939   3.133 -0.1561 -1.8897  0.3228
14757TIP3    H265763   0.018   3.937   3.090 -0.3470  1.7377  0.5151
14758TIP3   OH265764   2.977   6.190  13.935  0.1398  0.6200  0.0088
14758TIP3    H165765   3.017   6.131  13.872  0.9832  0.2357  0.8740
14758TIP3    H265766   2.961   6.136  14.012 -0.1862  1.2420  0.3885
14759TIP3   OH265767   5.724   4.557  11.653  0.2983 -0.3730  0.1132
14759TIP3    H165768   5.809   4.519  11.629 -1.6862 -4.9059 -0.9610
14759TIP3    H265769   5.695   4.603  11.575  0.8787 -0.6884 -0.2938
14760TIP3   OH265770   1.356   3.481  14.211  0.5286  0.0798  0.0019
14760TIP3    H165771   1.451   3.479  14.198  0.2600  1.1986 -2.8906
14760TIP3    H265772   1.326   3.395  14.181  0.4268  0.7665 -2.0306
14761TIP3   OH265773   6.145   3.684   3.982 -0.0668  0.0569 -0.2204
14761TIP3    H165774   6.088   3.677   4.059  0.3201  0.6122  0.1250
14761TIP3    H265775   6.126   3.606   3.931 -0.4365 -0.2470  0.3685
14762TIP3   OH265776   2.148   1.233   2.493  0.0332 -0.1890  0.0381
14762TIP3    H165777   2.094   1.156   2.477 -1.2562  0.7885 -0.4444
14762TIP3    H265778   2.165   1.230   2.588  1.1752 -1.7709 -0.1585
14763TIP3   OH265779   5.937   6.750  13.534  0.2955 -0.2511 -0.1262
14763TIP3    H165780   5.928   6.816  13.465 -0.4062 -0.0499  0.1418
14763TIP3    H265781   5.891   6.673  13.500 -1.0125  0.2024  0.5403
14764TIP3   OH265782   2.885   1.812  12.176 -0.1299  0.4023  0.1785
14764TIP3    H165783   2.956   1.766  12.132 -0.5246 -0.0750  0.0322
14764TIP3    H265784   2.805   1.774  12.139 -0.4938  2.5060 -1.3559
14765TIP3   OH265785   2.730   0.229   5.624  0.0729 -0.6465  0.3040
14765TIP3    H165786   2.785   0.305   5.605  0.1797 -1.3225 -2.6340
14765TIP3    H265787   2.792   0.160   5.646  0.1002 -0.3993  1.0321
14766TIP3   OH265788   0.426   0.331   3.843  0.2195  0.6724 -0.4274
14766TIP3    H165789   0.360   0.270   3.810 -1.3689  0.8750  2.0786
14766TIP3    H265790   0.509   0.290   3.822 -0.7551 -0.9914 -1.2410
14767TIP3   OH265791   3.995   6.602  13.402 -0.3021 -0.0680 -0.3187
14767TIP3    H165792   4.038   6.686  13.420  0.1843 -0.4483  0.3520
14767TIP3    H265793   4.032   6.542  13.467  0.6326 -1.2264 -1.8519
14768TIP3   OH265794   5.953   3.826  16.665  0.5356 -0.3508  0.2547
14768TIP3    H165795   5.864   3.825  16.701  0.7802 -0.6566  0.8688
14768TIP3    H265796   5.957   3.750  16.607  0.5592 -0.6373  0.6324
14769TIP3   OH265797   1.957   0.098  14.869 -0.4438  0.3794  1.2873
14769TIP3    H165798   1.968   0.192  14.853 -1.4398  0.4202  0.7921
14769TIP3    H265799   1.953   0.090  14.964  0.2142  0.7638  1.3559
14770TIP3   OH265800   5.529   4.075   4.640 -0.4572 -0.4292  0.1426
14770TIP3    H165801   5.575   4.131   4.577  0.2740 -1.2918 -0.1050
14770TIP3    H265802   5.436   4.094   4.627 -0.5382 -2.4073 -2.9855
14771TIP3   OH265803   1.593   6.825  11.604 -0.0859 -0.3520  0.2739
14771TIP3    H165804   1.593   6.833  11.508 -0.7318 -0.6840  0.2390
14771TIP3    H265805   1.530   6.891  11.633  0.7788  0.3774  0.5392
14772TIP3   OH265806   2.936   3.801   2.679  0.2262  0.1234 -0.6889
14772TIP3    H165807   2.949   3.895   2.688 -1.2739  0.2730  0.3741
14772TIP3    H265808   3.024   3.764   2.684  0.9029  1.4858 -1.7367
14773TIP3   OH265809   5.217   5.060   5.545  0.2921 -0.1784  0.7081
14773TIP3    H165810   5.309   5.048   5.568  0.5344  1.3606  0.6527
14773TIP3    H265811   5.204   5.155   5.545 -0.6554 -0.2252 -1.7588
14774TIP3   OH265812   4.043   4.345   1.083  0.0639 -0.1507 -0.5121
14774TIP3    H165813   4.137   4.357   1.069  0.2643  0.5036  1.1218
14774TIP3    H265814   4.001   4.378   1.003  1.1270  1.6219 -0.3786
14775TIP3   OH265815   6.824   3.075   6.745 -0.1294  0.4508  0.4321
14775TIP3    H165816   6.749   3.134   6.753  0.3056  1.4180 -1.8440
14775TIP3    H265817   6.900   3.133   6.742  0.3685 -0.2149 -1.1659
14776TIP3   OH265818   6.753   4.453  16.663 -0.1599  0.5998  0.3502
14776TIP3    H165819   6.658   4.463  16.654  0.1725  2.3205 -2.8280
14776TIP3    H265820   6.777   4.516  16.731 -1.1271  1.4436 -0.0614
14777TIP3   OH265821   4.068   3.288  13.631 -0.1672  0.0150  0.4884
14777TIP3    H165822   4.155   3.327  13.641  0.4458 -1.5346  1.4414
14777TIP3    H265823   4.074   3.232  13.554 -0.9416  1.4194 -0.6518
14778TIP3   OH265824   5.825   1.759   2.541 -0.2325 -0.3661 -0.0838
14778TIP3    H165825   5.846   1.741   2.449 -0.2864  0.5723 -0.2890
14778TIP3    H265826   5.775   1.682   2.569 -1.5324 -0.0129 -1.2838
14779TIP3   OH265827   6.006   5.373   3.419 -0.2009  0.6668  0.5442
14779TIP3    H165828   6.079   5.313   3.402 -1.7650 -2.0101  2.5286
14779TIP3    H265829   5.944   5.355   3.348 -0.7193 -0.1935  1.2028
14780TIP3   OH265830   1.165   0.192  11.258  0.9241  0.8090  0.1957
14780TIP3    H165831   1.256   0.222  11.262  0.6392  1.6029  1.0856
14780TIP3    H265832   1.145   0.163  11.348 -0.0223  1.6567  0.2821
14781TIP3   OH265833   6.475   3.145  15.751  0.5818 -0.4009 -0.4219
14781TIP3    H165834   6.401   3.203  15.769  1.0235 -0.1935  0.7847
14781TIP3    H265835   6.526   3.144  15.832  0.2952 -2.9171 -0.1792
14782TIP3   OH265836   6.576   4.375  11.635 -0.1867  0.3096 -0.5270
14782TIP3    H165837   6.623   4.430  11.572  0.4885  0.8273  0.4005
14782TIP3    H265838   6.621   4.291  11.632 -1.4188 -0.3400 -2.1826
14783TIP3   OH265839   3.391   3.000  16.679  0.4967 -0.0295  0.8056
14783TIP3    H165840   3.392   3.032  16.770  2.3121 -0.3327  0.9221
14783TIP3    H265841   3.373   2.907  16.688 -0.7560  0.1776  0.7225
14784TIP3   OH265842   0.458   1.750   5.285  0.3184 -0.4773 -0.0859
14784TIP3    H165843   0.417   1.836   5.297 -0.0778 -0.8445  1.4205
14784TIP3    H265844   0.521   1.743   5.357 -0.2380 -1.7658  0.3139
14785TIP3   OH265845   0.781   5.965   0.824  0.2068  0.5415 -0.1349
14785TIP3    H165846   0.745   5.957   0.912  1.6075 -0.5969  0.3607
14785TIP3    H265847   0.739   5.894   0.775  0.0995  0.6183 -0.1550
14786TIP3   OH265848   2.936   2.361  12.190  0.7320  0.2162 -0.0284
14786TIP3    H165849   2.873   2.332  12.124  2.8812 -1.6978 -1.3945
14786TIP3    H265850   2.995   2.286  12.201  2.2292  1.5702  1.8785
14787TIP3   OH265851   3.520   3.427   0.331 -0.3855 -0.1864  0.2508
14787TIP3    H165852   3.453   3.408   0.397 -1.6773 -1.2453 -1.2780
14787TIP3    H265853   3.491   3.508   0.290 -0.1000 -0.0256  0.3688
14788TIP3   OH265854   6.338   5.515   0.498  0.1071 -0.1810 -0.0253
14788TIP3    H165855   6.415   5.512   0.556  0.5176 -1.4748 -0.5925
14788TIP3    H265856   6.373   5.543   0.414 -0.0539 -0.6229 -0.2441
14789TIP3   OH265857   2.318   5.164  11.690  0.3748  0.6273 -0.7530
14789TIP3    H165858   2.250   5.231  11.681  1.0726  1.2752 -1.2385
14789TIP3    H265859   2.270   5.081  11.684 -0.6306  1.0492  0.8073
14790TIP3   OH265860   1.090   0.564   4.207  0.1257 -0.0766 -0.2360
14790TIP3    H165861   1.136   0.648   4.200  1.1493 -0.4134  1.8577
14790TIP3    H265862   1.105   0.536   4.297  1.4058 -3.4147 -1.3609
14791TIP3   OH265863   0.429   6.720  12.882  0.1720  0.3046  0.1504
14791TIP3    H165864   0.519   6.691  12.898 -0.6346 -2.6821  0.0256
14791TIP3    H265865   0.404   6.765  12.963  1.7622  1.1875  0.1789
14792TIP3   OH265866   4.961   2.704  15.377 -0.0780 -0.5242  0.3016
14792TIP3    H165867   4.927   2.615  15.368  0.2374 -0.8655  2.1313
14792TIP3    H265868   4.920   2.752  15.305 -2.1167 -1.6013  0.6577
14793TIP3   OH265869   0.375   5.398  11.501 -0.2326 -0.2606 -0.8410
14793TIP3    H165870   0.402   5.416  11.591 -0.7662 -0.9732 -0.5213
14793TIP3    H265871   0.440   5.441  11.447  0.4814 -0.3924 -0.1025
14794TIP3   OH265872   3.466   0.766   1.619  0.2072 -0.4508  0.6347
14794TIP3    H165873   3.460   0.691   1.561  1.9234 -0.9487  1.0465
14794TIP3    H265874   3.559   0.785   1.624  0.0168  0.1867  2.4455
14795TIP3   OH265875   4.719   1.467  15.505  0.0804  0.2631 -0.0947
14795TIP3    H165876   4.769   1.522  15.566  0.9206  0.6355 -1.0938
14795TIP3    H265877   4.782   1.402  15.475 -0.7103 -0.8226  0.5103
14796TIP3   OH265878   0.067   1.026   0.009 -0.3492 -0.2114 -0.5631
14796TIP3    H165879   0.155   0.987   0.005  0.3842  1.3693 -0.6059
14796TIP3    H265880   0.029   0.991   0.090  1.5457  1.4382  1.1653
14797TIP3   OH265881   0.496   5.236   2.322 -0.0999  0.4769  0.6055
14797TIP3    H165882   0.543   5.155   2.342  1.0793  0.7791 -0.7714
14797TIP3    H265883   0.552   5.305   2.357 -1.0609  0.7328  1.7037
14798TIP3   OH265884   1.538   3.483  15.066  0.2032 -0.5464  0.1480
14798TIP3    H165885   1.458   3.464  15.017  0.9242 -0.6268 -1.0404
14798TIP3    H265886   1.585   3.400  15.070 -0.6381 -0.9769  2.5598
14799TIP3   OH265887   2.470   3.297  16.633  0.5188  0.0070 -0.2447
14799TIP3    H165888   2.512   3.384  16.634 -0.3633  0.4379  0.5255
14799TIP3    H265889   2.536   3.240  16.594  0.3449  1.4007 -2.8085
14800TIP3   OH265890   4.066   3.354  16.737 -0.2662  0.0605 -0.6090
14800TIP3    H165891   4.003   3.297  16.694 -1.1149  3.8489 -5.1792
14800TIP3    H265892   4.149   3.335  16.694  0.4205 -0.5877  0.9336
14801TIP3   OH265893   2.333   4.019  16.177  0.4476  0.2638 -0.2642
14801TIP3    H165894   2.337   4.042  16.084 -0.2177  2.8276  0.2643
14801TIP3    H265895   2.261   4.072  16.211 -0.6862 -2.1504  1.3644
14802TIP3   OH265896   2.479   3.217  11.333  0.2462  0.0172 -0.4639
14802TIP3    H165897   2.480   3.310  11.311 -0.7832 -0.0677 -0.9085
14802TIP3    H265898   2.393   3.186  11.307 -0.2950 -0.5646  1.7607
14803TIP3   OH265899   5.548   4.904   0.640 -0.2610  0.2082  0.3906
14803TIP3    H165900   5.538   4.996   0.664  0.2686  0.2827  0.3339
14803TIP3    H265901   5.632   4.900   0.595 -0.5365 -0.2082 -0.0937
14804TIP3   OH265902   5.496   6.133  13.164  0.8941 -0.2471  0.2280
14804TIP3    H165903   5.488   6.163  13.254  0.5107  2.4078 -0.5942
14804TIP3    H265904   5.590   6.120  13.152  0.8589 -1.6622  1.2700
14805TIP3   OH265905   5.611   5.502   5.757  0.2715 -0.4643 -0.6828
14805TIP3    H165906   5.620   5.563   5.830 -0.9935  0.5624 -1.3456
14805TIP3    H265907   5.584   5.420   5.798 -0.4258  0.0998  0.0259
14806TIP3   OH265908   3.289   4.752   4.309 -0.4218  0.1852 -0.1226
14806TIP3    H165909   3.239   4.716   4.382 -0.5258  0.7521  0.0949
14806TIP3    H265910   3.378   4.761   4.342 -0.3462 -0.0987 -0.2536
14807TIP3   OH265911   5.894   4.215   5.811 -0.8297  0.1133 -0.0981
14807TIP3    H165912   5.888   4.134   5.861 -0.7751 -0.4718 -1.0118
14807TIP3    H265913   5.923   4.187   5.724 -1.1449  1.0769 -0.5263
14808TIP3   OH265914   6.119   3.934  13.968 -0.0867  0.1795  0.4021
14808TIP3    H165915   6.140   4.020  13.932  0.4596 -0.5322 -1.0604
14808TIP3    H265916   6.158   3.934  14.056  0.1586  1.2939  0.3039
14809TIP3   OH265917   1.894   0.361  16.002 -0.0726 -0.0200 -0.2958
14809TIP3    H165918   1.915   0.450  16.028  0.8917 -0.2668 -0.1826
14809TIP3    H265919   1.905   0.309  16.083 -2.3655  0.0064  0.0786
14810TIP3   OH265920   2.333   0.558  14.297 -0.3501 -0.3022  0.5561
14810TIP3    H165921   2.306   0.542  14.207 -0.4191 -0.1461  0.5485
14810TIP3    H265922   2.280   0.633  14.325 -1.0182 -0.9601  1.0477
14811TIP3   OH265923   4.766   4.265  11.503  0.6104  0.1806  0.1362
14811TIP3    H165924   4.781   4.334  11.438 -1.2816 -0.0060 -0.5629
14811TIP3    H265925   4.848   4.260  11.552  0.7072  3.2468  0.5144
14812TIP3   OH265926   2.234   3.035  12.177  0.0638  0.9928 -0.0341
14812TIP3    H165927   2.301   3.085  12.223  0.2023  0.4251  0.3803
14812TIP3    H265928   2.264   3.034  12.086  0.4160  1.0719  0.0799
14813TIP3   OH265929   5.211   5.503   4.057 -0.3082 -0.0477  0.2172
14813TIP3    H165930   5.274   5.575   4.057 -2.2345  1.8548  2.9440
14813TIP3    H265931   5.235   5.450   4.133 -2.2424  1.0946  1.7150
14814TIP3   OH265932   3.594   0.847  14.922  0.2196  0.2019 -0.5274
14814TIP3    H165933   3.549   0.845  14.837 -0.2688  1.5519 -0.3369
14814TIP3    H265934   3.604   0.941  14.940 -1.4675  0.0076  1.8272
14815TIP3   OH265935   6.604   4.044   3.104 -0.0475  0.3980 -0.2650
14815TIP3    H165936   6.647   4.100   3.168  0.7838  0.4297 -0.8400
14815TIP3    H265937   6.519   4.022   3.144 -1.0252  3.1750 -0.6111
14816TIP3   OH265938   5.675   1.794   4.140  0.4687  0.4020  0.7406
14816TIP3    H165939   5.753   1.836   4.105  0.5841 -1.4207 -1.4128
14816TIP3    H265940   5.604   1.822   4.081  0.3493 -1.4268 -0.0445
14817TIP3   OH265941   6.401   3.628  11.812 -0.5293 -0.3082 -0.4813
14817TIP3    H165942   6.425   3.568  11.741 -0.6872 -1.8546  0.7248
14817TIP3    H265943   6.395   3.572  11.889  0.0405  1.4031  0.8481
14818TIP3   OH265944   1.791   4.801  14.876  0.7731 -0.1376 -0.4438
14818TIP3    H165945   1.768   4.784  14.967 -1.0534  2.3909 -0.3281
14818TIP3    H265946   1.783   4.716  14.833  0.5219 -1.1573  1.5076
14819TIP3   OH265947   1.822   5.066   5.372 -0.1599  0.5309  0.0017
14819TIP3    H165948   1.883   5.030   5.436  0.3880 -1.3142 -1.4805
14819TIP3    H265949   1.746   5.092   5.425  0.8802  0.5524  1.5735
14820TIP3   OH265950   4.598   6.665   3.660 -0.3415  0.0875 -0.5705
14820TIP3    H165951   4.534   6.685   3.728 -1.3515  0.2287 -1.5349
14820TIP3    H265952   4.546   6.636   3.585  0.7057  0.3802 -1.4431
14821TIP3   OH265953   4.642   4.908   2.671  0.5860 -0.5208  0.2321
14821TIP3    H165954   4.664   4.978   2.734  0.0863  0.6515 -0.8411
14821TIP3    H265955   4.555   4.879   2.698 -0.3881  1.1771 -0.8639
14822TIP3   OH265956   0.173   1.248   5.652  0.8762 -0.0563  0.1102
14822TIP3    H165957   0.227   1.177   5.618 -0.5876 -1.7316  1.0922
14822TIP3    H265958   0.100   1.204   5.695 -1.5137  2.0671 -1.4769
14823TIP3   OH265959   4.681   4.201  17.190  0.0280 -0.0977 -0.1983
14823TIP3    H165960   4.741   4.130  17.167  0.5875  1.0358 -2.5257
14823TIP3    H265961   4.730   4.255  17.252  0.7333 -0.1536 -0.6932
14824TIP3   OH265962   4.230   2.398  14.451  0.4682  0.0256 -0.4404
14824TIP3    H165963   4.182   2.322  14.417  0.8802 -0.1622 -0.6101
14824TIP3    H265964   4.224   2.464  14.382 -0.0847  0.2335 -0.1996
14825TIP3   OH265965   4.362   4.642  16.544  1.0240  0.3864  0.2169
14825TIP3    H165966   4.270   4.653  16.566  0.9752  0.0994  0.1595
14825TIP3    H265967   4.381   4.713  16.483  0.9415  0.6784  0.5273
14826TIP3   OH265968   1.302   5.492   6.246 -0.0907  0.3043 -0.0005
14826TIP3    H165969   1.226   5.508   6.302  1.5777  1.1332  2.1511
14826TIP3    H265970   1.338   5.409   6.277  0.2701  0.2496 -0.5556
14827TIP3   OH265971   3.470   4.336   4.982  0.6469 -0.3135 -0.6956
14827TIP3    H165972   3.479   4.371   5.071 -0.6954 -0.1266 -0.6176
14827TIP3    H265973   3.440   4.409   4.930 -0.7708 -0.9579 -0.8268
14828TIP3   OH265974   4.922   5.812   4.113 -0.8059 -0.8674 -0.7706
14828TIP3    H165975   4.919   5.722   4.145 -1.2900 -0.6136 -0.0679
14828TIP3    H265976   4.858   5.814   4.041 -2.3698 -0.6000  0.5668
14829TIP3   OH265977   4.232   5.410  11.928  0.3638 -0.2841  0.5164
14829TIP3    H165978   4.299   5.375  11.868  0.1629 -0.6455  0.4956
14829TIP3    H265979   4.157   5.429  11.872  0.1942 -0.5710  0.6419
14830TIP3   OH265980   0.919   0.411   3.080  0.0928 -0.0316 -0.3031
14830TIP3    H165981   1.015   0.411   3.086  0.2787  1.0817 -2.2253
14830TIP3    H265982   0.895   0.503   3.089 -1.0647 -0.5398  2.5840
14831TIP3   OH265983   5.636   2.414   3.653  0.1158 -0.2751 -0.2018
14831TIP3    H165984   5.609   2.394   3.563  0.0947 -1.7346  0.1048
14831TIP3    H265985   5.578   2.362   3.708  1.7791 -1.4206  0.5562
14832TIP3   OH265986   2.261   6.460  16.999  0.2342 -0.1961 -0.2752
14832TIP3    H165987   2.215   6.378  17.016  2.5214 -1.2268  1.3117
14832TIP3    H265988   2.277   6.460  16.905 -1.0906 -0.7925 -0.5282
14833TIP3   OH265989   4.427   1.815  13.080 -0.5255  0.3377 -0.2846
14833TIP3    H165990   4.459   1.828  13.169 -0.1133 -4.0271  0.4340
14833TIP3    H265991   4.498   1.846  13.023  0.6301  0.1548  1.0207
14834TIP3   OH265992   4.663   3.098   6.471  0.3809  0.5858  0.2732
14834TIP3    H165993   4.581   3.063   6.505 -1.2238  2.8139 -1.0639
14834TIP3    H265994   4.706   3.023   6.429 -0.8943 -0.6334  1.0882
14835TIP3   OH265995   4.271   6.649   5.507  0.1043 -0.3348 -0.1732
14835TIP3    H165996   4.226   6.732   5.521  0.4401  0.2324 -2.1815
14835TIP3    H265997   4.321   6.635   5.588  0.3674  1.6116  0.0370
14836TIP3   OH265998   6.581   3.859   0.846  0.5626  0.1096 -0.0636
14836TIP3    H165999   6.555   3.826   0.760  1.1608 -0.6573  0.0404
14836TIP3    H266000   6.619   3.783   0.891  1.3769  0.7894  0.4242
14837TIP3   OH266001   3.268   5.134  11.000 -0.5975  0.8017 -0.5232
14837TIP3    H166002   3.340   5.070  11.004 -0.5790  0.8506  0.0429
14837TIP3    H266003   3.192   5.083  10.972 -1.3271 -0.1902  2.7854
14838TIP3   OH266004   4.162   4.983   0.655  0.1499 -0.0248 -0.2437
14838TIP3    H166005   4.238   5.037   0.632 -0.5723  1.4337  0.6711
14838TIP3    H266006   4.166   4.975   0.750 -0.4141 -0.6317 -0.2655
14839TIP3   OH266007   4.862   4.317   3.368 -0.2882  0.2865 -0.0958
14839TIP3    H166008   4.907   4.279   3.293 -1.7642 -0.3295 -0.7134
14839TIP3    H266009   4.930   4.365   3.415  1.0859 -0.9330 -0.7430
14840TIP3   OH266010   0.146   0.326   5.316 -0.2097  0.0116 -0.0903
14840TIP3    H166011   0.107   0.277   5.243 -0.5121 -0.0332  0.1000
14840TIP3    H266012   0.240   0.326   5.297 -0.1070 -1.2901  0.2845
14841TIP3   OH266013   4.205   0.750  10.862 -0.3727 -0.3491 -0.1426
14841TIP3    H166014   4.295   0.750  10.831 -0.2248  2.8890 -0.0306
14841TIP3    H266015   4.197   0.828  10.916 -2.7296 -1.6498  1.5990
14842TIP3   OH266016   2.393   0.957  15.187 -0.7488  0.3621  0.0215
14842TIP3    H166017   2.316   1.012  15.196 -0.4941  0.5745  1.0506
14842TIP3    H266018   2.459   0.998  15.243  0.4021  0.6833 -1.5003
14843TIP3   OH266019   3.592   6.154   2.203 -0.2470 -0.5784  0.5740
14843TIP3    H166020   3.595   6.232   2.148  0.8048 -0.6072  0.5647
14843TIP3    H266021   3.506   6.157   2.244 -0.1496  0.7058  0.7292
14844TIP3   OH266022   3.376   3.303   4.169  0.6274 -0.2861  0.5068
14844TIP3    H166023   3.335   3.219   4.190  3.4099 -2.5981 -2.1953
14844TIP3    H266024   3.466   3.293   4.200  1.3331  1.2112 -0.9150
14845TIP3   OH266025   2.440   1.959  15.984 -0.0747  0.0004  0.4338
14845TIP3    H166026   2.531   1.952  16.015  0.0093 -1.6937 -0.0860
14845TIP3    H266027   2.445   1.934  15.891 -0.7891  1.8423 -0.1293
14846TIP3   OH266028   6.799   0.625  16.275  0.0110 -0.0303 -0.0146
14846TIP3    H166029   6.791   0.719  16.286  0.7125  0.2618 -1.7900
14846TIP3    H266030   6.892   0.607  16.286 -0.2223 -0.6719  1.1818
14847TIP3   OH266031   2.965   6.335  11.457 -0.1529 -0.0840 -0.4879
14847TIP3    H166032   3.028   6.263  11.455  1.6385  1.3345  1.0615
14847TIP3    H266033   2.990   6.387  11.534 -1.0166  2.5016 -1.8330
14848TIP3   OH266034   0.208   5.897   5.464 -0.3345  0.1008 -0.0371
14848TIP3    H166035   0.121   5.875   5.500 -0.6170  2.2588  0.7329
14848TIP3    H266036   0.263   5.823   5.490 -1.3987 -0.1717  1.6112
14849TIP3   OH266037   6.655   2.982   6.544  0.3053  0.1093 -0.5156
14849TIP3    H166038   6.678   3.036   6.468  1.3648 -1.3822 -1.3206
14849TIP3    H266039   6.703   3.021   6.617 -1.0390  1.8083 -0.4631
14850TIP3   OH266040   4.409   5.123   6.200 -0.5457  0.1982 -0.1955
14850TIP3    H166041   4.406   5.214   6.229 -2.8238 -0.0706  0.6277
14850TIP3    H266042   4.330   5.083   6.238  0.2313 -2.0435 -0.7903
14851TIP3   OH266043   6.316   3.319   1.850 -0.3713 -0.1711 -0.2862
14851TIP3    H166044   6.249   3.361   1.796  0.0169 -0.1665 -0.7760
14851TIP3    H266045   6.394   3.319   1.794  0.2867  0.6650  0.6103
14852TIP3   OH266046   6.114   0.700   5.634 -0.2161 -0.1232 -0.1552
14852TIP3    H166047   6.176   0.772   5.645 -1.1300  0.6239  0.3090
14852TIP3    H266048   6.032   0.743   5.611 -0.7220 -1.0471 -0.1386
14853TIP3   OH266049   2.355   3.365  10.869  0.6981 -0.3136  0.3217
14853TIP3    H166050   2.402   3.288  10.837  1.5563 -0.3284  1.5777
14853TIP3    H266051   2.297   3.332  10.937 -0.1936 -0.0844 -0.3011
14854TIP3   OH266052   5.085   5.555  13.516  0.4062  0.2488  0.7861
14854TIP3    H166053   5.103   5.632  13.570  0.8357  0.6958  0.0374
14854TIP3    H266054   5.147   5.489  13.548  0.0488  0.2143  1.4206
14855TIP3   OH266055   2.730   0.769   4.785 -0.2059  0.2878 -0.5811
14855TIP3    H166056   2.648   0.737   4.823 -0.0227 -0.4492 -0.7747
14855TIP3    H266057   2.725   0.864   4.793 -1.6477  0.3516 -1.7124
14856TIP3   OH266058   4.909   4.282  11.896 -0.0945 -0.3423  0.1356
14856TIP3    H166059   4.904   4.243  11.809 -1.4873 -0.4449  0.2328
14856TIP3    H266060   4.845   4.233  11.948 -1.7653  1.8516  0.3273
14857TIP3   OH266061   3.956   1.338   5.695 -0.2084  0.2083 -0.7525
14857TIP3    H166062   4.001   1.406   5.745 -0.0888  0.5909 -1.3796
14857TIP3    H266063   4.026   1.278   5.669 -0.3938 -0.5217  0.3456
14858TIP3   OH266064   4.195   3.857  16.508 -0.2728  0.3980  0.4692
14858TIP3    H166065   4.186   3.866  16.603 -0.9748 -1.0601  0.5633
14858TIP3    H266066   4.112   3.889  16.473 -0.8427 -0.9551  0.5071
14859TIP3   OH266067   4.925   2.500  10.832  0.4125  0.7155 -0.0750
14859TIP3    H166068   4.950   2.414  10.799  1.4682  0.7889  0.4882
14859TIP3    H266069   4.999   2.528  10.887 -0.9970  0.8464  1.8931
14860TIP3   OH266070   0.302   5.649  15.559 -0.4288 -0.0031 -0.1230
14860TIP3    H166071   0.340   5.584  15.499 -0.9111  0.1730 -0.6200
14860TIP3    H266072   0.269   5.718  15.502  1.0034  1.2100  0.4352
14861TIP3   OH266073   3.878   3.285  15.768  0.0794 -0.1249  0.8642
14861TIP3    H166074   3.832   3.203  15.749  0.1867  0.2172 -1.0871
14861TIP3    H266075   3.809   3.352  15.770  0.2701  0.1297 -0.3420
14862TIP3   OH266076   0.557   1.522   5.079 -0.1426 -0.4112 -0.2638
14862TIP3    H166077   0.484   1.562   5.128 -0.5523  0.5253 -1.5944
14862TIP3    H266078   0.515   1.482   5.003  0.5731 -1.2091 -0.2446
14863TIP3   OH266079   6.149   2.700   0.364 -0.3436  0.2424  0.5761
14863TIP3    H166080   6.206   2.760   0.316 -0.3880 -0.0063  0.2064
14863TIP3    H266081   6.132   2.745   0.447  1.0488 -0.0278  1.0417
14864TIP3   OH266082   0.677   5.598   3.711 -0.2816  0.0506  0.1718
14864TIP3    H166083   0.645   5.510   3.689  0.1514 -0.9321  3.0001
14864TIP3    H266084   0.748   5.582   3.773 -0.6854  2.4076  1.3251
14865TIP3   OH266085   1.926   3.616   3.873  0.0806 -0.4140 -0.5694
14865TIP3    H166086   1.892   3.649   3.790  1.4647 -2.1876 -1.9365
14865TIP3    H266087   1.924   3.521   3.863  2.1470 -0.6414  0.6301
14866TIP3   OH266088   0.512   1.603   3.335 -0.0921 -0.3238 -0.0127
14866TIP3    H166089   0.508   1.547   3.412  0.7356  1.5076  1.4714
14866TIP3    H266090   0.546   1.687   3.368  1.2484  0.2531 -2.5307
14867TIP3   OH266091   5.219   2.674  11.999  0.2433  0.5478 -0.7332
14867TIP3    H166092   5.133   2.710  11.978 -1.2109 -3.2024 -2.0886
14867TIP3    H266093   5.272   2.688  11.920  0.1721  0.9271 -0.7148
14868TIP3   OH266094   4.598   4.108  16.094  0.2239  0.1714  0.0828
14868TIP3    H166095   4.666   4.079  16.155  0.9284  1.0663 -0.2520
14868TIP3    H266096   4.629   4.079  16.008 -0.3321 -0.3229  0.0480
14869TIP3   OH266097   1.518   0.026  17.147 -0.5245 -0.2061 -0.3385
14869TIP3    H166098   1.577   0.040  17.074  1.9532 -1.9479  1.1580
14869TIP3    H266099   1.504   0.113  17.185 -2.4445  0.8408 -3.1381
14870TIP3   OH266100   1.436   5.779  12.483  0.7721 -0.1217  0.6420
14870TIP3    H166101   1.360   5.822  12.522  0.0509 -1.4556  0.7629
14870TIP3    H266102   1.494   5.762  12.558  0.7908  0.1012  0.6788
14871TIP3   OH266103   5.167   1.526   5.325 -0.0688  0.2225 -0.7165
14871TIP3    H166104   5.162   1.605   5.272 -0.7463 -0.1063 -1.1606
14871TIP3    H266105   5.241   1.540   5.384 -0.4009  1.3416 -0.5473
14872TIP3   OH266106   0.043   5.830  13.495 -0.2620 -0.4135 -0.0566
14872TIP3    H166107   0.061   5.848  13.587  0.9155 -3.4559  0.4127
14872TIP3    H266108   0.123   5.857  13.449  0.2321 -1.4116  0.2025
14873TIP3   OH266109   6.107   6.441   5.312  0.1854  0.1314  0.3089
14873TIP3    H166110   6.065   6.523   5.338 -0.6665 -0.8498  2.2137
14873TIP3    H266111   6.199   6.453   5.333  0.0236  0.5130  0.7960
14874TIP3   OH266112   0.249   3.661   2.605  0.5583 -0.0681  0.0784
14874TIP3    H166113   0.285   3.707   2.680  0.8628 -0.3430  0.0987
14874TIP3    H266114   0.205   3.730   2.554 -0.2310  0.0146  0.8453
14875TIP3   OH266115   4.337   5.240  13.788 -0.2075 -0.2298 -0.3087
14875TIP3    H166116   4.415   5.229  13.732 -0.3785  0.7435 -0.7608
14875TIP3    H266117   4.298   5.153  13.792 -1.4447  0.0294 -3.5944
14876TIP3   OH266118   6.780   4.525  11.273  0.0324 -0.0154 -0.0251
14876TIP3    H166119   6.831   4.597  11.311  1.9722 -0.9217 -0.7541
14876TIP3    H266120   6.699   4.523  11.324  1.0805  0.9675  1.7860
14877TIP3   OH266121   5.668   0.074  17.221 -0.3671 -0.0106 -0.0736
14877TIP3    H166122   5.612   0.040  17.290  2.2500  0.3639  2.4139
14877TIP3    H266123   5.737   0.009  17.211  1.4941  1.7286  0.6212
14878TIP3   OH266124   1.944   6.731   2.074 -0.6319 -0.1827  0.0429
14878TIP3    H166125   2.011   6.781   2.120  0.4551 -2.4247  1.0904
14878TIP3    H266126   1.876   6.795   2.053  1.2433  1.9394  0.0482
14879TIP3   OH266127   6.023   2.211  14.180  0.3715 -0.4893  0.2798
14879TIP3    H166128   5.986   2.152  14.114 -1.1877 -0.4215  1.0582
14879TIP3    H266129   6.093   2.258  14.134 -0.3269 -0.8273 -1.1670
14880TIP3   OH266130   5.011   6.026   3.774 -0.5085  0.0526  0.3559
14880TIP3    H166131   5.004   6.119   3.795  1.3640  0.0960  1.0285
14880TIP3    H266132   5.086   6.020   3.715  2.1579 -1.3580  3.5504
14881TIP3   OH266133   2.222   3.030   2.343  0.8687  0.1503  0.1905
14881TIP3    H166134   2.249   3.118   2.372 -0.2580  0.8514 -0.7905
14881TIP3    H266135   2.128   3.036   2.333  0.9764 -0.6352 -1.6593
14882TIP3   OH266136   6.515   0.420  16.437  0.0435  0.4919  0.0601
14882TIP3    H166137   6.461   0.348  16.472 -0.8184  1.7375  1.4420
14882TIP3    H266138   6.604   0.397  16.463 -0.4150  0.6858  1.9952
14883TIP3   OH266139   3.234   2.698   6.395 -0.0779 -0.3037  0.1958
14883TIP3    H166140   3.303   2.669   6.335  0.9768  0.6157  0.9271
14883TIP3    H266141   3.281   2.721   6.475 -1.1908  0.7216  0.5689
14884TIP3   OH266142   0.247   0.535  13.691 -0.0559 -0.4458 -0.1978
14884TIP3    H166143   0.161   0.502  13.664 -0.5282 -0.3967  1.1664
14884TIP3    H266144   0.308   0.465  13.668 -0.4974 -0.6267 -0.8648
14885TIP3   OH266145   3.458   6.583  16.466 -0.1948  0.0547 -0.5113
14885TIP3    H166146   3.441   6.558  16.557  2.2671  0.0526  0.0237
14885TIP3    H266147   3.386   6.543  16.417 -0.0996 -2.3606  1.1206
14886TIP3   OH266148   5.171   4.190   3.620  0.3288  0.1197 -0.1073
14886TIP3    H166149   5.143   4.279   3.599  0.1378  0.9828  3.2088
14886TIP3    H266150   5.145   4.178   3.712  0.7547 -3.2153 -0.3016
14887TIP3   OH266151   6.742   0.103  11.582  0.3192 -0.2667  0.1796
14887TIP3    H166152   6.781   0.102  11.494 -0.1296 -0.4193 -0.0195
14887TIP3    H266153   6.667   0.044  11.576 -0.2478  0.4190  0.4275
14888TIP3   OH266154   5.075   0.495  17.145 -0.2712 -0.1597 -0.3862
14888TIP3    H166155   5.167   0.495  17.120  0.5687 -2.0301  2.2769
14888TIP3    H266156   5.039   0.415  17.107 -0.1444 -0.6605  0.5140
14889TIP3   OH266157   3.005   3.666   1.488 -0.1810 -0.2774 -0.2197
14889TIP3    H166158   2.911   3.682   1.495 -0.6441 -2.1972 -1.1842
14889TIP3    H266159   3.022   3.665   1.393  0.4358 -1.6065 -0.1253
14890TIP3   OH266160   0.360   2.114  11.390  0.3961  0.4542 -0.4543
14890TIP3    H166161   0.402   2.094  11.307 -0.6188  1.4714 -1.2593
14890TIP3    H266162   0.268   2.092  11.376  0.2121  0.6269  0.4069
14891TIP3   OH266163   6.729   6.519  12.465  0.0891 -0.2739  0.0978
14891TIP3    H166164   6.822   6.540  12.459  0.1425  0.4803  2.6794
14891TIP3    H266165   6.726   6.435  12.511 -0.4905 -1.6023 -2.1894
14892TIP3   OH266166   4.269   2.164  14.954  0.1861 -0.5717 -0.2343
14892TIP3    H166167   4.226   2.085  14.923 -1.0753  0.2650 -0.6750
14892TIP3    H266168   4.255   2.228  14.885  1.9095 -0.1703 -0.2619
14893TIP3   OH266169   5.594   5.193   0.455 -0.1447  0.3015 -0.2414
14893TIP3    H166170   5.634   5.280   0.456  0.6500 -0.0599  0.1847
14893TIP3    H266171   5.564   5.181   0.364  1.1460  0.3917 -0.6943
14894TIP3   OH266172   3.565   2.168  11.440 -0.2723 -0.1173  0.4460
14894TIP3    H166173   3.477   2.203  11.453  0.2676  2.2123 -1.4849
14894TIP3    H266174   3.623   2.231  11.483  0.6086 -0.0653 -0.7732
14895TIP3   OH266175   4.461   0.298   1.041 -0.2186  0.0569  0.8002
14895TIP3    H166176   4.464   0.221   1.099  1.6755  0.4693  1.3314
14895TIP3    H266177   4.404   0.272   0.969  1.2876 -2.3239  0.3589
14896TIP3   OH266178   0.440   3.436   1.393  0.3844  0.4123 -0.3928
14896TIP3    H166179   0.464   3.379   1.320 -1.0016  1.3621 -1.6264
14896TIP3    H266180   0.518   3.437   1.449  1.1364 -1.0806 -1.3593
14897TIP3   OH266181   5.072   1.012  12.649 -0.2062  0.2950 -0.6905
14897TIP3    H166182   5.138   1.042  12.711  0.7393  1.6017 -2.2507
14897TIP3    H266183   4.992   1.055  12.676 -0.0818 -0.0974  0.3211
14898TIP3   OH266184   3.679   1.334  12.055 -0.1259 -0.0289  0.3819
14898TIP3    H166185   3.624   1.285  11.994  2.5126 -1.0355 -1.4155
14898TIP3    H266186   3.720   1.266  12.110  1.4507  0.3567 -0.2610
14899TIP3   OH266187   1.623   4.618   3.023 -0.1579 -0.3272 -0.5195
14899TIP3    H166188   1.600   4.709   3.042  0.2549 -0.1840 -0.7024
14899TIP3    H266189   1.650   4.582   3.108 -0.7108 -0.3948 -0.3713
14900TIP3   OH266190   4.554   5.765   2.493 -0.0739  0.0356 -0.1742
14900TIP3    H166191   4.573   5.684   2.540 -0.3980  0.3734  0.5581
14900TIP3    H266192   4.504   5.817   2.555 -1.6418 -0.0203 -1.3185
14901TIP3   OH266193   0.503   6.169   1.592 -0.6466  0.2995 -0.4755
14901TIP3    H166194   0.594   6.156   1.620 -0.5699 -0.0624 -0.8792
14901TIP3    H266195   0.460   6.086   1.612 -0.8528  0.4189 -0.4250
14902TIP3   OH266196   3.379   2.761   3.800 -0.2292 -0.3974 -0.3614
14902TIP3    H166197   3.466   2.801   3.811 -0.6903  0.2136  1.4636
14902TIP3    H266198   3.324   2.833   3.770 -1.0637  0.4913  2.9400
14903TIP3   OH266199   1.082   0.281   5.022 -0.5788  0.6459 -0.2972
14903TIP3    H166200   1.174   0.278   5.046 -0.5468  0.3720 -0.4409
14903TIP3    H266201   1.037   0.315   5.099 -0.4319  0.1829 -0.0062
14904TIP3   OH266202   3.403   4.014  17.068 -0.5790  0.3418  0.3255
14904TIP3    H166203   3.336   3.960  17.026  0.3907  0.5683 -1.6213
14904TIP3    H266204   3.396   4.099  17.026 -0.5345  1.0647  1.7085
14905TIP3   OH266205   4.059   4.267  12.340  0.2091  0.4289 -0.0678
14905TIP3    H166206   4.072   4.174  12.359  1.6157  0.1629 -2.0540
14905TIP3    H266207   3.975   4.270  12.293  0.4193  0.0701 -0.4804
14906TIP3   OH266208   4.230   6.180   5.086  0.1083  0.0347 -0.1561
14906TIP3    H166209   4.244   6.274   5.075  0.6188 -0.1627 -1.3900
14906TIP3    H266210   4.215   6.169   5.179  0.6946  1.2607  0.1095
14907TIP3   OH266211   4.347   0.328  17.195 -0.1607  0.3143  0.3267
14907TIP3    H166212   4.437   0.347  17.224  0.5042 -0.2710 -1.2383
14907TIP3    H266213   4.357   0.298  17.105 -1.9427  0.1660  0.1473
14908TIP3   OH266214   6.215   2.057   1.950 -0.3233  0.1954 -0.5529
14908TIP3    H166215   6.256   1.974   1.923  0.2415 -0.2548  1.5563
14908TIP3    H266216   6.165   2.035   2.028 -0.0783  1.8631  0.1054
14909TIP3   OH266217   0.215   4.064  16.125 -0.1055  0.1809  0.2393
14909TIP3    H166218   0.209   4.141  16.182  0.8699  0.8696 -0.5478
14909TIP3    H266219   0.224   4.101  16.037  0.4558 -0.8275 -0.1400
14910TIP3   OH266220   1.599   6.747  13.416 -0.2611 -0.2459 -0.2960
14910TIP3    H166221   1.507   6.774  13.415  0.0296  0.9638  1.2368
14910TIP3    H266222   1.613   6.704  13.332 -1.5369  1.8889 -1.6807
14911TIP3   OH266223   3.346   4.228  16.369 -0.3056  0.3221  0.4546
14911TIP3    H166224   3.402   4.285  16.422 -0.5463  1.1797 -0.1981
14911TIP3    H266225   3.291   4.288  16.318 -0.6112 -0.4887 -0.1967
14912TIP3   OH266226   1.520   6.417   0.250 -0.1892  0.4408  0.0986
14912TIP3    H166227   1.449   6.464   0.295  1.2538  1.8699  1.0156
14912TIP3    H266228   1.596   6.429   0.307  1.5386  1.5905 -2.2751
14913TIP3   OH266229   2.969   0.411  13.311 -0.2481  0.0745  0.1003
14913TIP3    H166230   2.987   0.326  13.350 -0.0876 -0.0364 -0.2149
14913TIP3    H266231   2.930   0.462  13.382  0.1655 -0.0818  0.4437
14914TIP3   OH266232   2.476   4.316   3.281  0.1961 -0.1113  0.1996
14914TIP3    H166233   2.555   4.367   3.262  1.3116 -1.4233  1.0542
14914TIP3    H266234   2.425   4.318   3.200 -0.5315  3.4748  0.5988
14915TIP3   OH266235   4.013   4.062   0.936  0.0636 -0.3828  0.1343
14915TIP3    H166236   3.955   4.100   1.003  0.0224 -0.2733  0.0368
14915TIP3    H266237   4.094   4.113   0.943 -0.3894  0.4893 -0.7699
14916TIP3   OH266238   2.972   5.427  15.278  0.2133  0.0801 -0.0416
14916TIP3    H166239   2.975   5.483  15.200 -1.1049  2.4689  1.5022
14916TIP3    H266240   3.064   5.411  15.300  0.6068 -0.2821 -1.7904
14917TIP3   OH266241   2.242   3.998  11.871 -0.2441  0.2369  0.3568
14917TIP3    H166242   2.227   4.028  11.781  1.4831  1.6502  0.5057
14917TIP3    H266243   2.319   3.941  11.866 -0.7924 -0.5732  0.7974
14918TIP3   OH266244   6.655   2.271   2.081  0.1313  0.4213  0.0077
14918TIP3    H166245   6.646   2.281   1.986 -1.0122 -1.8782 -0.2069
14918TIP3    H266246   6.568   2.293   2.115  0.5540  1.2876  0.5426
14919TIP3   OH266247   0.269   3.173  14.778 -0.6005 -0.1896 -0.0929
14919TIP3    H166248   0.327   3.236  14.820 -1.1829 -0.3598  1.0187
14919TIP3    H266249   0.230   3.220  14.705  0.5816  0.0577 -0.5903
14920TIP3   OH266250   0.447   0.337   4.160  0.3643  0.6210 -0.3965
14920TIP3    H166251   0.513   0.288   4.209 -1.2302 -0.3725  0.8801
14920TIP3    H266252   0.446   0.297   4.073 -0.0145 -0.8035  0.2348
14921TIP3   OH266253   0.665   4.789  14.229  0.1816  0.4123  0.3476
14921TIP3    H166254   0.724   4.762  14.159  0.1050  0.9937  0.0542
14921TIP3    H266255   0.680   4.883  14.238 -0.1886  0.4359  0.7555
14922TIP3   OH266256   3.134   4.365  16.246 -0.2235  0.3144 -0.1489
14922TIP3    H166257   3.159   4.457  16.244  1.3706 -0.0568 -2.5718
14922TIP3    H266258   3.133   4.339  16.153  0.0408 -2.2520  0.4904
14923TIP3   OH266259   3.569   5.621   0.458  0.0083  0.2160  0.4885
14923TIP3    H166260   3.560   5.668   0.376  1.0945 -0.3123  0.0500
14923TIP3    H266261   3.539   5.683   0.525 -2.9346 -0.0615 -0.4283
14924TIP3   OH266262   3.482   3.446   5.821  0.5611 -0.3600  0.4485
14924TIP3    H166263   3.406   3.468   5.873  0.5932 -0.8062  0.6896
14924TIP3    H266264   3.557   3.459   5.880  0.6765  0.0870  0.2105
14925TIP3   OH266265   6.733   0.193  16.164 -0.6645  0.3412  0.5060
14925TIP3    H166266   6.783   0.234  16.235 -0.3425  1.4059 -0.3288
14925TIP3    H266267   6.691   0.118  16.206  1.1938 -0.2935  1.3617
14926TIP3   OH266268   3.435   6.362  15.946 -0.1926  0.7553  0.2340
14926TIP3    H166269   3.394   6.429  15.890 -0.5942  1.1022  0.9251
14926TIP3    H266270   3.364   6.333  16.003 -0.2671 -0.9526 -0.6702
14927TIP3   OH266271   4.438   0.691  13.144  0.0369  0.3722  0.0416
14927TIP3    H166272   4.408   0.775  13.108 -1.2460 -1.0494 -2.3814
14927TIP3    H266273   4.361   0.654  13.187 -0.3970 -1.0481 -1.8604
14928TIP3   OH266274   6.426   6.628   1.951  0.5882  0.2111 -0.0098
14928TIP3    H166275   6.438   6.643   1.857  1.8511  0.3026  0.1446
14928TIP3    H266276   6.507   6.585   1.979 -0.3457 -1.0975  0.7903
14929TIP3   OH266277   1.889   1.909  14.343  0.4621  0.2543 -0.4915
14929TIP3    H166278   1.876   1.999  14.314  0.5125  0.1294 -0.9125
14929TIP3    H266279   1.808   1.886  14.387  1.0673  1.0594  1.1251
14930TIP3   OH266280   1.573   1.228   2.992 -0.2574  0.1982  0.6835
14930TIP3    H166281   1.552   1.319   3.014 -3.6948  0.0372 -1.1913
14930TIP3    H266282   1.644   1.234   2.928 -0.8145  1.6531  0.1628
14931TIP3   OH266283   0.090   6.083  13.222  0.2363 -0.2261 -0.5076
14931TIP3    H166284   0.157   6.048  13.163  1.8784  0.1296  1.0672
14931TIP3    H266285   0.113   6.047  13.308 -2.6859 -1.5874 -0.1561
14932TIP3   OH266286   4.670   5.451  17.186  0.1775  0.0889  0.2817
14932TIP3    H166287   4.646   5.492  17.103 -0.7195  1.5520  1.2324
14932TIP3    H266288   4.735   5.385  17.162  4.3841  4.1624 -1.1222
14933TIP3   OH266289   5.188   2.459   3.357 -0.4731  0.4794 -0.1431
14933TIP3    H166290   5.263   2.400   3.364  0.1099  1.3517  1.4043
14933TIP3    H266291   5.135   2.440   3.435 -0.7511  1.3505 -0.1150
14934TIP3   OH266292   1.405   0.054   0.786 -0.1761  0.3940  0.3851
14934TIP3    H166293   1.380   0.139   0.751  1.8569  0.6372 -0.6305
14934TIP3    H266294   1.386  -0.008   0.716  0.9008  0.4156  0.0678
14935TIP3   OH266295   0.661   2.092  16.451  0.3174 -0.0083  0.1739
14935TIP3    H166296   0.641   2.131  16.366 -0.1730 -0.9128 -0.1385
14935TIP3    H266297   0.744   2.132  16.477  0.1722  0.7170 -0.4507
14936TIP3   OH266298   0.882   6.356   1.827 -0.2579 -0.3076 -0.3160
14936TIP3    H166299   0.876   6.262   1.812 -0.6616 -0.6626  1.6750
14936TIP3    H266300   0.791   6.386   1.829 -0.4173 -0.6610  2.9311
14937TIP3   OH266301   4.332   0.231  11.858  0.2129  0.1241  0.1774
14937TIP3    H166302   4.361   0.141  11.843 -1.2483 -1.0315  3.3741
14937TIP3    H266303   4.410   0.284  11.840  2.5944 -2.2499  2.4637
14938TIP3   OH266304   2.966   6.319   4.093 -0.0452  0.2459  0.3017
14938TIP3    H166305   2.941   6.367   4.172  1.2911  2.4368 -0.5124
14938TIP3    H266306   3.059   6.302   4.103 -0.3308 -1.5201  0.1865
14939TIP3   OH266307   3.453   5.628  14.727  0.5660 -0.3375 -0.5855
14939TIP3    H166308   3.537   5.585  14.712  1.1095 -0.6275  2.5558
14939TIP3    H266309   3.389   5.558  14.723  0.8570 -0.6350 -0.1575
14940TIP3   OH266310   0.657   0.735  12.531  0.7113 -0.3024  0.9809
14940TIP3    H166311   0.566   0.723  12.557  0.4114 -1.2888 -0.4068
14940TIP3    H266312   0.676   0.826  12.553 -0.1561 -0.4828  2.5827
14941TIP3   OH266313   1.130   4.020  14.064  0.8199  0.1719 -0.3153
14941TIP3    H166314   1.171   4.062  14.140 -1.6383  0.9091  0.7284
14941TIP3    H266315   1.096   3.937  14.098 -1.2915  1.0151 -0.2188
14942TIP3   OH266316   1.040   3.612  13.319 -0.2846 -0.2829  0.1759
14942TIP3    H166317   0.952   3.638  13.346 -0.8693  0.5853 -2.3352
14942TIP3    H266318   1.096   3.637  13.393 -2.0950 -0.9075  1.8521
14943TIP3   OH266319   6.802   4.658   3.619 -0.0681  0.6228 -0.2645
14943TIP3    H166320   6.802   4.693   3.708 -0.4865  0.8597 -0.3548
14943TIP3    H266321   6.710   4.662   3.591  0.2358  1.7766 -1.1789
14944TIP3   OH266322   1.503   4.002   4.755  0.1593  0.1104 -0.4661
14944TIP3    H166323   1.537   4.087   4.725  0.5687  0.2342  0.3181
14944TIP3    H266324   1.498   4.011   4.850 -0.4184 -0.5258 -0.4313
14945TIP3   OH266325   0.126   2.193   4.708 -0.4705 -0.6641  0.5104
14945TIP3    H166326   0.136   2.286   4.687 -0.8145 -0.9094 -0.8582
14945TIP3    H266327   0.038   2.185   4.745 -0.4929 -0.4621  0.5000
14946TIP3   OH266328   3.101   6.137   3.081  0.1360  0.5265 -0.7475
14946TIP3    H166329   3.174   6.114   3.024  1.3798  0.4715  0.8074
14946TIP3    H266330   3.058   6.053   3.100  0.0316  0.4819 -1.1640
14947TIP3   OH266331   0.709   0.796  11.341  0.2866 -0.1784  0.3248
14947TIP3    H166332   0.664   0.785  11.425 -0.5185  1.3732  0.1231
14947TIP3    H266333   0.648   0.844  11.286  1.4577  0.3133 -0.5972
14948TIP3   OH266334   3.867   2.907  13.792  0.1508 -0.0112  0.2064
14948TIP3    H166335   3.948   2.863  13.816 -0.5296 -0.7604  1.2423
14948TIP3    H266336   3.865   2.986  13.846  0.0874 -0.1016  0.3357
14949TIP3   OH266337   2.002   5.543   5.791 -0.5355 -0.4298  0.0351
14949TIP3    H166338   2.066   5.473   5.800  0.2172  0.3979  1.7089
14949TIP3    H266339   1.924   5.510   5.836 -1.0797 -1.1602 -1.3935
14950TIP3   OH266340   4.970   0.805   1.623  0.1697 -0.5218 -0.1042
14950TIP3    H166341   5.031   0.846   1.562  0.1953  2.1446  1.5539
14950TIP3    H266342   5.023   0.741   1.670  2.0032  2.0392  1.6173
14951TIP3   OH266343   1.858   0.483  15.747 -0.0589 -0.0806 -0.6537
14951TIP3    H166344   1.910   0.563  15.745  1.3542 -0.9366 -0.3601
14951TIP3    H266345   1.889   0.436  15.825 -1.6600 -0.4085 -0.1869
14952TIP3   OH266346   1.211   3.375  15.962 -0.0468  0.2028  0.6049
14952TIP3    H166347   1.242   3.319  16.033  0.9361 -0.7977 -0.5525
14952TIP3    H266348   1.118   3.354  15.953  0.3359 -1.4184  0.0889
14953TIP3   OH266349   3.148   0.601  12.262  0.4464 -0.5794  0.1952
14953TIP3    H166350   3.066   0.634  12.225  0.3544 -0.4032  0.5502
14953TIP3    H266351   3.169   0.524  12.210 -0.6187 -1.3801  0.9061
14954TIP3   OH266352   4.732   0.503   2.893 -0.4500  0.4323  0.3142
14954TIP3    H166353   4.771   0.544   2.970  0.8514 -0.7358  0.3210
14954TIP3    H266354   4.682   0.574   2.851 -0.9258  1.1678  2.0281
14955TIP3   OH266355   5.195   3.066  15.326 -0.1532 -0.5264 -0.0100
14955TIP3    H166356   5.206   3.036  15.236  0.7990 -1.5099  0.4048
14955TIP3    H266357   5.284   3.072  15.360 -0.4922  0.0215  0.8094
14956TIP3   OH266358   5.012   0.105   1.699 -0.1158  0.6948  0.1995
14956TIP3    H166359   5.064   0.052   1.639 -0.7210 -0.2093  0.4516
14956TIP3    H266360   5.041   0.079   1.786  2.8072  4.0157  0.4311
14957TIP3   OH266361   5.392   2.561   5.467  0.5176  0.0661 -0.1894
14957TIP3    H166362   5.385   2.619   5.392 -2.1514 -1.0001 -0.8886
14957TIP3    H266363   5.441   2.485   5.435 -0.1607 -0.1542 -0.7203
14958TIP3   OH266364   4.021   0.892  16.459  0.2662  0.2911 -0.0042
14958TIP3    H166365   4.097   0.947  16.476  0.6180  0.7919 -2.7121
14958TIP3    H266366   4.055   0.803  16.455  0.6988  0.4791 -0.8491
14959TIP3   OH266367   4.613   3.017   0.693  0.1563 -0.1236 -0.3609
14959TIP3    H166368   4.647   3.082   0.755 -0.9617  1.6251 -1.4825
14959TIP3    H266369   4.623   2.933   0.738  0.7700  0.9084  1.5500
14960TIP3   OH266370   6.679   1.631  15.034 -0.3020 -0.1470  0.6960
14960TIP3    H166371   6.669   1.593  15.122 -0.5355 -0.5273  0.5053
14960TIP3    H266372   6.773   1.648  15.027  0.2602 -3.0256 -0.1565
14961TIP3   OH266373   6.065   5.091   5.248 -0.0046  0.3145  0.2841
14961TIP3    H166374   6.143   5.123   5.204  0.0233 -0.1905 -0.0315
14961TIP3    H266375   5.993   5.135   5.203 -0.0793 -1.2715 -1.2523
14962TIP3   OH266376   3.033   2.388  14.737  0.0044 -0.6415 -0.2031
14962TIP3    H166377   3.109   2.341  14.703 -0.4148 -0.5506 -1.3033
14962TIP3    H266378   3.070   2.456  14.793  0.6190 -2.5001  1.7816
14963TIP3   OH266379   2.202   2.056   1.571 -0.3742  0.5096 -0.2327
14963TIP3    H166380   2.132   2.008   1.527  0.7202 -0.8073 -0.5944
14963TIP3    H266381   2.156   2.118   1.628 -1.8294 -0.2270 -0.5504
14964TIP3   OH266382   2.469   2.365  13.605 -0.3820  0.1918  0.7580
14964TIP3    H166383   2.542   2.423  13.629  0.2487 -1.3145  2.7485
14964TIP3    H266384   2.470   2.366  13.509  0.9293  1.8041  0.7193
14965TIP3   OH266385   1.544   5.054   6.080 -0.8193 -0.1086  0.2822
14965TIP3    H166386   1.459   5.064   6.124 -1.0472 -1.6996  0.2600
14965TIP3    H266387   1.607   5.049   6.152 -0.8320  0.2998  0.3242
14966TIP3   OH266388   5.099   4.328   0.347  0.6672  0.1342  0.0808
14966TIP3    H166389   5.122   4.416   0.379 -0.9180  0.6179 -0.0195
14966TIP3    H266390   5.167   4.271   0.383  0.5173  1.0766  2.0110
14967TIP3   OH266391   0.213   1.118  14.586 -0.5136  0.5982  0.0003
14967TIP3    H166392   0.274   1.141  14.656  0.3090 -0.5558 -0.3140
14967TIP3    H266393   0.223   1.188  14.521 -0.0529  0.7915  0.2775
14968TIP3   OH266394   5.353   0.054   3.204  0.1905  0.4284 -0.2486
14968TIP3    H166395   5.309   0.118   3.261  1.1348  1.0349 -0.1815
14968TIP3    H266396   5.360  -0.025   3.257  0.6187  0.8373  0.3169
14969TIP3   OH266397   0.339   0.545  15.442 -0.8153 -0.4112 -0.8989
14969TIP3    H166398   0.366   0.563  15.352 -0.1612 -2.0639 -1.0680
14969TIP3    H266399   0.291   0.463  15.436 -2.2591  0.3163  0.0399
14970TIP3   OH266400   5.895   6.808   4.805  0.3546 -0.1640 -0.1680
14970TIP3    H166401   5.821   6.833   4.860  1.6565  3.9345  0.0137
14970TIP3    H266402   5.857   6.791   4.719 -1.2317 -2.8971  0.9440
14971TIP3   OH266403   6.733   1.860   4.469  0.3365  0.2495  0.4269
14971TIP3    H166404   6.814   1.901   4.438  0.1987 -0.3508 -0.7908
14971TIP3    H266405   6.762   1.784   4.519  0.5330  0.2207  0.2706
14972TIP3   OH266406   1.289   0.121   3.408 -0.0655 -0.4428  0.5004
14972TIP3    H166407   1.315   0.034   3.376  0.7428  0.2086 -0.6821
14972TIP3    H266408   1.369   0.157   3.446 -0.9463 -1.0903  3.1200
14973TIP3   OH266409   0.005   4.871   4.850  0.0530 -0.0952 -0.1663
14973TIP3    H166410   0.034   4.832   4.767  0.3103  0.5273 -0.3721
14973TIP3    H266411  -0.086   4.841   4.859 -0.1155  0.1740 -0.8884
14974TIP3   OH266412   3.637   2.262  14.953 -0.1805 -0.2827 -0.0909
14974TIP3    H166413   3.701   2.254  14.882 -0.5496  0.8143 -0.5774
14974TIP3    H266414   3.689   2.280  15.031  0.1952 -0.9923 -0.1697
14975TIP3   OH266415   3.361   5.369  16.139 -0.7348 -0.0306 -0.4617
14975TIP3    H166416   3.267   5.360  16.123 -0.7803  0.4520 -0.4909
14975TIP3    H266417   3.400   5.374  16.051 -0.8300  1.1441 -0.4485
14976TIP3   OH266418   3.587   3.456  12.049  0.3625  0.4592  0.2565
14976TIP3    H166419   3.672   3.491  12.076  1.1697 -1.0407 -0.2490
14976TIP3    H266420   3.585   3.368  12.085 -0.8178  0.3378 -0.0818
14977TIP3   OH266421   4.924   4.723  11.711 -0.1936  0.1241  0.1024
14977TIP3    H166422   4.895   4.755  11.625  1.3532 -0.4821 -0.6806
14977TIP3    H266423   4.937   4.629  11.699 -0.3106 -0.0358  1.1103
14978TIP3   OH266424   3.141   0.192  14.461  0.2699 -0.1092  0.2170
14978TIP3    H166425   3.093   0.274  14.467 -0.5778 -0.4683 -1.2776
14978TIP3    H266426   3.215   0.211  14.403  0.4064 -0.2570  0.3401
14979TIP3   OH266427   2.635   6.701  11.520  0.4053 -0.2005 -0.1626
14979TIP3    H166428   2.540   6.689  11.511  0.3364  0.6724 -0.7469
14979TIP3    H266429   2.644   6.780  11.574  0.8099 -0.9286  0.8510
14980TIP3   OH266430   2.337   4.527   3.429  0.1444 -0.3858  0.1425
14980TIP3    H166431   2.366   4.437   3.417 -0.7744 -0.5467 -0.9179
14980TIP3    H266432   2.359   4.547   3.520 -1.6916 -2.4508  1.1208
14981TIP3   OH266433   4.633   0.521  10.800  0.2854  0.2542 -0.4382
14981TIP3    H166434   4.691   0.457  10.759  0.8476  0.8045 -0.5208
14981TIP3    H266435   4.633   0.497  10.893 -1.4219 -1.3296 -0.7918
14982TIP3   OH266436   2.594   1.203   6.316 -0.5918  0.2245  0.0308
14982TIP3    H166437   2.585   1.242   6.402 -0.4094  1.7810 -0.6199
14982TIP3    H266438   2.659   1.133   6.328 -0.3912  0.5736  1.1007
14983TIP3   OH266439   5.951   3.427   2.334 -0.1566 -0.2198  0.4688
14983TIP3    H166440   5.929   3.430   2.427 -1.8558  1.1657  0.0669
14983TIP3    H266441   5.928   3.514   2.301  0.5550 -0.6407 -1.2172
14984TIP3   OH266442   0.164   5.371  15.838 -0.5597  0.8523 -0.1854
14984TIP3    H166443   0.222   5.311  15.884 -1.4337  0.4434  0.3972
14984TIP3    H266444   0.215   5.453  15.831 -0.1314  0.6810  0.8090
14985TIP3   OH266445   0.063   1.196  14.066  0.0805 -0.4177  0.3087
14985TIP3    H166446   0.114   1.133  14.015  0.3112 -0.9474  1.1679
14985TIP3    H266447   0.081   1.280  14.025 -0.9139 -1.0034 -1.3981
14986TIP3   OH266448   5.875   4.099   1.326 -0.6159 -0.4579  0.3431
14986TIP3    H166449   5.831   4.178   1.359  2.1349  1.7313 -0.7543
14986TIP3    H266450   5.804   4.044   1.294 -2.8482  0.4927  3.1843
14987TIP3   OH266451   4.752   2.545   4.183 -0.1683  0.2951  0.0324
14987TIP3    H166452   4.784   2.499   4.260  2.2450  0.0276 -1.0241
14987TIP3    H266453   4.813   2.617   4.171 -0.1510  0.0177 -1.9001
14988TIP3   OH266454   0.800   0.150  11.972  0.2016 -0.4609  0.4466
14988TIP3    H166455   0.797   0.061  11.936 -0.5279 -0.7036  1.0941
14988TIP3    H266456   0.739   0.148  12.046  0.7946  0.3526  0.9721
14989TIP3   OH266457   5.012   0.976   5.808 -0.1646 -0.1534  0.3722
14989TIP3    H166458   5.100   0.942   5.796 -0.1322 -0.8138  2.1715
14989TIP3    H266459   5.025   1.064   5.843 -0.2005 -0.3498  0.8920
14990TIP3   OH266460   0.484   2.632  16.968  0.4122 -0.5718 -0.2109
14990TIP3    H166461   0.395   2.664  16.978  0.2955 -1.4534  2.1686
14990TIP3    H266462   0.480   2.539  16.992  2.1309 -0.3544  1.1560
14991TIP3   OH266463   1.991   4.398   6.320  0.0481  0.6152 -0.2240
14991TIP3    H166464   1.919   4.451   6.286  0.8024  1.8455  0.0377
14991TIP3    H266465   2.016   4.441   6.401 -2.2135 -2.6878  2.5020
14992TIP3   OH266466   6.825   4.612   3.052  0.1049 -0.2976 -0.3449
14992TIP3    H166467   6.779   4.690   3.020  2.5996  1.3700 -0.1577
14992TIP3    H266468   6.768   4.578   3.121 -1.1065  1.3341 -0.4608
14993TIP3   OH266469   1.920   3.336   1.905  0.4562 -0.1106 -0.0007
14993TIP3    H166470   1.866   3.305   1.978  1.3839 -1.3506  0.1836
14993TIP3    H266471   1.866   3.403   1.863 -0.8180 -0.6183  0.7645
14994TIP3   OH266472   2.957   6.219   0.438 -0.0523  0.0518 -0.0417
14994TIP3    H166473   3.018   6.280   0.397 -1.2307  0.8687 -0.6608
14994TIP3    H266474   3.012   6.152   0.477  1.1681 -0.2058 -2.0983
14995TIP3   OH266475   5.452   3.682   4.664 -0.4826 -0.0939 -0.0462
14995TIP3    H166476   5.417   3.642   4.584 -1.1804 -1.7743  1.0271
14995TIP3    H266477   5.377   3.684   4.724  0.3682 -0.2323  1.0462
14996TIP3   OH266478   0.788   4.950   4.882  0.0024 -0.0065  0.0933
14996TIP3    H166479   0.787   4.993   4.796  0.6900 -1.1949 -0.5437
14996TIP3    H266480   0.878   4.917   4.890 -0.3299 -0.7471  0.8395
14997TIP3   OH266481   1.982   4.851  15.648  0.2424 -0.6553 -0.1368
14997TIP3    H166482   1.990   4.773  15.703 -1.6570 -1.0447 -0.3330
14997TIP3    H266483   2.010   4.822  15.561  0.2371 -0.9131 -0.0522
14998TIP3   OH266484   0.114   1.343   6.742 -0.1023  0.3489  0.6723
14998TIP3    H166485   0.134   1.251   6.759 -0.3587  0.0479 -0.5150
14998TIP3    H266486   0.129   1.387   6.825  2.0450 -0.4240  0.7433
14999TIP3   OH266487   1.258   6.681   3.310  0.2204  0.9815  0.0417
14999TIP3    H166488   1.203   6.610   3.277 -1.5501  2.8861 -1.3828
14999TIP3    H266489   1.339   6.674   3.261  0.0270  0.0154 -0.1503
15000TIP3   OH266490   5.508   4.745   5.132 -0.4271 -0.3600 -0.6092
15000TIP3    H166491   5.493   4.814   5.068  0.8301  0.2160 -0.3105
15000TIP3    H266492   5.584   4.697   5.099  0.1982 -0.0925  0.4012
15001TIP3   OH266493   2.021   5.472  13.390 -0.4215 -0.0392  0.3725
15001TIP3    H166494   1.937   5.431  13.369 -0.5350 -0.2485  1.2171
15001TIP3    H266495   2.023   5.475  13.485  1.3268 -1.7323  0.4392
15002TIP3   OH266496   1.540   2.397  13.023 -0.8169 -0.7021 -0.0824
15002TIP3    H166497   1.556   2.432  13.111 -1.2507 -0.4459 -0.1023
15002TIP3    H266498   1.512   2.472  12.972  0.0329 -0.7318 -0.6112
15003TIP3   OH266499   3.618   5.793  15.497  0.5189 -0.0181  0.2180
15003TIP3    H166500   3.651   5.841  15.572 -0.3537  0.1627  0.5000
15003TIP3    H266501   3.569   5.720  15.535  0.0187  0.1086 -0.1652
15004TIP3   OH266502   0.874   4.146  11.779 -0.3673 -0.0439  0.5716
15004TIP3    H166503   0.942   4.119  11.717  0.5684  3.1011  0.0513
15004TIP3    H266504   0.802   4.085  11.763  0.8962 -1.0859 -1.6319
15005TIP3   OH266505   3.244   6.202   5.972 -0.1802 -0.0503  0.7757
15005TIP3    H166506   3.156   6.227   6.001 -0.9607  1.1026 -2.2673
15005TIP3    H266507   3.234   6.113   5.936 -0.5930  0.7725 -1.2623
15006TIP3   OH266508   6.078   3.240   0.587 -0.3465  0.5783  0.0165
15006TIP3    H166509   5.983   3.254   0.593 -0.5175 -0.9665  1.8604
15006TIP3    H266510   6.113   3.324   0.557 -2.3534  0.9273 -1.5385
15007TIP3   OH266511   3.278   1.737   2.284 -0.2379  0.2365  0.1361
15007TIP3    H166512   3.196   1.692   2.264 -0.1200  1.0744 -2.7581
15007TIP3    H266513   3.344   1.690   2.233  0.3846  1.8609 -0.6189
15008TIP3   OH266514   2.714   3.238   6.150  0.0885  0.0644 -0.2059
15008TIP3    H166515   2.803   3.255   6.181  0.4803 -0.9424 -0.7591
15008TIP3    H266516   2.709   3.284   6.066  0.3859 -0.6239 -0.6025
15009TIP3   OH266517   4.215   3.102   3.990  0.1366  0.8881 -0.4218
15009TIP3    H166518   4.152   3.032   4.010 -0.1754  1.9003  2.4951
15009TIP3    H266519   4.300   3.058   3.990 -0.0106  0.4902  1.7629
15010TIP3   OH266520   5.657   1.140  14.791  0.4631 -0.1811  0.4407
15010TIP3    H166521   5.576   1.120  14.745  0.5708  0.4461 -0.0266
15010TIP3    H266522   5.726   1.133  14.725  0.6161  0.7309  0.4840
15011TIP3   OH266523   4.356   1.350   0.656  0.0835  0.0585  0.2132
15011TIP3    H166524   4.392   1.269   0.694 -2.1186 -0.5109  1.2121
15011TIP3    H266525   4.382   1.346   0.564  0.1465 -1.7372  0.2695
15012TIP3   OH266526   6.580   2.440  12.194 -0.3655 -0.1794  0.4991
15012TIP3    H166527   6.566   2.399  12.109 -1.5398  0.1461  0.5182
15012TIP3    H266528   6.492   2.454  12.229  0.0781  0.2978  1.4810
15013TIP3   OH266529   4.197   2.522  16.815  0.5203  0.0702 -0.0488
15013TIP3    H166530   4.270   2.549  16.759  0.4694  0.1484 -0.0783
15013TIP3    H266531   4.237   2.469  16.883  0.3612 -1.5435 -1.1692
15014TIP3   OH266532   0.123   1.474  14.242 -0.6502  0.0641  0.4241
15014TIP3    H166533   0.140   1.438  14.155 -2.1358 -0.6125  0.3885
15014TIP3    H266534   0.169   1.558  14.243 -1.1796  0.4133 -1.2808
15015TIP3   OH266535   6.690   3.796  16.280 -0.8087 -0.0684 -0.1402
15015TIP3    H166536   6.679   3.886  16.250  0.2606 -0.4940 -1.9566
15015TIP3    H266537   6.677   3.800  16.374 -0.4510  2.0526 -0.1430
15016TIP3   OH266538   3.700   5.567  14.668 -0.1569 -0.1117 -0.1982
15016TIP3    H166539   3.794   5.555  14.668 -0.2285 -0.6966  0.1455
15016TIP3    H266540   3.670   5.525  14.587 -0.0977  0.3137 -0.4450
15017TIP3   OH266541   5.152   0.088   4.334 -0.2311  0.0044 -0.1722
15017TIP3    H166542   5.064   0.125   4.329 -0.6093 -0.7535  0.6404
15017TIP3    H266543   5.141   0.004   4.378  1.0014  0.2038  0.5753
15018TIP3   OH266544   0.758   1.065  15.068  0.5682 -0.2021  0.2885
15018TIP3    H166545   0.764   0.999  15.137 -2.3550 -0.1553  0.6917
15018TIP3    H266546   0.693   1.030  15.007 -0.8415  2.1290  0.3472
15019TIP3   OH266547   3.657   3.459  13.569 -0.0610  0.4102  0.6139
15019TIP3    H166548   3.694   3.483  13.485 -0.6718 -0.1981  0.1613
15019TIP3    H266549   3.614   3.375  13.553 -0.7644  0.6191  1.3656
15020TIP3   OH266550   4.568   0.367   0.724  0.1743 -0.2670 -0.6090
15020TIP3    H166551   4.638   0.325   0.774  2.5894  1.3370 -2.3573
15020TIP3    H266552   4.541   0.302   0.660  0.5399 -0.6947 -0.3310
15021TIP3   OH266553   5.183   0.031  16.397  0.4355 -0.3130 -0.7806
15021TIP3    H166554   5.167   0.026  16.491  0.2885 -2.6309 -0.8793
15021TIP3    H266555   5.199  -0.060  16.370  1.6289  0.4210 -2.7975
15022TIP3   OH266556   1.641   2.181   2.801  0.2448  0.3740 -0.1788
15022TIP3    H166557   1.554   2.208   2.832  0.5307  1.0211  0.0909
15022TIP3    H266558   1.654   2.232   2.720 -0.1647 -0.7089 -0.9469
15023TIP3   OH266559   1.568   6.290  15.339 -0.0239  0.1642  0.0850
15023TIP3    H166560   1.525   6.298  15.254 -0.1338  0.1395  0.1382
15023TIP3    H266561   1.496   6.287  15.402 -0.0883 -2.5467  0.0008
15024TIP3   OH266562   3.591   2.115   3.878  0.0250 -0.2649  0.9244
15024TIP3    H166563   3.620   2.131   3.788 -0.5339 -1.0358  0.6026
15024TIP3    H266564   3.598   2.020   3.889  0.1544 -0.1710  1.7241
15025TIP3   OH266565   6.517   3.933  15.895  0.1337  0.1811 -0.3340
15025TIP3    H166566   6.467   3.991  15.953  0.4753  0.4901 -0.3465
15025TIP3    H266567   6.603   3.975  15.887  0.7230 -0.8453  0.4477
15026TIP3   OH266568   0.443   6.199  16.747  0.0140 -0.4610  0.1807
15026TIP3    H166569   0.523   6.221  16.699 -0.3745  0.3857 -0.0968
15026TIP3    H266570   0.372   6.212  16.683 -0.3760 -0.9006  0.5151
15027TIP3   OH266571   1.137   2.452  11.892  0.1628 -0.1242 -0.1819
15027TIP3    H166572   1.105   2.461  11.803 -0.4919 -0.3939  0.0243
15027TIP3    H266573   1.067   2.407  11.939  1.1288 -1.4108  0.0898
15028TIP3   OH266574   3.090   1.748  14.202  0.3016  0.1275  0.4550
15028TIP3    H166575   3.179   1.712  14.199  1.4298  2.6947 -0.1085
15028TIP3    H266576   3.075   1.781  14.113 -1.1498 -0.0290  0.6131
15029TIP3   OH266577   2.891   6.419  16.133 -0.4623 -0.4923  0.1365
15029TIP3    H166578   2.883   6.439  16.040  0.1614 -0.2586  0.1305
15029TIP3    H266579   2.863   6.328  16.140 -0.4419 -0.5347 -0.2888
15030TIP3   OH266580   6.349   6.320   5.670 -0.1737  0.2633 -0.4153
15030TIP3    H166581   6.284   6.279   5.613 -0.5311 -1.1167  0.9175
15030TIP3    H266582   6.312   6.407   5.688 -1.2593 -0.1835 -0.3579
15031TIP3   OH266583   4.564   0.799   5.200  0.6233 -0.3261  0.1920
15031TIP3    H166584   4.576   0.705   5.205  0.0635 -0.6024 -2.3128
15031TIP3    H266585   4.650   0.836   5.222  1.1006 -1.4452  0.2436
15032TIP3   OH266586   5.751   0.107   0.972  0.1896 -0.0837  0.2653
15032TIP3    H166587   5.737   0.155   0.890  1.5953  1.9920  1.1530
15032TIP3    H266588   5.844   0.084   0.970  0.1629 -0.2788  1.1360
15033TIP3   OH266589   6.418   1.897   4.821 -0.4289  0.6370 -0.5587
15033TIP3    H166590   6.332   1.928   4.796 -0.5515  0.9677  0.2534
15033TIP3    H266591   6.427   1.921   4.913 -0.1253 -0.8139 -0.1722
15034TIP3   OH266592   2.903   6.771   0.704  1.0808  0.3484  0.1117
15034TIP3    H166593   2.954   6.851   0.694  1.5158  0.2310  1.2545
15034TIP3    H266594   2.840   6.790   0.773 -1.6856  1.0651 -2.3953
15035TIP3   OH266595   4.004   2.985   0.557  0.4197  0.4655  0.1839
15035TIP3    H166596   4.035   3.017   0.642 -0.7155  2.2481 -0.0243
15035TIP3    H266597   3.970   3.063   0.513 -1.1216 -0.8154 -0.9876
15036TIP3   OH266598   5.539   3.749  16.217  0.5085  0.9418 -0.2182
15036TIP3    H166599   5.460   3.769  16.267 -0.8447  0.1842 -1.9641
15036TIP3    H266600   5.518   3.776  16.128  1.2775 -1.5061 -1.2182
15037TIP3   OH266601   6.525   4.748   6.231  0.2749 -0.2273  0.5516
15037TIP3    H166602   6.593   4.720   6.171 -2.4035 -1.0054 -2.3705
15037TIP3    H266603   6.538   4.692   6.309  1.6324 -1.8718 -0.7736
15038TIP3   OH266604   5.478   2.477  11.690  0.1669 -0.0375  0.3346
15038TIP3    H166605   5.407   2.534  11.718 -0.8928 -1.6606  1.1707
15038TIP3    H266606   5.486   2.493  11.596 -0.9991  0.5213  0.3080
15039TIP3   OH266607   5.052   5.670   1.311  0.4790  0.0713 -0.7533
15039TIP3    H166608   4.964   5.688   1.277 -0.2418  1.1127  1.4417
15039TIP3    H266609   5.049   5.577   1.336 -1.0146  0.7343  1.8471
15040TIP3   OH266610   5.988   4.026   1.578 -0.4855  0.6672  0.3786
15040TIP3    H166611   5.988   4.097   1.641  1.0237  0.7518  0.3023
15040TIP3    H266612   5.923   4.052   1.512  0.8375  2.5260 -0.2571
15041TIP3   OH266613   6.486   6.243  15.042  0.5541 -0.0749 -0.1465
15041TIP3    H166614   6.563   6.268  14.992  1.5614  0.1519  1.4360
15041TIP3    H266615   6.516   6.243  15.133 -0.8760 -1.6492  0.3748
15042TIP3   OH266616   6.446   3.384  12.317 -0.2303  0.2571 -0.5307
15042TIP3    H166617   6.410   3.463  12.358 -0.6340 -0.2256  0.0673
15042TIP3    H266618   6.513   3.354  12.379 -2.0999 -1.5083  0.7461
15043TIP3   OH266619   3.936   5.112   1.234 -0.1503  0.6390 -1.1136
15043TIP3    H166620   3.903   5.024   1.216  0.9121  0.0836 -0.4472
15043TIP3    H266621   3.943   5.153   1.148  1.9969 -0.9137 -1.7732
15044TIP3   OH266622   4.985   4.518   0.030  0.2858 -0.7403 -0.4316
15044TIP3    H166623   4.946   4.595  -0.012 -1.0634  0.3529  2.5105
15044TIP3    H266624   5.076   4.518   0.002  0.1604  1.5959 -1.0014
15045TIP3   OH266625   1.475   6.599  14.453 -0.0334 -0.0278  0.4680
15045TIP3    H166626   1.416   6.585  14.379 -0.0619  0.5335  0.3784
15045TIP3    H266627   1.557   6.555  14.428 -0.0311  0.1911  0.0838
15046TIP3   OH266628   4.318   2.195  14.205  0.0968 -0.1563  0.3888
15046TIP3    H166629   4.350   2.134  14.272  0.6049  1.4636  1.6865
15046TIP3    H266630   4.225   2.176  14.198 -0.0377 -0.1638  1.8250
15047TIP3   OH266631   1.297   3.570   4.471 -0.0533  0.0220 -0.5071
15047TIP3    H166632   1.342   3.652   4.490 -0.9052  0.3702  0.0171
15047TIP3    H266633   1.363   3.517   4.425  1.0560  0.3210  0.6878
15048TIP3   OH266634   2.009   2.503  10.997  0.1116 -0.3978  0.4666
15048TIP3    H166635   1.942   2.567  10.974  1.2650  0.7246  0.1464
15048TIP3    H266636   1.962   2.438  11.050 -1.1699  0.4820  0.4673
15049TIP3   OH266637   5.745   3.174  14.736 -0.4748 -0.6743 -0.0888
15049TIP3    H166638   5.788   3.181  14.651  0.2159  2.0418  0.3931
15049TIP3    H266639   5.812   3.140  14.795 -0.7032 -1.7255 -0.4020
15050TIP3   OH266640   3.494   0.850  14.679 -0.8474 -0.5254 -0.0580
15050TIP3    H166641   3.400   0.863  14.692 -0.4750  1.9237  0.8536
15050TIP3    H266642   3.518   0.916  14.614  0.2581 -1.0457 -0.1924
15051TIP3   OH266643   0.960   0.397   3.390 -0.3141 -0.5224  0.5013
15051TIP3    H166644   1.000   0.364   3.310 -2.4214  0.9124 -1.2702
15051TIP3    H266645   0.888   0.453   3.360 -0.6592  0.7901  3.3999
15052TIP3   OH266646   1.080   0.833   4.459 -0.2968 -0.7990  0.1015
15052TIP3    H166647   1.029   0.850   4.380  0.2105  2.6192  0.3514
15052TIP3    H266648   1.155   0.781   4.429 -0.4089 -0.0465 -1.5775
15053TIP3   OH266649   1.197   4.536  13.250  0.1135 -0.3833 -0.4162
15053TIP3    H166650   1.183   4.621  13.208  0.1910 -0.7286 -1.1614
15053TIP3    H266651   1.235   4.557  13.336  0.2574  0.3286 -0.6495
15054TIP3   OH266652   5.518   5.684  13.129  0.3643  0.2968  0.0122
15054TIP3    H166653   5.513   5.590  13.143 -2.7144  0.7716  4.6084
15054TIP3    H266654   5.602   5.710  13.169  0.7508 -0.3913 -0.3410
15055TIP3   OH266655   3.211   0.963  13.210  0.3564 -0.3842 -0.2205
15055TIP3    H166656   3.273   0.904  13.253 -1.9807 -0.9471  2.7280
15055TIP3    H266657   3.247   1.050  13.223  1.9912 -0.8539 -1.3157
15056TIP3   OH266658   5.988   6.542   1.823 -0.2143 -0.2507  0.0876
15056TIP3    H166659   6.041   6.578   1.894  0.4560 -1.4487  0.2176
15056TIP3    H266660   6.051   6.495   1.768 -1.0004 -0.8668 -0.2961
15057TIP3   OH266661   2.843   0.706  13.934 -0.3551  0.2543 -0.2112
15057TIP3    H166662   2.793   0.731  13.857 -1.2033  1.2255  0.6333
15057TIP3    H266663   2.830   0.777  13.996 -0.1928 -0.7869  1.0648
15058TIP3   OH266664   2.486   2.536  15.196  0.7602  0.0864  0.2511
15058TIP3    H166665   2.417   2.479  15.162  0.7007 -0.1111  0.6967
15058TIP3    H266666   2.546   2.548  15.123 -0.2821  1.1237 -0.4721
15059TIP3   OH266667   6.372   3.342   0.459 -0.2974 -0.2527  0.1022
15059TIP3    H166668   6.317   3.263   0.456 -0.1540 -0.4070  1.3552
15059TIP3    H266669   6.313   3.411   0.488 -0.9517  0.6089 -2.9219
15060TIP3   OH266670   6.645   0.517  15.264  0.5899  0.2876  0.5852
15060TIP3    H166671   6.648   0.489  15.173 -1.8992  2.5408 -0.3126
15060TIP3    H266672   6.596   0.449  15.310  0.2054  0.0566 -0.1626
15061TIP3   OH266673   6.430   3.215  13.943 -0.4144 -0.2511 -0.5426
15061TIP3    H166674   6.372   3.148  13.977 -0.5053  0.0662 -0.0721
15061TIP3    H266675   6.373   3.275  13.896 -0.2566 -0.8425 -1.5348
15062TIP3   OH266676   4.346   1.325  11.157 -0.1972  0.4642 -0.5674
15062TIP3    H166677   4.399   1.347  11.234  0.4582 -0.7270 -0.6546
15062TIP3    H266678   4.290   1.253  11.187  0.7260 -0.6410 -1.4510
15063TIP3   OH266679   3.955   1.382  13.227  0.0349  0.1333  0.0647
15063TIP3    H166680   3.957   1.477  13.214  0.2099  0.1583  0.2585
15063TIP3    H266681   3.862   1.361  13.232 -0.0660  0.0263 -1.8210
15064TIP3   OH266682   2.915   6.233  14.483 -0.1057 -0.0122  0.1348
15064TIP3    H166683   2.886   6.306  14.538 -1.4291  0.2285 -0.8348
15064TIP3    H266684   2.865   6.243  14.402  0.3309 -1.5090 -0.3466
15065TIP3   OH266685   5.763   0.003   2.733  0.5259  1.0601 -0.6323
15065TIP3    H166686   5.699  -0.025   2.667 -0.2476  1.2500  0.0236
15065TIP3    H266687   5.710   0.043   2.802  1.4757  2.7843 -0.8439
15066TIP3   OH266688   6.642   0.954   5.730 -0.3581 -0.3730  0.3949
15066TIP3    H166689   6.652   0.865   5.696 -0.8336 -0.7876  1.2930
15066TIP3    H266690   6.665   0.947   5.823 -0.1568  0.4943  0.4167
15067TIP3   OH266691   4.878   6.536  16.101 -0.5540  0.1973  0.2294
15067TIP3    H166692   4.897   6.445  16.121 -1.1562 -0.6000 -2.4336
15067TIP3    H266693   4.941   6.560  16.033 -0.2510  1.8532  1.0572
15068TIP3   OH266694   2.193   4.138  12.354 -0.4114  0.5835  0.6523
15068TIP3    H166695   2.122   4.202  12.350 -0.5100  0.4170 -1.5308
15068TIP3    H266696   2.159   4.063  12.305  1.6631  0.9525 -1.5341
15069TIP3   OH266697   4.919   1.453  14.769  0.2906  0.7017 -0.1682
15069TIP3    H166698   4.873   1.487  14.846  0.3675 -0.7425  0.5429
15069TIP3    H266699   4.850   1.413  14.716  0.5276 -0.3293  0.2777
15070TIP3   OH266700   1.574   5.763  16.037  0.6413  0.2100  0.2291
15070TIP3    H166701   1.493   5.713  16.037  1.6698 -1.5823  1.7789
15070TIP3    H266702   1.628   5.722  15.970  0.0970  1.7897 -1.2320
15071TIP3   OH266703   6.710   0.305  11.751  0.2037  0.1226  0.1793
15071TIP3    H166704   6.704   0.242  11.823 -0.0568 -0.6600 -0.5146
15071TIP3    H266705   6.695   0.254  11.672  0.2145  1.0177 -0.4264
15072TIP3   OH266706   1.061   1.083   2.318  0.0271  0.1032 -0.3201
15072TIP3    H166707   0.969   1.103   2.305 -0.0898 -1.0861 -1.5837
15072TIP3    H266708   1.063   1.025   2.394 -0.3920 -0.6161 -0.8442
15073TIP3   OH266709   5.719   4.992   4.978  0.1524 -0.7366  0.3385
15073TIP3    H166710   5.737   4.940   5.056 -1.2928 -0.2976  0.9942
15073TIP3    H266711   5.639   5.040   4.999 -0.1369 -0.4296 -1.3318
15074TIP3   OH266712   2.882   6.606  14.209  0.0370  0.2098  0.3929
15074TIP3    H166713   2.974   6.581  14.197  0.7321  1.2622  2.9056
15074TIP3    H266714   2.885   6.685  14.262 -2.3357  1.0326 -0.5483
15075TIP3   OH266715   0.040   3.310   0.249 -0.0395 -0.0572 -0.1648
15075TIP3    H166716  -0.037   3.366   0.235 -0.1195  0.0391  0.6169
15075TIP3    H266717   0.053   3.266   0.165 -1.0083 -0.1491 -0.2812
15076TIP3   OH266718   4.098   3.926  12.858 -0.0139  0.0098 -0.6241
15076TIP3    H166719   4.129   3.836  12.862 -1.2117 -0.4602 -1.5566
15076TIP3    H266720   4.147   3.965  12.785  0.7857  0.2648  0.0169
15077TIP3   OH266721   4.126   0.509  13.736  0.1518  0.7758  0.3265
15077TIP3    H166722   4.220   0.523  13.748 -0.0601  1.3098  1.4928
15077TIP3    H266723   4.086   0.553  13.811 -1.0042  0.2292  0.0432
15078TIP3   OH266724   1.355   1.419   1.472  0.0829 -0.1288 -0.0578
15078TIP3    H166725   1.311   1.499   1.444 -0.7572 -0.1153  1.2239
15078TIP3    H266726   1.289   1.351   1.463 -0.3898 -0.0429  2.2768
15079TIP3   OH266727   5.192   5.939   6.245 -0.2427 -0.2346 -0.5098
15079TIP3    H166728   5.152   5.956   6.330  1.0419  1.8069 -0.2180
15079TIP3    H266729   5.286   5.937   6.264  0.0249 -0.3444 -1.7840
15080TIP3   OH266730   5.379   6.254   2.135  0.7816  0.4564 -0.0331
15080TIP3    H166731   5.424   6.214   2.060  1.5452  0.9193  0.1626
15080TIP3    H266732   5.286   6.249   2.113  0.7327 -2.4017  0.4669
15081TIP3   OH266733   0.869   0.645   2.216  0.4107 -0.1092 -0.1154
15081TIP3    H166734   0.800   0.694   2.261  0.5773 -1.9763  2.4518
15081TIP3    H266735   0.948   0.699   2.226  0.5820 -0.7042  2.6054
15082TIP3   OH266736   1.198   2.347  15.051  0.1168  0.1456  0.1127
15082TIP3    H166737   1.269   2.410  15.043 -0.4991  1.0023  1.0883
15082TIP3    H266738   1.236   2.274  15.100  0.9737 -0.5148 -1.4529
15083TIP3   OH266739   4.570   5.741   3.118  0.1174  0.7689 -0.2478
15083TIP3    H166740   4.566   5.804   3.190  0.2733  3.1408 -2.2094
15083TIP3    H266741   4.662   5.716   3.113  0.1527  0.8021  0.1897
15084TIP3   OH266742   3.919   1.537   6.326  0.2071  0.4213  0.6447
15084TIP3    H166743   4.013   1.516   6.327  0.2340  0.4135  2.7952
15084TIP3    H266744   3.885   1.497   6.406 -1.4615  1.1954  0.3598
15085TIP3   OH266745   5.722   1.550  12.596 -0.3422  0.3717  0.3933
15085TIP3    H166746   5.737   1.458  12.576 -0.4125  0.0440  1.7138
15085TIP3    H266747   5.741   1.596  12.515  0.3977 -0.7394 -0.0858
15086TIP3   OH266748   3.484   0.463  14.165 -0.9414  0.0472 -0.1417
15086TIP3    H166749   3.414   0.513  14.206 -0.8269  1.2967 -1.3941
15086TIP3    H266750   3.504   0.511  14.085  1.0380 -0.5301 -0.0479
15087TIP3   OH266751   0.814   6.385  12.322  0.6854  0.3112 -0.5661
15087TIP3    H166752   0.855   6.302  12.300  0.0253 -0.4726  0.9908
15087TIP3    H266753   0.828   6.441  12.245  0.9492 -1.2937 -1.7187
15088TIP3   OH266754   6.115   4.824  13.200  0.1845 -0.1006  0.0275
15088TIP3    H166755   6.141   4.916  13.209  0.5736 -0.2903  0.8972
15088TIP3    H266756   6.160   4.793  13.121 -1.1667  0.8641 -1.1946
15089TIP3   OH266757   0.198   2.188   4.967  0.2826  0.3592  0.2090
15089TIP3    H166758   0.167   2.194   4.876  2.0882 -0.9089 -0.5542
15089TIP3    H266759   0.131   2.232   5.018 -0.9485  0.8388 -1.7108
15090TIP3   OH266760   2.464   1.879   1.961  0.4622 -0.2872 -0.2113
15090TIP3    H166761   2.422   1.934   2.028 -0.9567 -1.1697 -0.3373
15090TIP3    H266762   2.403   1.882   1.887  0.8929 -1.1759 -0.6067
15091TIP3   OH266763   1.059   3.206   2.949  0.0406 -0.0920  0.4111
15091TIP3    H166764   1.008   3.240   2.875  0.4067  1.1863  0.7299
15091TIP3    H266765   0.999   3.210   3.024  0.3392  0.6271  0.6151
15092TIP3   OH266766   0.459   6.440   3.398 -0.3657 -0.3360  0.6508
15092TIP3    H166767   0.457   6.377   3.327  0.8387  1.3591 -0.9723
15092TIP3    H266768   0.551   6.445   3.424 -0.3125  1.1907  0.2765
15093TIP3   OH266769   0.907   6.317  12.698 -0.0114  0.4270 -0.5391
15093TIP3    H166770   1.000   6.314  12.722 -0.3957  2.9132  1.8057
15093TIP3    H266771   0.867   6.246  12.749  0.6275 -1.0506 -2.0283
15094TIP3   OH266772   4.248   3.176  12.944  0.5000 -0.0481 -0.0184
15094TIP3    H166773   4.171   3.143  12.991  0.8166 -1.2183 -0.2805
15094TIP3    H266774   4.300   3.221  13.010 -0.6804  1.2545  0.0497
15095TIP3   OH266775   3.124   1.214   4.679  0.5426  0.1315 -0.9005
15095TIP3    H166776   3.068   1.138   4.696 -0.1059  0.4632 -1.4800
15095TIP3    H266777   3.108   1.235   4.587 -1.7964  2.9363  0.0101
15096TIP3   OH266778   2.976   2.148  12.408  0.3048 -0.1783  0.3472
15096TIP3    H166779   2.894   2.191  12.383  0.1696 -0.0424  1.0135
15096TIP3    H266780   3.018   2.126  12.324 -0.3344 -0.1093  0.0022
15097TIP3   OH266781   5.615   1.634   4.461  0.5310 -0.2641 -0.3550
15097TIP3    H166782   5.609   1.541   4.483 -1.8683  0.3881  2.2403
15097TIP3    H266783   5.669   1.672   4.530  0.1656  0.4897 -0.4676
15098TIP3   OH266784   3.107   1.506  17.120 -0.0823  0.5388  0.1843
15098TIP3    H166785   3.143   1.473  17.203 -1.6878 -0.3229  0.5787
15098TIP3    H266786   3.045   1.438  17.092  0.7753  0.5644 -1.9995
15099TIP3   OH266787   5.090   3.464  11.626  0.1603  0.5185 -0.9455
15099TIP3    H166788   5.106   3.389  11.569 -0.0176  0.5038 -0.9749
15099TIP3    H266789   5.176   3.507  11.633  0.5238 -0.3155 -0.0381
15100TIP3   OH266790   0.109   6.290   3.974 -0.1354 -0.1474  0.3828
15100TIP3    H166791   0.192   6.257   3.939 -0.8839 -1.7318  0.0125
15100TIP3    H266792   0.044   6.265   3.909 -0.9867  0.6165  0.9180
15101TIP3   OH266793   6.114   1.725   1.065 -0.2724 -0.2408  0.1797
15101TIP3    H166794   6.046   1.732   1.132 -0.7199 -0.9019 -0.2006
15101TIP3    H266795   6.070   1.746   0.983 -0.3285 -1.8536 -0.2335
15102TIP3   OH266796   3.718   4.473   0.544 -0.2905 -0.2189  0.4460
15102TIP3    H166797   3.746   4.383   0.562  1.4975  0.2297  0.0885
15102TIP3    H266798   3.764   4.497   0.464 -1.5402  0.6903 -0.0369
15103TIP3   OH266799   2.559   6.327  16.038 -0.0346  0.5773 -0.0601
15103TIP3    H166800   2.551   6.420  16.017 -0.3801  0.4125 -0.7003
15103TIP3    H266801   2.545   6.283  15.954  1.2925 -0.0078  0.0066
15104TIP3   OH266802   5.006   5.458  12.803  0.4981 -0.6519  0.3363
15104TIP3    H166803   4.930   5.441  12.859  0.4843 -1.2622  0.1373
15104TIP3    H266804   5.041   5.371  12.783  1.7090 -0.3549  1.0612
15105TIP3   OH266805   1.103   2.417   3.061 -0.5796 -0.5828 -0.4754
15105TIP3    H166806   1.060   2.332   3.055 -2.6340  0.4142 -1.0416
15105TIP3    H266807   1.042   2.477   3.017 -1.1880  1.8780  3.2743
15106TIP3   OH266808   3.671   2.397   0.799 -0.0387 -0.3103 -0.7048
15106TIP3    H166809   3.619   2.460   0.849  1.5437  1.2049 -0.8653
15106TIP3    H266810   3.760   2.407   0.833  0.7787 -0.4050 -2.6902
15107TIP3   OH266811   3.570   4.207   3.206 -0.3563 -0.1154 -0.3406
15107TIP3    H166812   3.511   4.253   3.147  1.2248  1.5809 -0.6811
15107TIP3    H266813   3.530   4.218   3.293 -0.1237  1.8282 -0.4365
15108TIP3   OH266814   5.411   2.383  14.637  0.3867  0.2675  0.1022
15108TIP3    H166815   5.398   2.478  14.644  0.8659  0.4638 -1.2624
15108TIP3    H266816   5.475   2.373  14.566  1.9945 -0.9867  1.6472
15109TIP3   OH266817   2.781   4.206  12.038 -0.3607  0.0555  0.8976
15109TIP3    H166818   2.798   4.284  11.986  0.4402  0.3014  1.5060
15109TIP3    H266819   2.852   4.146  12.017  0.9450  0.8073  2.9233
15110TIP3   OH266820   2.855   0.619   5.905  0.4202 -0.0399  0.2293
15110TIP3    H166821   2.813   0.644   5.823  0.4201 -1.0590 -0.0898
15110TIP3    H266822   2.918   0.551   5.881  0.7423 -0.0328  1.0056
15111TIP3   OH266823   2.329   3.180  15.939  0.2418  0.1305  0.3176
15111TIP3    H166824   2.327   3.148  16.029  0.1809 -1.1427 -0.1165
15111TIP3    H266825   2.236   3.185  15.913  0.0303  3.3923  1.2595
15112TIP3   OH266826   0.040   5.795   2.479 -0.0155 -0.7533 -0.1350
15112TIP3    H166827  -0.002   5.753   2.554 -0.9556  0.6062  0.1374
15112TIP3    H266828   0.084   5.723   2.433 -1.5246 -2.0290  0.3163
15113TIP3   OH266829   4.697   4.649  17.052 -0.2208 -0.1783 -0.4246
15113TIP3    H166830   4.789   4.663  17.073 -0.0606 -2.4653  0.6591
15113TIP3    H266831   4.698   4.581  16.985 -1.1408 -1.8371  1.1713
15114TIP3   OH266832   2.234   4.446  12.144 -0.8230 -0.7089  0.7032
15114TIP3    H166833   2.168   4.471  12.208 -1.5146  1.8144 -0.8614
15114TIP3    H266834   2.186   4.440  12.061  0.6692 -0.1789 -0.2441
15115TIP3   OH266835   0.901   4.645   1.158 -0.4209 -0.2179  0.0870
15115TIP3    H166836   0.817   4.690   1.160 -0.4523 -0.2986  0.6889
15115TIP3    H266837   0.941   4.673   1.075 -1.4933 -1.0120 -0.7229
15116TIP3   OH266838   0.406   0.099   0.176  0.2400  0.0215  0.2097
15116TIP3    H166839   0.329   0.130   0.224  0.1786 -1.1269  0.8913
15116TIP3    H266840   0.379   0.101   0.084 -0.4710 -0.0111  0.4103
15117TIP3   OH266841   0.715   3.420  13.813  0.6050  0.3203  0.0548
15117TIP3    H166842   0.710   3.340  13.761  0.6133 -0.4529  1.2153
15117TIP3    H266843   0.624   3.449  13.820  0.7095  1.0810 -1.3351
15118TIP3   OH266844   6.176   2.242   5.061 -0.4424  0.4903  0.0051
15118TIP3    H166845   6.182   2.159   5.014  4.7408  0.3050  0.4442
15118TIP3    H266846   6.128   2.300   5.002 -1.7985 -2.0007 -1.5093
15119TIP3   OH266847   1.251   1.279   0.340 -0.0784 -0.3249 -0.1809
15119TIP3    H166848   1.303   1.277   0.420 -0.3530  0.7648  0.0512
15119TIP3    H266849   1.224   1.188   0.326 -0.2952 -0.4928  1.1484
15120TIP3   OH266850   6.732   2.484   0.456  0.0033  0.0303  0.3691
15120TIP3    H166851   6.816   2.507   0.497  0.4629  0.2640 -0.6669
15120TIP3    H266852   6.728   2.540   0.379 -1.5719  0.7138  0.9222
15121TIP3   OH266853   6.529   4.723   3.581 -0.2059 -0.4172 -0.1009
15121TIP3    H166854   6.493   4.673   3.508 -1.0943  0.3669 -0.2262
15121TIP3    H266855   6.476   4.698   3.656 -2.0124  1.7243 -0.5441
15122TIP3   OH266856   5.089   4.235  13.040 -0.1897  0.2337  0.1923
15122TIP3    H166857   5.079   4.186  12.958 -0.9557 -0.1568  0.5084
15122TIP3    H266858   5.147   4.308  13.018 -1.1490  0.6849 -0.9312
15123TIP3   OH266859   5.111   0.018  10.867 -0.2368 -0.5550  0.0335
15123TIP3    H166860   5.093  -0.073  10.892 -1.5754 -0.4251 -0.3919
15123TIP3    H266861   5.202   0.017  10.839 -0.1832 -1.7366  0.1758
15124TIP3   OH266862   3.999   0.709   4.501 -0.0136  0.0115 -0.0484
15124TIP3    H166863   4.059   0.696   4.427 -2.6459  0.2674 -2.4081
15124TIP3    H266864   3.961   0.622   4.516  0.6904 -0.1033  1.2924
15125TIP3   OH266865   5.382   0.339  13.780 -0.1183 -0.9555  0.0549
15125TIP3    H166866   5.307   0.391  13.812 -0.6120 -0.4970 -1.7266
15125TIP3    H266867   5.354   0.307  13.694  2.1095  0.0866 -1.1408
15126TIP3   OH266868   4.898   5.044   5.890  0.5746 -0.2927 -0.2230
15126TIP3    H166869   4.885   5.134   5.919 -0.6801 -0.2822 -0.7633
15126TIP3    H266870   4.867   4.990   5.963 -1.3928 -0.2631 -0.9755
15127TIP3   OH266871   4.787   3.876  13.368  0.3808  0.0992  0.1832
15127TIP3    H166872   4.729   3.949  13.387  1.4611  1.2763 -0.8634
15127TIP3    H266873   4.872   3.917  13.348  0.7402 -1.3507 -1.5178
15128TIP3   OH266874   3.127   4.969   3.457  0.0025 -0.1402 -0.4186
15128TIP3    H166875   3.043   4.974   3.504 -0.4683  2.2874 -1.3677
15128TIP3    H266876   3.192   4.996   3.522 -0.2572  0.2228 -0.3030
15129TIP3   OH266877   4.105   1.993  14.005  0.8759  0.0563 -0.2096
15129TIP3    H166878   4.012   1.977  13.989  1.0537 -0.9636 -0.2547
15129TIP3    H266879   4.132   2.052  13.935  0.3035  0.2388 -0.2811
15130TIP3   OH266880   5.940   5.166   0.925  0.2996 -0.2280  0.0382
15130TIP3    H166881   5.948   5.071   0.936  1.8929 -0.1095  0.1900
15130TIP3    H266882   5.992   5.186   0.848 -0.9925  0.4036 -0.7032
15131TIP3   OH266883   4.232   2.272   0.971  0.6867  0.8215 -0.0258
15131TIP3    H166884   4.280   2.206   1.020  1.8048  1.8014  0.2481
15131TIP3    H266885   4.226   2.347   1.031  0.6026  1.4422 -0.7896
15132TIP3   OH266886   6.678   0.876   2.496  0.7468  0.9216  0.3094
15132TIP3    H166887   6.723   0.898   2.414 -2.1670  0.0069 -1.6961
15132TIP3    H266888   6.725   0.798   2.528  0.2993 -0.4535 -2.0789
15133TIP3   OH266889   3.716   1.769  17.156  0.0419  0.8319  0.1473
15133TIP3    H166890   3.644   1.733  17.209 -0.0936 -0.3267 -0.7718
15133TIP3    H266891   3.674   1.790  17.073  0.4255  1.8280  0.2011
15134TIP3   OH266892   6.151   3.694  14.792  0.4072 -0.6989 -0.0396
15134TIP3    H166893   6.096   3.617  14.805 -1.3411  0.2493 -1.4437
15134TIP3    H266894   6.197   3.677  14.709  1.6399 -1.1021  0.6928
15135TIP3   OH266895   3.527   5.317  13.844 -0.5026  0.3686  0.5283
15135TIP3    H166896   3.579   5.257  13.897  0.1581  0.7844  0.3702
15135TIP3    H266897   3.548   5.294  13.754 -0.1782  0.8780  0.4670
15136TIP3   OH266898   2.785   1.320   0.750  0.1265 -0.2802  0.3845
15136TIP3    H166899   2.845   1.372   0.803  0.3485  2.0710 -1.9710
15136TIP3    H266900   2.720   1.289   0.812  1.8792 -0.0292  2.4592
15137TIP3   OH266901   0.553   1.872  14.099  0.0446 -0.1696 -0.6179
15137TIP3    H166902   0.646   1.872  14.121  0.2292 -0.5749 -1.3706
15137TIP3    H266903   0.509   1.898  14.180  0.8178  0.1466 -0.2919
15138TIP3   OH266904   6.566   0.236   1.955 -0.4947 -0.4639 -0.4289
15138TIP3    H166905   6.479   0.196   1.957 -0.1959 -1.1060 -0.0832
15138TIP3    H266906   6.625   0.164   1.934 -0.0305 -0.0520 -0.5454
15139TIP3   OH266907   4.195   3.597   0.079 -0.3005  0.7226  0.0017
15139TIP3    H166908   4.141   3.650   0.020 -0.8383  1.8798  1.4697
15139TIP3    H266909   4.142   3.587   0.157  0.0466 -1.5312  0.0000
15140TIP3   OH266910   4.364   4.071  12.957  0.0151 -0.0692 -0.2679
15140TIP3    H166911   4.436   4.085  12.896  0.4404  0.4525  0.3436
15140TIP3    H266912   4.342   3.978  12.949  2.0692 -0.7115  0.9622
15141TIP3   OH266913   5.559   1.230   0.188  0.3631 -0.1222  0.1896
15141TIP3    H166914   5.585   1.237   0.096  1.2499  1.2880  0.5231
15141TIP3    H266915   5.466   1.252   0.188  0.9097  2.5650 -0.0909
15142TIP3   OH266916   1.485   2.924   6.249  0.1361 -0.4336  0.3756
15142TIP3    H166917   1.574   2.957   6.260  0.3525 -0.0200 -2.1912
15142TIP3    H266918   1.495   2.829   6.247  0.5868 -0.3693 -0.4342
15143TIP3   OH266919   1.039   1.081  17.099 -0.3773  0.2479  0.2550
15143TIP3    H166920   1.068   0.991  17.114  1.5948  0.9341  0.8332
15143TIP3    H266921   1.073   1.103  17.012  0.8517  1.0396  0.9089
15144TIP3   OH266922   3.936   4.791   2.369  0.5565  0.0422 -0.5332
15144TIP3    H166923   3.908   4.856   2.432  1.7026 -0.3399  0.4238
15144TIP3    H266924   3.906   4.708   2.405  0.2706 -0.0844 -1.0539
15145TIP3   OH266925   5.906   0.246  13.963  0.3253 -0.2466 -0.5649
15145TIP3    H166926   5.932   0.224  13.873  1.3819  0.7255 -0.5158
15145TIP3    H266927   5.827   0.299  13.953  0.7006  0.2468 -0.9547
15146TIP3   OH266928   1.924   4.006  13.152 -0.8258 -0.2721 -0.0962
15146TIP3    H166929   1.874   4.073  13.198 -1.0145  0.4385 -1.3083
15146TIP3    H266930   1.881   3.997  13.067  0.0192 -0.9561 -0.4740
15147TIP3   OH266931   0.752   3.057   1.851  0.0820 -0.2918 -0.3132
15147TIP3    H166932   0.691   2.988   1.878 -1.4485  0.9368 -0.5194
15147TIP3    H266933   0.801   3.078   1.930 -0.5255 -0.5482  0.1414
15148TIP3   OH266934   3.290   3.200   0.696 -0.0020  0.8043  0.4267
15148TIP3    H166935   3.360   3.136   0.710  0.0700  0.6619 -0.5230
15148TIP3    H266936   3.249   3.173   0.614 -0.6833  1.3368  0.5851
15149TIP3   OH266937   2.012   5.889   1.966  0.2582  0.7387  0.6383
15149TIP3    H166938   2.071   5.944   1.916  0.4218  1.7994  1.9434
15149TIP3    H266939   2.035   5.906   2.058 -1.0306  0.0089  1.1225
15150TIP3   OH266940   3.828   6.823   5.333  0.2494  1.0299 -0.2472
15150TIP3    H166941   3.914   6.802   5.296 -0.4809 -0.7909 -1.0436
15150TIP3    H266942   3.838   6.910   5.369  2.1996  1.1997 -1.0748
15151TIP3   OH266943   5.876   5.184  13.827  0.9208 -0.0064  0.5383
15151TIP3    H166944   5.892   5.106  13.775  1.6371 -0.0783  0.8544
15151TIP3    H266945   5.896   5.257  13.769 -0.4786 -0.0199 -0.0029
15152TIP3   OH266946   0.943   0.487  16.544 -0.3239  0.4041 -0.2046
15152TIP3    H166947   0.866   0.497  16.489  1.0426  1.2464 -2.1095
15152TIP3    H266948   1.004   0.554  16.512  1.6677 -1.0541  0.3578
15153TIP3   OH266949   2.642   1.149   2.245  0.7285  0.0692  0.2754
15153TIP3    H166950   2.592   1.133   2.325  1.2988 -0.5549  0.5207
15153TIP3    H266951   2.597   1.222   2.202 -0.9263 -1.0464  0.0158
15154TIP3   OH266952   5.426   2.770   0.255 -0.3356 -0.4006 -0.4149
15154TIP3    H166953   5.350   2.720   0.286 -2.2656  2.5398  0.0438
15154TIP3    H266954   5.454   2.725   0.176 -0.1524 -3.7015  1.3824
15155TIP3   OH266955   4.227   3.492  11.959  0.3505 -0.6285  0.0225
15155TIP3    H166956   4.305   3.496  11.904 -0.7783  0.9872 -1.5799
15155TIP3    H266957   4.180   3.574  11.941 -1.9613 -1.7412  0.5619
15156TIP3   OH266958   5.060   6.608   6.565 -0.1845 -0.5206  0.4005
15156TIP3    H166959   4.983   6.634   6.516  0.1421 -0.1529  0.0718
15156TIP3    H266960   5.123   6.580   6.499  0.8276  1.4643  0.4529
15157TIP3   OH266961   1.539   1.142   4.645 -0.0061  0.1225  0.2764
15157TIP3    H166962   1.481   1.119   4.572  0.8067 -1.6670  0.1352
15157TIP3    H266963   1.624   1.158   4.604  0.6901 -1.8136  0.8607
15158TIP3   OH266964   5.722   1.042   6.559 -0.3935 -0.2984  0.3100
15158TIP3    H166965   5.813   1.038   6.587 -0.1721  1.3948 -0.0635
15158TIP3    H266966   5.678   0.973   6.609  1.0107 -0.8974  0.7625
15159TIP3   OH266967   4.877   4.628  13.367  0.0872  0.4331  0.9343
15159TIP3    H166968   4.791   4.613  13.327  0.3795  0.5886  0.2338
15159TIP3    H266969   4.859   4.686  13.441 -0.2224  1.7465 -0.1302
15160TIP3   OH266970   3.724   0.463  11.575 -0.1513  0.3293  0.1627
15160TIP3    H166971   3.752   0.421  11.493 -0.1064 -1.3139  0.9812
15160TIP3    H266972   3.762   0.409  11.644 -1.2807  0.9140  1.2787
15161TIP3   OH266973   3.589   3.465   5.271  0.2452  0.1431 -0.5547
15161TIP3    H166974   3.638   3.386   5.292  0.8062  0.1053 -1.8710
15161TIP3    H266975   3.582   3.463   5.175 -3.3261 -0.4596 -0.4144
15162TIP3   OH266976   5.095   0.539   1.196  0.1545  0.3864  0.0681
15162TIP3    H166977   5.031   0.499   1.255  0.2451  0.8626  0.5014
15162TIP3    H266978   5.044   0.569   1.121 -0.0708  0.4104  0.2306
15163TIP3   OH266979   4.674   5.040  15.970  0.0421  0.2442 -0.0122
15163TIP3    H166980   4.685   5.049  16.065 -3.5556  0.1722  0.5382
15163TIP3    H266981   4.722   5.115  15.934  1.7363  0.1263  1.7599
15164TIP3   OH266982   4.584   4.586   2.522 -0.6000  0.4181 -0.6538
15164TIP3    H166983   4.515   4.551   2.466 -1.5249  0.6575  0.3047
15164TIP3    H266984   4.603   4.673   2.485 -0.6148  0.2420 -1.0773
15165TIP3   OH266985   2.064   0.820   4.094 -0.6256  0.1662  0.4074
15165TIP3    H166986   2.144   0.792   4.049 -0.3371 -0.1281  1.0943
15165TIP3    H266987   2.094   0.853   4.179 -0.9746  2.3786 -0.2625
15166TIP3   OH266988   2.114   4.265  17.144 -0.5053 -0.2310  0.4677
15166TIP3    H166989   2.117   4.355  17.178 -0.1482 -0.4099  0.9217
15166TIP3    H266990   2.022   4.250  17.125 -0.7090 -0.0902  1.2880
15167TIP3   OH266991   6.291   2.653   3.274  0.4471 -0.3361  0.0922
15167TIP3    H166992   6.348   2.576   3.268  2.7073  1.3008 -0.9895
15167TIP3    H266993   6.343   2.717   3.323 -1.3862  0.5433  1.0042
15168TIP3   OH266994   1.188   4.560  12.409 -0.2609 -0.2902  0.7106
15168TIP3    H166995   1.104   4.514  12.409  0.8507 -2.4350  0.5757
15168TIP3    H266996   1.210   4.569  12.502 -0.2086 -0.5486  0.7229
15169TIP3   OH266997   5.400   6.065   2.980 -0.8640 -0.4269  0.4252
15169TIP3    H166998   5.369   5.983   2.941 -0.8286 -1.6525  2.7964
15169TIP3    H266999   5.465   6.038   3.045 -0.4638  1.5326  0.9020
15170TIP3   OH267000   3.130   2.190   4.413 -0.0839 -0.5465  0.4043
15170TIP3    H167001   3.155   2.250   4.343 -0.1213 -0.4474  0.4769
15170TIP3    H267002   3.150   2.237   4.494 -1.1369 -0.2052  0.4694
15171TIP3   OH267003   6.673   2.838   2.892 -0.2176 -0.4012 -1.0361
15171TIP3    H167004   6.662   2.791   2.974 -0.6293  0.5132 -0.5556
15171TIP3    H267005   6.631   2.782   2.827  0.0945 -1.1213 -0.6315
15172TIP3   OH267006   0.262   6.831   1.103 -0.5118  0.0261  0.0676
15172TIP3    H167007   0.198   6.765   1.131  0.9178 -1.6895 -0.5014
15172TIP3    H267008   0.333   6.824   1.167  1.9057 -2.5728 -2.5919
15173TIP3   OH267009   6.826   5.241  15.325 -0.0962  0.1675 -0.0085
15173TIP3    H167010   6.799   5.186  15.398 -0.0262  1.7748  1.2875
15173TIP3    H267011   6.886   5.305  15.364  0.8570  0.3642 -1.6965
15174TIP3   OH267012   5.262   3.419   0.892 -0.1455  0.2847 -0.6731
15174TIP3    H167013   5.322   3.432   0.819  0.5394 -1.5508 -0.4925
15174TIP3    H267014   5.294   3.340   0.936 -1.3218  0.5916  0.8267
15175TIP3   OH267015   3.664   2.450   2.958  0.6458 -0.6540  0.2187
15175TIP3    H167016   3.747   2.447   2.910 -0.3941 -0.1111 -1.7360
15175TIP3    H267017   3.672   2.527   3.015  1.9057 -1.2867  0.9278
15176TIP3   OH267018   1.167   4.501   3.541  0.4240  0.5422 -0.2031
15176TIP3    H167019   1.207   4.588   3.538  0.3515  0.6118  0.8286
15176TIP3    H267020   1.232   4.447   3.586 -0.0951  0.3621  0.3320
15177TIP3   OH267021   0.681   2.283   3.205 -0.6501 -0.2328 -0.3706
15177TIP3    H167022   0.749   2.340   3.240 -1.0329 -0.2457  0.4148
15177TIP3    H267023   0.673   2.213   3.270 -1.8701  0.1241 -0.1180
15178TIP3   OH267024   6.431   3.416   3.961  0.3339 -0.4158  0.3290
15178TIP3    H167025   6.349   3.366   3.960 -1.6626  2.5021  2.3574
15178TIP3    H267026   6.499   3.351   3.939 -2.1510 -3.6267  1.3453
15179TIP3   OH267027   2.357   1.632   1.392 -0.0216  0.0868  0.7461
15179TIP3    H167028   2.368   1.669   1.479  0.5818  1.1149  0.2560
15179TIP3    H267029   2.397   1.546   1.397  1.5478  0.7944  1.0642
15180TIP3   OH267030   2.472   2.533  14.434  0.0017 -0.1847 -0.3941
15180TIP3    H167031   2.499   2.543  14.343  1.2478  0.0254 -0.0222
15180TIP3    H267032   2.411   2.605  14.450 -2.5250 -1.8486 -1.8405
15181TIP3   OH267033   0.938   6.521   6.438 -0.5284  0.5206  0.3479
15181TIP3    H167034   0.947   6.481   6.352 -1.0171  0.3874  0.3567
15181TIP3    H267035   1.028   6.540   6.466 -0.4261  2.7487 -1.2193
15182TIP3   OH267036   5.677   6.593   5.946 -0.1938  0.7567  0.3756
15182TIP3    H167037   5.641   6.527   6.005  0.5110  0.1808  0.1691
15182TIP3    H267038   5.600   6.639   5.913 -0.8529 -1.1594 -0.9171
15183TIP3   OH267039   6.267   6.164  16.391  0.0236 -0.0630 -0.1758
15183TIP3    H167040   6.345   6.186  16.340 -0.2899  0.7705 -0.3014
15183TIP3    H267041   6.266   6.228  16.462 -0.7298  0.1504 -0.3704
15184TIP3   OH267042   1.058   4.623  16.097 -0.1659  0.1718 -0.2423
15184TIP3    H167043   1.116   4.678  16.150 -0.1197 -0.5537  0.4582
15184TIP3    H267044   1.001   4.686  16.052  0.4681  0.8393 -0.1309
15185TIP3   OH267045   1.203   5.347   5.105 -0.5582 -0.0541 -0.2846
15185TIP3    H167046   1.124   5.347   5.052 -1.9799 -2.9757  1.5306
15185TIP3    H267047   1.239   5.259   5.094  0.7663  0.2486  1.2426
15186TIP3   OH267048   5.467   6.048  16.450 -0.3800 -0.0057  0.1801
15186TIP3    H167049   5.475   5.984  16.379  1.2379 -0.8054  1.0470
15186TIP3    H267050   5.471   6.133  16.405  0.2363 -0.4937 -0.7272
15187TIP3   OH267051   2.206   2.018  13.390  0.3456 -0.7737  0.0799
15187TIP3    H167052   2.243   1.967  13.461  0.3712 -1.0095 -0.1002
15187TIP3    H267053   2.137   2.070  13.431  1.0954 -0.0832  0.4715
15188TIP3   OH267054   5.386   1.042   3.246  0.0190  0.0899 -0.0197
15188TIP3    H167055   5.458   1.012   3.191  0.8808  0.0655  1.0961
15188TIP3    H267056   5.349   0.962   3.283  0.7892  0.2124  1.0677
15189TIP3   OH267057   1.313   1.942   2.770 -0.2420  0.2968 -0.2850
15189TIP3    H167058   1.282   1.926   2.859 -3.1365  0.0399 -1.2207
15189TIP3    H267059   1.377   2.012   2.778  0.1973 -0.3108  2.0760
15190TIP3   OH267060   6.191   1.798   1.557 -0.3387 -0.1712 -0.5022
15190TIP3    H167061   6.269   1.825   1.605 -0.4367  2.0339 -1.4425
15190TIP3    H267062   6.225   1.749   1.482  0.0284 -0.4259 -0.1763
15191TIP3   OH267063   2.491   5.647   6.246  0.1340  0.2192 -0.6332
15191TIP3    H167064   2.447   5.694   6.175  1.2119  4.0906  0.9876
15191TIP3    H267065   2.440   5.669   6.324  1.2935 -0.5321  0.3776
15192TIP3   OH267066   6.498   2.948   5.009 -0.9317 -0.4451  0.2134
15192TIP3    H167067   6.517   2.876   4.950  0.3964 -0.9298  1.1820
15192TIP3    H267068   6.547   3.022   4.973  0.9787 -1.0736  1.3612
15193TIP3   OH267069   1.789   3.065  15.636 -0.0313  0.8527  0.0072
15193TIP3    H167070   1.870   3.030  15.598  0.6970  1.9459  0.4883
15193TIP3    H267071   1.816   3.102  15.720 -1.2851  0.1077  0.7561
15194TIP3   OH267072   0.454   0.587  11.721 -0.2325 -0.5913  0.5839
15194TIP3    H167073   0.363   0.614  11.716  0.0091  0.2682  0.6373
15194TIP3    H267074   0.458   0.523  11.792 -0.9288 -1.2313  0.0587
15195TIP3   OH267075   0.244   5.394  13.738  0.5435  0.1460 -0.1044
15195TIP3    H167076   0.167   5.396  13.681  0.5874  0.2101 -0.1610
15195TIP3    H267077   0.210   5.363  13.822  0.7325 -1.3839 -0.5579
15196TIP3   OH267078   1.146   6.474   2.985  0.9858  0.3152  0.1231
15196TIP3    H167079   1.126   6.380   2.981  1.4923  0.1945  0.3273
15196TIP3    H267080   1.168   6.498   2.895 -0.0747  0.4608 -0.1183
15197TIP3   OH267081   0.717   3.614   1.897  1.1470 -0.7549  0.2052
15197TIP3    H167082   0.657   3.571   1.836  0.6055  2.3209 -1.6427
15197TIP3    H267083   0.679   3.598   1.983  0.8662 -3.6069 -0.3468
15198TIP3   OH267084   1.247   3.801  15.088 -0.3023  0.0475  0.0835
15198TIP3    H167085   1.320   3.856  15.061 -1.1285  1.9992  1.5464
15198TIP3    H267086   1.249   3.802  15.183 -1.3294 -1.1234  0.1501
15199TIP3   OH267087   1.622   2.206   3.070  0.4053 -0.0989  0.4524
15199TIP3    H167088   1.650   2.191   2.980  1.7873 -0.8508  0.9825
15199TIP3    H267089   1.586   2.295   3.070 -1.2418 -0.6995 -1.1910
15200TIP3   OH267090   0.450   3.149  17.087 -0.0866  0.1783  0.1120
15200TIP3    H167091   0.463   3.137  17.181 -1.5077  0.1778  0.3242
15200TIP3    H267092   0.478   3.239  17.071  0.9092 -0.0713  0.3744
15201TIP3   OH267093   5.632   6.423  16.480  0.1776  0.0126 -0.4761
15201TIP3    H167094   5.570   6.443  16.550 -2.1218 -1.4047 -1.9885
15201TIP3    H267095   5.588   6.453  16.400  1.1607 -1.5753 -1.6688
15202TIP3   OH267096   1.316   0.447   3.742  0.1486  0.3512  0.2921
15202TIP3    H167097   1.271   0.478   3.663 -1.0203 -0.7452  0.4958
15202TIP3    H267098   1.260   0.477   3.814 -0.4427 -1.2933  0.5396
15203TIP3   OH267099   2.752   0.525   4.282  0.0008 -0.7088 -0.3725
15203TIP3    H167100   2.762   0.452   4.343 -0.2524 -2.2850 -2.1276
15203TIP3    H267101   2.658   0.528   4.264  0.1346 -0.5958 -1.0643
15204TIP3   OH267102   1.819   4.135  15.620 -0.0601  0.0623  0.1283
15204TIP3    H167103   1.769   4.205  15.578 -1.0331 -0.1805  0.8438
15204TIP3    H267104   1.755   4.065  15.634  0.3125  0.0030  1.6744
15205TIP3   OH267105   4.395   1.645  16.713  0.7062  0.2178  0.1538
15205TIP3    H167106   4.356   1.653  16.800 -0.3345  0.8571 -0.3533
15205TIP3    H267107   4.426   1.555  16.708 -1.7450 -0.7051  0.1731
15206TIP3   OH267108   6.507   5.192   2.957  0.6424 -0.3878  0.2672
15206TIP3    H167109   6.582   5.181   3.015  0.9185  0.5501  0.1100
15206TIP3    H267110   6.512   5.283   2.929 -1.9193  0.4477  2.1651
15207TIP3   OH267111   2.946   3.093   2.495  0.3338 -0.3541  0.7886
15207TIP3    H167112   2.950   3.008   2.539  0.1084  0.1423  1.8137
15207TIP3    H267113   2.853   3.116   2.495  0.3142 -0.4157 -0.1058
15208TIP3   OH267114   3.100   6.204  16.411  0.5086 -0.5218 -0.7783
15208TIP3    H167115   3.079   6.235  16.500 -1.7376  3.2674 -2.3976
15208TIP3    H267116   3.017   6.172  16.377  0.4670  1.3360 -2.5957
15209TIP3   OH267117   6.243   6.192  10.980  1.1034  0.8726  0.1882
15209TIP3    H167118   6.219   6.259  10.916 -1.6937  0.3892  0.6243
15209TIP3    H267119   6.230   6.109  10.935  0.2280  0.5521  0.9913
15210TIP3   OH267120   4.651   3.193   4.334 -0.8707  0.0525  0.4396
15210TIP3    H167121   4.684   3.195   4.244 -1.5702  1.3772  0.1890
15210TIP3    H267122   4.594   3.116   4.337 -0.8423 -0.0008 -0.2538
15211TIP3   OH267123   2.155   0.301   2.500  0.0358  0.4178  0.4910
15211TIP3    H167124   2.193   0.371   2.447 -0.4593  0.2252 -0.1365
15211TIP3    H267125   2.085   0.265   2.445 -0.8725  0.5859  1.5167
15212TIP3   OH267126   2.477   1.392  16.236 -0.2852  0.2990 -0.1817
15212TIP3    H167127   2.470   1.452  16.310 -0.4116 -1.0477  0.9469
15212TIP3    H267128   2.399   1.336  16.244 -0.7035  0.5924 -1.7889
15213TIP3   OH267129   3.270   4.344  15.697  0.0221  0.2163  0.4552
15213TIP3    H167130   3.292   4.437  15.698 -0.5451  0.3584  0.3666
15213TIP3    H267131   3.178   4.342  15.670  0.5443 -0.4597 -1.4546
15214TIP3   OH267132   4.084   2.673   2.271 -0.1415  0.0280 -0.2231
15214TIP3    H167133   4.043   2.594   2.236 -1.4288  1.2745 -1.7308
15214TIP3    H267134   4.041   2.687   2.355 -0.0737 -0.7355 -0.0529
15215TIP3   OH267135   5.258   1.544  12.087  0.2246 -0.0480  0.1041
15215TIP3    H167136   5.333   1.586  12.128 -1.2136  1.1039  1.7110
15215TIP3    H267137   5.188   1.609  12.092 -0.8196 -0.9521 -1.6407
15216TIP3   OH267138   2.034   1.582  16.582  0.1339  0.0645  0.4044
15216TIP3    H167139   1.969   1.653  16.585 -0.4584 -0.4761  0.4970
15216TIP3    H267140   2.065   1.575  16.672 -1.9920 -1.7746  1.0737
15217TIP3   OH267141   3.308   6.768   0.301 -0.5230 -0.1296 -0.3304
15217TIP3    H167142   3.275   6.720   0.377 -0.5769 -2.2823 -1.6565
15217TIP3    H267143   3.403   6.765   0.310 -0.5282  1.4386  0.6847
15218TIP3   OH267144   0.946   5.804   3.469  0.4406 -0.1975 -0.2993
15218TIP3    H167145   0.969   5.713   3.453 -0.0408 -0.6802  1.5764
15218TIP3    H267146   0.855   5.802   3.497 -0.3744  1.1523 -2.5399
15219TIP3   OH267147   0.399   1.510   1.092 -0.1647 -0.1424 -0.0586
15219TIP3    H167148   0.478   1.486   1.140  0.6747  2.0677 -0.2244
15219TIP3    H267149   0.429   1.531   1.004 -1.0148  0.2163 -0.2741
15220TIP3   OH267150   0.108   2.067   4.400  0.4561 -0.4751 -0.0639
15220TIP3    H167151   0.174   2.070   4.331  0.4895 -0.0360 -0.0110
15220TIP3    H267152   0.156   2.084   4.481 -0.0332  1.9537 -0.2273
15221TIP3   OH267153   0.070   1.030  15.671 -0.1710  0.6449 -0.2449
15221TIP3    H167154  -0.023   1.051  15.663 -0.1252  1.0274  0.1807
15221TIP3    H267155   0.072   0.952  15.728 -0.2892 -0.0050 -1.1165
15222TIP3   OH267156   2.378   4.943  15.579  0.2056  0.3942  0.2520
15222TIP3    H167157   2.390   4.850  15.594 -0.7586  0.0560 -0.8512
15222TIP3    H267158   2.423   4.986  15.652  1.8252 -0.8769  0.0547
15223TIP3   OH267159   0.763   4.279   2.637 -0.0335  0.1296 -0.1414
15223TIP3    H167160   0.829   4.312   2.576  0.4404  0.0712  0.3251
15223TIP3    H267161   0.696   4.347   2.640  0.5128  0.6707  0.1576
15224TIP3   OH267162   4.538   3.059  12.906 -0.4952 -0.1308 -0.1270
15224TIP3    H167163   4.529   3.061  13.001 -0.6033 -2.4153 -0.0258
15224TIP3    H267164   4.617   3.110  12.888 -0.5991  0.5167  1.1607
15225TIP3   OH267165   5.736   3.345  13.001 -0.0608  0.0239  0.0755
15225TIP3    H167166   5.719   3.283  12.931  0.4510 -0.3818  0.3015
15225TIP3    H267167   5.762   3.425  12.955  3.9016 -1.2341 -0.3029
15226TIP3   OH267168   2.019   2.202  13.506  0.0621  0.1973  0.1682
15226TIP3    H167169   1.936   2.161  13.482 -0.2731  1.4476 -0.9473
15226TIP3    H267170   2.016   2.288  13.464  2.1153  0.1008 -0.2718
15227TIP3   OH267171   2.415   0.734   4.672 -0.1183  0.1906 -0.6663
15227TIP3    H167172   2.432   0.681   4.750  0.5079  0.6097 -0.5069
15227TIP3    H267173   2.364   0.808   4.704  0.2854  0.4519 -0.6167
15228TIP3   OH267174   1.435   2.689   1.372 -0.0711  0.0243  0.6642
15228TIP3    H167175   1.418   2.702   1.279  0.5676  0.6857  0.6234
15228TIP3    H267176   1.522   2.727   1.386  0.5089 -1.4440  1.2286
15229TIP3   OH267177   4.211   4.725  10.718 -0.1151 -0.6336 -0.5423
15229TIP3    H167178   4.222   4.732  10.623 -1.5258 -1.7105 -0.8271
15229TIP3    H267179   4.179   4.811  10.745  1.6718  0.1608 -0.7739
15230TIP3   OH267180   0.243   2.873   1.531  0.3792 -0.2873 -0.1178
15230TIP3    H167181   0.216   2.871   1.623 -3.5357  0.6211 -1.0865
15230TIP3    H267182   0.279   2.961   1.519  1.2068 -0.5154  0.5680
15231TIP3   OH267183   0.556   1.595   3.071  0.4139 -0.1795  0.1231
15231TIP3    H167184   0.577   1.503   3.054  0.5421  0.0495 -1.0602
15231TIP3    H267185   0.549   1.601   3.166  2.3643 -0.9969  0.3661
15232TIP3   OH267186   1.522   1.697   0.493  0.1660 -0.2912 -0.0199
15232TIP3    H167187   1.523   1.616   0.544 -0.4191 -0.4875 -0.3044
15232TIP3    H267188   1.510   1.668   0.402  0.1957  0.1043 -0.1539
15233TIP3   OH267189   5.717   3.787   0.540  0.1020 -0.1647  0.3548
15233TIP3    H167190   5.731   3.712   0.599 -0.1842  0.6627  1.5041
15233TIP3    H267191   5.784   3.850   0.566 -0.1716  0.3018 -0.0661
15234TIP3   OH267192   1.301   6.564   5.652 -0.4303  0.2842 -0.2426
15234TIP3    H167193   1.237   6.631   5.626 -0.4975 -0.0897 -1.0803
15234TIP3    H267194   1.294   6.561   5.748 -1.9024  0.0337 -0.3293
15235TIP3   OH267195   4.800   2.365   5.751  0.1142 -0.1726 -0.9060
15235TIP3    H167196   4.873   2.338   5.696  2.3341  1.7204  0.9054
15235TIP3    H267197   4.795   2.297   5.819 -1.7896 -1.8189 -2.5624
15236TIP3   OH267198   1.136   2.675  14.431 -0.3010 -0.1050 -0.1355
15236TIP3    H167199   1.045   2.647  14.445  0.0155 -1.2240 -0.2247
15236TIP3    H267200   1.182   2.650  14.511  0.3232 -1.3265 -0.8498
15237TIP3   OH267201   2.825   2.720   5.029  0.0374  0.5733  0.2308
15237TIP3    H167202   2.787   2.663   4.962 -0.1973 -0.1014  0.9278
15237TIP3    H267203   2.913   2.740   4.997 -0.3905  1.0266 -0.7311
15238TIP3   OH267204   3.257   3.819  11.270 -0.0080  0.2693  0.7166
15238TIP3    H167205   3.185   3.873  11.238  1.1164  1.5256  0.2256
15238TIP3    H267206   3.239   3.810  11.364 -1.1282  0.0078  0.5003
15239TIP3   OH267207   0.091   4.392  15.656 -0.4082 -0.2859  0.3942
15239TIP3    H167208   0.066   4.472  15.609 -1.4732 -0.7899  0.0766
15239TIP3    H267209   0.073   4.412  15.748  1.3119  0.5635  0.5832
15240TIP3   OH267210   4.238   2.564   4.938  0.2065  0.1577  0.0580
15240TIP3    H167211   4.191   2.484   4.913 -0.4668  0.5272  0.1250
15240TIP3    H267212   4.280   2.542   5.021  1.0283 -0.5131 -0.5138
15241TIP3   OH267213   5.783   6.202  12.124  0.0843 -0.0786 -0.1573
15241TIP3    H167214   5.728   6.261  12.176 -0.4107  0.5402 -1.3532
15241TIP3    H267215   5.749   6.209  12.035  0.9392 -1.0910 -0.5922
15242TIP3   OH267216   4.622   2.467   0.505 -0.3149  0.0965  0.6466
15242TIP3    H167217   4.663   2.385   0.533 -0.4278 -0.0358  0.4339
15242TIP3    H267218   4.575   2.443   0.425 -0.1071  0.4352  0.4210
15243TIP3   OH267219   1.246   1.530  11.043  0.1311  0.0703 -0.1112
15243TIP3    H167220   1.275   1.439  11.056  0.4916  0.4643  2.1715
15243TIP3    H267221   1.299   1.561  10.970  1.9712 -0.7420  0.8109
15244TIP3   OH267222   4.958   3.096   4.051 -0.0349  0.2474  0.0928
15244TIP3    H167223   5.027   3.129   3.994  0.2600 -0.8248 -0.2055
15244TIP3    H267224   4.976   3.135   4.136  0.0594  1.1417 -0.3317
15245TIP3   OH267225   1.193   4.356   5.328  0.1150  0.1234  0.1706
15245TIP3    H167226   1.134   4.298   5.281 -1.2921 -0.6809  2.7205
15245TIP3    H267227   1.274   4.356   5.277 -1.3432 -0.4957 -2.2536
15246TIP3   OH267228   3.134   4.315  17.164  0.2200 -0.4221 -0.0448
15246TIP3    H167229   3.147   4.300  17.257  0.4596  0.0695  0.0070
15246TIP3    H267230   3.195   4.386  17.143 -1.0762  0.6718 -0.2050
15247TIP3   OH267231   3.477   5.091  11.344  0.1744  0.4595  0.1372
15247TIP3    H167232   3.559   5.054  11.311  0.0731  1.5267 -1.4417
15247TIP3    H267233   3.423   5.015  11.364  0.9154 -0.2636 -0.5201
15248TIP3   OH267234   5.905   5.565   0.862  0.5565 -0.2708  0.0237
15248TIP3    H167235   5.823   5.597   0.825 -0.7106 -2.0615  1.0912
15248TIP3    H267236   5.952   5.527   0.789  0.6080  1.0422 -0.6560
15249TIP3   OH267237   5.478   0.561   2.309  0.8663 -0.3085  0.2355
15249TIP3    H167238   5.559   0.513   2.326  1.2322 -0.1133 -0.8948
15249TIP3    H267239   5.488   0.642   2.359  2.3052  0.6400 -1.4564
15250TIP3   OH267240   0.966   3.927   6.746  0.2803  0.2477  0.0393
15250TIP3    H167241   0.903   3.928   6.818  0.6379 -0.0971  0.3635
15250TIP3    H267242   1.028   3.858   6.770  2.8449  2.8353  1.5189
15251TIP3   OH267243   2.282   1.627  12.031  0.1820  0.6218  0.1048
15251TIP3    H167244   2.223   1.558  12.000  0.8690  0.0137  0.1403
15251TIP3    H267245   2.240   1.661  12.110  1.2447 -1.7786  1.8175
15252TIP3   OH267246   4.840   2.012  16.556  0.6631 -0.0752 -0.0865
15252TIP3    H167247   4.859   2.106  16.549  2.1947 -0.2332  1.4080
15252TIP3    H267248   4.749   2.009  16.584  0.3013  0.9149 -1.0481
15253TIP3   OH267249   1.504   3.687  15.265  0.4552 -0.5752  0.1110
15253TIP3    H167250   1.558   3.644  15.332 -2.1950 -1.2675  1.9664
15253TIP3    H267251   1.473   3.615  15.210  1.6110 -0.1427 -1.1628
15254TIP3   OH267252   2.769   5.320  13.897 -0.0320  0.3226 -0.1503
15254TIP3    H167253   2.796   5.236  13.936 -1.5821 -0.5302 -0.8267
15254TIP3    H267254   2.851   5.366  13.880  0.8064 -0.5886  1.2492
15255TIP3   OH267255   3.979   4.156  14.989 -0.3602  0.1406  0.3199
15255TIP3    H167256   3.954   4.248  14.993 -0.5983  0.1080 -0.3037
15255TIP3    H267257   3.967   4.132  14.898  2.4618  0.2505 -0.1586
15256TIP3   OH267258   0.024   2.843  12.817  0.6633  0.5102  0.2600
15256TIP3    H167259   0.016   2.752  12.787  0.1549  1.1299 -1.5847
15256TIP3    H267260  -0.065   2.878  12.811  0.7507  0.9759  1.5257
15257TIP3   OH267261   4.593   5.954   4.613 -0.4626  0.0504 -0.1686
15257TIP3    H167262   4.564   6.014   4.544 -1.1573  1.6901  1.4755
15257TIP3    H267263   4.651   6.007   4.668 -1.7162 -0.4986  1.7748
15258TIP3   OH267264   5.501   2.276   2.982  0.3466  0.2558 -0.0948
15258TIP3    H167265   5.414   2.247   2.955 -0.2484  0.6574  1.2793
15258TIP3    H267266   5.524   2.345   2.920 -0.4483  0.3386 -0.3140
15259TIP3   OH267267   0.848   0.195  12.561 -0.4922  0.2821  0.2623
15259TIP3    H167268   0.760   0.229  12.549 -0.0825  0.8412 -1.4240
15259TIP3    H267269   0.835   0.103  12.585 -1.5290  0.3300 -0.0640
15260TIP3   OH267270   2.162   3.320  12.426  0.0963 -0.5632 -0.8967
15260TIP3    H167271   2.132   3.399  12.382  0.3661 -1.1014 -2.0967
15260TIP3    H267272   2.251   3.306  12.392  0.5654 -0.6632  0.3036
15261TIP3   OH267273   5.553   1.566  13.036  0.0616  0.4833 -0.0572
15261TIP3    H167274   5.466   1.540  13.004  0.5620 -0.9273 -0.3211
15261TIP3    H267275   5.538   1.652  13.077 -1.5430  0.0822  0.2886
15262TIP3   OH267276   3.163   6.696  12.081 -0.1100  0.5453  0.0273
15262TIP3    H167277   3.128   6.744  12.156 -1.4134  0.6536 -0.6229
15262TIP3    H267278   3.187   6.610  12.116 -0.0040  0.8475  0.7125
15263TIP3   OH267279   2.340   4.388  11.762  0.1034 -0.5277  0.1899
15263TIP3    H167280   2.245   4.377  11.751  0.2194 -0.2986 -1.2425
15263TIP3    H267281   2.351   4.479  11.789  0.0319  0.3366 -2.3590
15264TIP3   OH267282   4.652   3.460  11.770 -0.7657 -0.7139  0.4180
15264TIP3    H167283   4.694   3.485  11.687 -0.1309 -0.0768  0.9217
15264TIP3    H267284   4.673   3.368  11.782 -2.3368 -1.3212 -0.9984
15265TIP3   OH267285   6.831   0.757   3.205 -0.0110  0.2630 -0.4409
15265TIP3    H167286   6.910   0.710   3.178 -0.6241 -0.6652 -0.6817
15265TIP3    H267287   6.774   0.689   3.242 -1.3759  0.6104 -1.8055
15266TIP3   OH267288   6.411   3.083  13.655  0.6445 -0.2391 -0.3525
15266TIP3    H167289   6.418   3.092  13.560 -0.9524  0.3970 -0.4469
15266TIP3    H267290   6.483   3.137  13.689  0.0293  1.1641 -1.1932
15267TIP3   OH267291   6.323   0.797  16.322  0.6463 -0.1692 -0.2271
15267TIP3    H167292   6.415   0.779  16.340  0.7280  1.2334  0.8890
15267TIP3    H267293   6.276   0.770  16.401  0.4081  1.3592  0.1893
15268TIP3   OH267294   4.698   1.491  12.100  0.4430 -0.9526  0.2234
15268TIP3    H167295   4.670   1.445  12.021  1.1430  0.4285 -0.8625
15268TIP3    H267296   4.624   1.545  12.125  1.0597  0.4649 -0.9345
15269TIP3   OH267297   0.498   3.198  11.094  0.0037 -0.0955 -0.7624
15269TIP3    H167298   0.564   3.170  11.031 -0.0908 -1.3984 -0.3032
15269TIP3    H267299   0.473   3.286  11.065  1.0394 -0.0762 -1.6543
15270TIP3   OH267300   5.068   3.690   6.086  0.9713 -0.2805  0.2557
15270TIP3    H167301   5.122   3.711   6.010 -0.4944 -0.6162 -0.9424
15270TIP3    H267302   5.047   3.774   6.125 -0.3343  0.1476 -1.2474
15271TIP3   OH267303   5.831   5.974  12.884  0.5314  0.5267 -0.1871
15271TIP3    H167304   5.807   5.882  12.896  1.6089  0.3949  1.2469
15271TIP3    H267305   5.926   5.975  12.895  0.6156  1.7235 -0.8667
15272TIP3   OH267306   2.962   1.535   2.781  0.0863  0.0811  0.3175
15272TIP3    H167307   3.017   1.532   2.703 -3.0847  1.3353 -2.2064
15272TIP3    H267308   2.996   1.465   2.837  2.9075 -0.4874 -1.8605
15273TIP3   OH267309   4.335   5.261   2.035 -0.0431 -0.3639  0.0237
15273TIP3    H167310   4.351   5.214   2.117  1.6354 -2.1278 -1.2157
15273TIP3    H267311   4.346   5.353   2.057  1.4922 -0.8702  1.5642
15274TIP3   OH267312   4.686   0.284  11.538 -0.1905 -0.1767  0.1113
15274TIP3    H167313   4.637   0.247  11.611 -1.2863  2.6071  0.9370
15274TIP3    H267314   4.721   0.208  11.492  0.3946 -2.0994  3.3630
15275TIP3   OH267315   2.487   2.372  13.246 -0.1430 -0.0930 -0.4094
15275TIP3    H167316   2.506   2.456  13.289 -1.7742 -0.0005  0.1845
15275TIP3    H267317   2.567   2.320  13.260  1.0656  1.4657 -1.1553
15276TIP3   OH267318   1.008   1.685  15.382 -0.2424  0.1304 -0.8441
15276TIP3    H167319   1.052   1.742  15.445 -1.5926  0.5246 -0.2435
15276TIP3    H267320   0.916   1.706  15.389 -0.7771 -1.9689 -0.7752
15277TIP3   OH267321   0.359   5.573  12.762  0.0757 -0.1466 -0.0813
15277TIP3    H167322   0.371   5.532  12.676 -1.1171 -0.1596 -0.2584
15277TIP3    H267323   0.376   5.502  12.824  1.9708  0.1174 -0.2440
15278TIP3   OH267324   6.017   0.638  12.047 -0.2646 -0.3569  0.2061
15278TIP3    H167325   5.922   0.644  12.039 -0.1825 -0.1277 -0.8128
15278TIP3    H267326   6.043   0.577  11.977  0.5587  1.6258 -1.3466
15279TIP3   OH267327   4.667   2.070  15.502 -0.3600 -0.0686  0.2665
15279TIP3    H167328   4.741   2.047  15.559 -1.4910 -1.3389  1.2802
15279TIP3    H267329   4.625   2.144  15.545 -0.5811 -0.3344  0.5076
15280TIP3   OH267330   2.057   4.229   3.445 -0.5228 -0.5587  0.1559
15280TIP3    H167331   2.023   4.167   3.509 -0.2844 -1.0477 -0.1919
15280TIP3    H267332   2.058   4.182   3.362 -1.3834  0.2529 -0.3370
15281TIP3   OH267333   3.295   3.908  14.230  0.4026 -0.1723 -0.5449
15281TIP3    H167334   3.249   3.829  14.257  0.1084 -0.1221 -0.8941
15281TIP3    H267335   3.230   3.959  14.182  0.5121  0.4100 -0.0935
15282TIP3   OH267336   3.709   4.138  15.068 -0.0795 -0.2836 -0.1405
15282TIP3    H167337   3.704   4.162  14.975 -1.3306 -1.5422 -0.4429
15282TIP3    H267338   3.759   4.056  15.068  1.4434  0.6089  0.5154
15283TIP3   OH267339   0.173   5.762  14.480 -0.3702 -0.2959 -0.0714
15283TIP3    H167340   0.155   5.811  14.400  1.2031 -1.3623 -1.1550
15283TIP3    H267341   0.090   5.721  14.503 -1.0520  0.7101 -0.6521
15284TIP3   OH267342   2.481   5.448  16.865  0.3950  0.0949  0.7060
15284TIP3    H167343   2.417   5.475  16.931  0.0806  1.0705  0.0289
15284TIP3    H267344   2.553   5.410  16.916  1.3398  3.1000  1.8767
15285TIP3   OH267345   0.936   6.201  12.141  0.2288  0.1774 -0.1533
15285TIP3    H167346   0.906   6.116  12.170  0.1470  0.5631  0.9289
15285TIP3    H267347   1.031   6.192  12.133  0.5453  0.6155  2.3059
15286TIP3   OH267348   4.289   6.404   0.193  0.3604 -0.3236  0.0475
15286TIP3    H167349   4.258   6.314   0.180  0.1832 -0.1617 -0.6620
15286TIP3    H267350   4.225   6.443   0.253  2.6172 -1.8801  3.8233
15287TIP3   OH267351   4.878   5.906   3.380  0.2507 -0.4260 -0.5505
15287TIP3    H167352   4.789   5.873   3.378  0.2615 -0.4478 -0.7131
15287TIP3    H267353   4.868   6.001   3.371  0.2700 -0.4760 -1.1765
15288TIP3   OH267354   6.260   0.141   2.005 -0.1836 -0.0870  0.6210
15288TIP3    H167355   6.276   0.049   1.982  3.0228  0.9057 -1.8852
15288TIP3    H267356   6.192   0.169   1.943  0.5047 -0.2335 -0.2275
15289TIP3   OH267357   5.766   3.830  16.424  0.1791  0.8551  0.8428
15289TIP3    H167358   5.845   3.883  16.411 -0.1941  1.5367  1.2596
15289TIP3    H267359   5.782   3.750  16.374  0.2687  1.8462 -0.7742
15290TIP3   OH267360   0.921   4.183   3.951  0.0282 -0.2613 -0.0768
15290TIP3    H167361   1.006   4.144   3.968  1.2598  2.1064 -0.3914
15290TIP3    H267362   0.939   4.257   3.894 -2.0131  1.3845  1.2514
15291TIP3   OH267363   6.004   3.247  13.001 -0.1372  0.4527 -0.0334
15291TIP3    H167364   6.023   3.300  12.924 -1.2236 -2.1325 -2.2853
15291TIP3    H267365   5.909   3.255  13.013 -0.4983 -1.5283 -1.0238
15292TIP3   OH267366   2.147   4.274  11.345  0.2653 -0.0241 -0.0696
15292TIP3    H167367   2.142   4.258  11.250 -0.4144 -1.2732  0.1464
15292TIP3    H267368   2.069   4.327  11.364 -0.0469 -0.4639 -0.0982
15293TIP3   OH267369   4.806   5.435  13.006  0.0620 -0.3428 -0.0412
15293TIP3    H167370   4.813   5.371  13.076  1.3562 -0.6107 -0.3900
15293TIP3    H267371   4.712   5.441  12.988 -0.2498 -0.5418  1.4413
15294TIP3   OH267372   6.248   3.092  10.856  0.3196 -0.0383  0.6015
15294TIP3    H167373   6.225   3.152  10.784 -0.0981  0.5701  1.2253
15294TIP3    H267374   6.210   3.008  10.831 -0.0667  0.2386  0.2424
15295TIP3   OH267375   4.706   2.566  11.025 -0.0869 -0.2812  0.0136
15295TIP3    H167376   4.746   2.585  10.940 -1.1808 -1.5445 -0.8242
15295TIP3    H267377   4.657   2.485  11.011 -0.3046 -0.5190  1.8600
15296TIP3   OH267378   0.069   5.643   5.823  0.4297 -0.5579 -0.2596
15296TIP3    H167379   0.133   5.644   5.894  2.3893 -0.6203 -1.9263
15296TIP3    H267380   0.107   5.583   5.758 -0.5902  0.5688 -1.9629
15297TIP3   OH267381   2.370   2.125   4.099 -0.2457  0.0214  0.3268
15297TIP3    H167382   2.331   2.182   4.032  0.1992  0.0355  0.0767
15297TIP3    H267383   2.426   2.184   4.150  0.1936 -0.1935  0.0856
15298TIP3   OH267384   5.980   2.535   6.615 -0.1729 -0.0025  0.3105
15298TIP3    H167385   6.060   2.549   6.666 -1.1677  0.1302  1.8887
15298TIP3    H267386   5.910   2.570   6.670 -1.3536 -0.2866 -0.9627
15299TIP3   OH267387   1.148   4.666   1.841 -0.5452  0.3230  0.1949
15299TIP3    H167388   1.057   4.636   1.833 -0.4945  0.2624 -0.1929
15299TIP3    H267389   1.150   4.747   1.790 -0.4342  0.4432  0.3896
15300TIP3   OH267390   1.859   0.321  14.633 -0.2222 -0.2761 -0.2296
15300TIP3    H167391   1.771   0.286  14.619 -0.0078 -1.3421  0.8939
15300TIP3    H267392   1.917   0.250  14.605  0.2342 -1.8501  4.0527
15301TIP3   OH267393   3.853   5.255   3.638  0.1341  0.4168 -0.4388
15301TIP3    H167394   3.926   5.239   3.578  0.0042 -1.4819 -0.1590
15301TIP3    H267395   3.812   5.169   3.649  0.4988  0.5345  2.8131
15302TIP3   OH267396   2.394   0.851  12.081  0.2156  0.0902  0.0247
15302TIP3    H167397   2.320   0.890  12.128  0.7399 -0.4229  1.3001
15302TIP3    H267398   2.353   0.787  12.022 -0.5886  1.8849 -1.4813
15303TIP3   OH267399   0.787   4.042  12.281 -0.7429 -0.1656  0.5889
15303TIP3    H167400   0.827   4.006  12.361  0.3461 -0.6635 -0.1584
15303TIP3    H267401   0.694   4.044  12.301 -0.4928 -0.2101  1.9096
15304TIP3   OH267402   0.262   0.862   1.097 -0.5535  0.1602  0.1428
15304TIP3    H167403   0.320   0.888   1.168  0.0739 -0.0816 -0.2773
15304TIP3    H267404   0.199   0.934   1.090 -0.3231  0.4115  0.6141
15305TIP3   OH267405   5.734   0.331  17.128 -0.1555 -0.0345  0.3918
15305TIP3    H167406   5.712   0.247  17.168 -0.7342 -0.1854 -0.2352
15305TIP3    H267407   5.662   0.349  17.067  1.4658 -0.6060 -1.8208
15306TIP3   OH267408   5.570   4.543  13.811 -0.0018  0.4331 -0.3644
15306TIP3    H167409   5.535   4.618  13.860  0.6020  1.5593 -1.5815
15306TIP3    H267410   5.660   4.569  13.790 -0.2027 -0.0575 -1.9439
15307TIP3   OH267411   1.895   5.538  11.497  0.1823  0.1656  0.2749
15307TIP3    H167412   1.970   5.545  11.438 -0.5537  0.7504 -0.6086
15307TIP3    H267413   1.819   5.558  11.442 -0.8050 -2.0074  0.7470
15308TIP3   OH267414   6.799   0.890  16.616  0.2184 -0.4863 -0.7187
15308TIP3    H167415   6.823   0.878  16.708  0.1457  0.3474 -0.5787
15308TIP3    H267416   6.752   0.810  16.593  2.0793 -1.6679 -0.6718
15309TIP3   OH267417   6.534   1.451  12.942  0.4976 -0.1336  0.7580
15309TIP3    H167418   6.531   1.543  12.916  2.0196 -0.1860  0.2989
15309TIP3    H267419   6.565   1.453  13.033 -1.1464 -0.1339  1.3468
15310TIP3   OH267420   0.817   2.973  11.707  0.4253 -0.0703 -0.1532
15310TIP3    H167421   0.903   2.992  11.745  0.1864  1.0590 -0.1417
15310TIP3    H267422   0.772   3.057  11.707 -2.0270 -1.1380  3.1783
15311TIP3   OH267423   0.883   1.095  11.820 -0.1788 -0.3754 -0.0570
15311TIP3    H167424   0.866   1.163  11.755  1.8218  1.4673  1.1969
15311TIP3    H267425   0.843   1.128  11.900  0.8155 -0.6237  0.5659
15312TIP3   OH267426   4.017   3.670   3.071 -0.1085 -0.1293 -0.1284
15312TIP3    H167427   4.041   3.687   2.980  1.8224 -0.6490  0.2450
15312TIP3    H267428   3.940   3.613   3.065  0.6723 -1.1027 -1.4581
15313TIP3   OH267429   4.695   6.138  14.141 -0.7411 -0.0355 -0.2712
15313TIP3    H167430   4.731   6.106  14.058  0.8341  1.3329 -0.1734
15313TIP3    H267431   4.730   6.226  14.150 -1.0203 -0.0779  1.7814
15314TIP3   OH267432   0.930   2.331   0.809  0.1524 -0.0732  0.3393
15314TIP3    H167433   0.952   2.254   0.860 -0.1220 -0.6448 -0.3900
15314TIP3    H267434   0.852   2.306   0.759  0.4404  0.4450 -0.3971
15315TIP3   OH267435   6.495   3.770  14.744 -0.4519  0.4909  0.4861
15315TIP3    H167436   6.537   3.851  14.717  0.9283  0.2673  1.7875
15315TIP3    H267437   6.430   3.797  14.809  0.1081  0.5573  1.0275
15316TIP3   OH267438   6.627   0.806   4.113  0.2277 -0.1577 -0.7197
15316TIP3    H167439   6.686   0.754   4.058 -0.7567 -1.1027 -0.9125
15316TIP3    H267440   6.667   0.805   4.199  0.0970 -1.4982 -0.6485
15317TIP3   OH267441   3.548   5.121  16.166 -0.3198  0.0887  0.3534
15317TIP3    H167442   3.635   5.162  16.164 -0.2798  0.0981  1.5046
15317TIP3    H267443   3.488   5.195  16.156 -0.2122  0.2483  0.8229
15318TIP3   OH267444   3.308   2.287   3.628 -0.1210 -0.1916  0.3980
15318TIP3    H167445   3.358   2.351   3.679  0.7265 -1.9254  1.8355
15318TIP3    H267446   3.245   2.251   3.691  0.1528 -1.5301 -0.0639
15319TIP3   OH267447   5.011   6.063  12.081 -0.2400  0.1130 -0.0016
15319TIP3    H167448   5.012   6.148  12.037  0.0853  1.8636  3.1405
15319TIP3    H267449   4.918   6.040  12.087 -0.5542  1.5179  1.2492
15320TIP3   OH267450   5.014   2.807   3.665  0.1530  0.0444  0.4148
15320TIP3    H167451   4.986   2.886   3.711 -1.4200 -1.2115  1.7386
15320TIP3    H267452   4.949   2.741   3.688  2.1708 -2.0473  0.4990
15321TIP3   OH267453   5.993   1.980   3.207 -0.5065  0.3836  0.3208
15321TIP3    H167454   5.990   1.892   3.246  0.9421  1.4683  3.1751
15321TIP3    H267455   5.922   2.028   3.252  0.0054  1.1905  0.2905
15322TIP3   OH267456   3.194   6.438   1.236  0.7126  0.2616 -0.0838
15322TIP3    H167457   3.169   6.437   1.328  0.3881 -0.3472 -0.1751
15322TIP3    H267458   3.290   6.442   1.236  0.8312 -1.6954  0.2983
15323TIP3   OH267459   6.724   3.656   4.950  0.2928 -0.2114  0.1967
15323TIP3    H167460   6.771   3.647   5.033 -2.0989 -0.9984  1.5446
15323TIP3    H267461   6.719   3.751   4.936  1.4003 -0.0875  0.5017
15324TIP3   OH267462   2.246   1.630  16.077 -0.1251  1.2126  0.0068
15324TIP3    H167463   2.158   1.622  16.114  0.2917  0.8377  0.9577
15324TIP3    H267464   2.261   1.724  16.070 -0.3329  1.2871  0.5139
15325TIP3   OH267465   3.976   4.494  16.246 -0.1604 -0.2193  0.5652
15325TIP3    H167466   3.937   4.496  16.158  0.1893  0.4761  0.4140
15325TIP3    H267467   3.926   4.427  16.293  0.1057 -1.1026 -0.3686
15326TIP3   OH267468   6.585   1.292   4.594  0.3121 -0.0536 -0.1829
15326TIP3    H167469   6.516   1.315   4.532 -1.8511 -1.1652  1.6545
15326TIP3    H267470   6.636   1.225   4.550 -2.0231 -1.8285 -0.3284
15327TIP3   OH267471   2.565   3.048  14.143  0.1191 -0.4135 -0.3354
15327TIP3    H167472   2.501   2.988  14.180 -1.8602  2.1395  0.6560
15327TIP3    H267473   2.622   3.071  14.217 -0.2647  0.3185 -0.2659
15328TIP3   OH267474   1.756   2.660  15.867  0.6808 -0.2450  0.4057
15328TIP3    H167475   1.804   2.579  15.886  1.4998 -0.0664 -0.7713
15328TIP3    H267476   1.785   2.722  15.934  2.9147  0.1584 -0.8308
15329TIP3   OH267477   2.237   6.342  12.833  0.3446 -0.1111  0.3534
15329TIP3    H167478   2.181   6.414  12.807  1.8392  1.2608  0.7713
15329TIP3    H267479   2.188   6.297  12.902 -0.1549  1.1752  0.8598
15330TIP3   OH267480   0.798   6.067   5.195 -0.1641 -0.5106  1.0728
15330TIP3    H167481   0.854   5.992   5.213 -1.8218 -1.8746  0.7818
15330TIP3    H267482   0.842   6.114   5.125  0.8174 -1.3226  1.1285
15331TIP3   OH267483   0.908   1.070   4.542 -0.1494  0.5962 -0.7095
15331TIP3    H167484   0.864   1.007   4.485 -0.2594  0.6103 -0.6401
15331TIP3    H267485   0.947   1.017   4.612 -0.7438  0.6589 -0.3243
15332TIP3   OH267486   4.744   3.566   2.222 -0.1485  0.2252  0.0183
15332TIP3    H167487   4.675   3.579   2.287 -0.7585 -2.4078  0.0378
15332TIP3    H267488   4.806   3.637   2.237 -1.5133  1.1212  1.7879
15333TIP3   OH267489   1.049   6.486   4.582 -0.1220  0.1512 -0.2894
15333TIP3    H167490   0.996   6.453   4.510 -1.9746  1.4967  0.3727
15333TIP3    H267491   1.043   6.581   4.575  1.8328  0.3526  0.1333
15334TIP3   OH267492   2.119   6.487   2.533  0.1945 -0.7327 -0.3641
15334TIP3    H167493   2.102   6.401   2.570  1.9529 -0.6711  0.6995
15334TIP3    H267494   2.058   6.545   2.578 -0.1731 -1.2283 -0.2157
15335TIP3   OH267495   2.397   2.362  16.942 -0.1271  0.4761  0.0322
15335TIP3    H167496   2.307   2.392  16.928 -0.1750  1.1412  1.6134
15335TIP3    H267497   2.390   2.267  16.951 -0.8082  0.6113  1.0630
15336TIP3   OH267498   3.997   1.695  15.425  0.1803  0.3905 -0.1646
15336TIP3    H167499   3.972   1.615  15.473 -1.6060 -0.0340 -1.6796
15336TIP3    H267500   4.052   1.663  15.353 -0.9875  0.3983 -1.0995
15337TIP3   OH267501   3.040   6.706  17.059  0.2445 -0.2321  0.3781
15337TIP3    H167502   3.048   6.757  17.140  2.1448  0.1536 -0.0087
15337TIP3    H267503   3.062   6.767  16.989  0.7697 -1.1071 -0.2434
15338TIP3   OH267504   3.453   5.337   0.894  0.0432  0.4818  0.7339
15338TIP3    H167505   3.516   5.408   0.879  0.4177  0.4742  2.1941
15338TIP3    H267506   3.368   5.381   0.895  0.0562  0.5838 -0.5526
15339TIP3   OH267507   1.884   4.230   0.815 -0.5326 -0.3510 -0.1065
15339TIP3    H167508   1.935   4.159   0.776 -0.6628  0.0612 -1.0666
15339TIP3    H267509   1.826   4.260   0.745  0.4827  1.5993 -0.2002
15340TIP3   OH267510   5.860   3.398  12.579 -0.1646  0.6138  0.1135
15340TIP3    H167511   5.787   3.459  12.581 -1.1058 -0.4664  0.0805
15340TIP3    H267512   5.825   3.318  12.618  0.9924  0.0583  0.0581
15341TIP3   OH267513   0.357   4.357  15.517 -0.0923 -0.2385  0.8966
15341TIP3    H167514   0.352   4.304  15.437  0.4676 -1.5971  1.7195
15341TIP3    H267515   0.269   4.355  15.554 -0.3057  0.2334  0.4286
15342TIP3   OH267516   6.406   6.653  16.208  0.1504  0.0485  0.2564
15342TIP3    H167517   6.414   6.585  16.141  0.3467  1.1955 -0.9145
15342TIP3    H267518   6.348   6.718  16.169  1.6290  1.5609  0.4762
15343TIP3   OH267519   4.560   4.073  15.424  0.1762  0.1891 -0.3996
15343TIP3    H167520   4.545   4.029  15.508 -1.0789 -1.5793 -1.4767
15343TIP3    H267521   4.551   4.167  15.444  0.2319 -0.1699  1.4866
15344TIP3   OH267522   4.704   1.011  13.584  0.3334  0.1102 -0.2348
15344TIP3    H167523   4.726   0.919  13.593 -0.5278 -0.0275  0.6003
15344TIP3    H267524   4.753   1.040  13.507 -0.4190 -1.3806 -1.3293
15345TIP3   OH267525   1.923   5.959  10.928 -0.7319 -0.1613  0.0757
15345TIP3    H167526   1.968   5.929  10.849  0.4843 -0.6376  0.9175
15345TIP3    H267527   1.956   6.048  10.942  0.4582 -0.7212  1.0213
15346TIP3   OH267528   0.635   2.259   2.002 -0.1513  0.2978 -0.0103
15346TIP3    H167529   0.715   2.209   2.012 -0.3188 -0.9656 -3.5363
15346TIP3    H267530   0.566   2.203   2.038 -0.0030 -0.9046 -1.5133
15347TIP3   OH267531   5.436   1.889   5.634  0.6334  0.0678 -0.2949
15347TIP3    H167532   5.457   1.977   5.665  1.6772 -0.5095  0.7091
15347TIP3    H267533   5.502   1.832   5.674 -1.2511 -1.4731  0.8362
15348TIP3   OH267534   5.673   0.423   4.097 -0.1050  0.2460  0.1149
15348TIP3    H167535   5.733   0.365   4.050  2.0772  1.7407  0.8823
15348TIP3    H267536   5.611   0.453   4.031 -0.7418 -2.1950 -0.4723
15349TIP3   OH267537   1.463   5.497  13.592 -0.7344  0.6563  0.0045
15349TIP3    H167538   1.556   5.476  13.587 -0.9393  0.0235 -1.2799
15349TIP3    H267539   1.419   5.412  13.599 -1.3035  0.8717 -0.8720
15350TIP3   OH267540   4.876   3.036   3.764 -0.3208  0.9832 -0.1639
15350TIP3    H167541   4.786   3.011   3.785  0.6835  0.0096  3.8514
15350TIP3    H267542   4.884   3.126   3.796  0.1163  1.1191 -0.6364
15351TIP3   OH267543   0.753   1.061  14.765  0.5277  0.4184  0.3554
15351TIP3    H167544   0.768   1.132  14.703 -0.7928 -1.2236 -1.9903
15351TIP3    H267545   0.658   1.051  14.768  0.4837  0.7527  3.1285
15352TIP3   OH267546   0.125   2.620  14.790 -0.2990 -0.1639 -0.0897
15352TIP3    H167547   0.099   2.676  14.863 -0.7092 -0.1761 -0.2238
15352TIP3    H267548   0.200   2.665  14.751 -0.2987  0.0222  0.1237
15353TIP3   OH267549   0.609   6.375  16.609 -0.1238 -0.6031  0.3399
15353TIP3    H167550   0.555   6.453  16.621  1.4001  0.4217  0.8643
15353TIP3    H267551   0.592   6.347  16.519  0.7269  1.5005 -0.5368
15354TIP3   OH267552   0.980   3.378  11.841  0.9181  0.0551 -0.3402
15354TIP3    H167553   1.001   3.286  11.824  0.5339  0.0934 -1.0677
15354TIP3    H267554   0.989   3.388  11.936  0.2935 -0.9072 -0.1702
15355TIP3   OH267555   5.795   1.035   0.900  0.6344  0.4456  0.1627
15355TIP3    H167556   5.820   1.072   0.815  1.1487  0.3391  0.2656
15355TIP3    H267557   5.832   0.947   0.900 -1.8323 -0.6699 -0.6773
15356TIP3   OH267558   0.585   2.955  15.442 -0.6774  0.2218 -0.1571
15356TIP3    H167559   0.675   2.975  15.414 -0.4449  0.3132  0.6383
15356TIP3    H267560   0.571   3.010  15.519 -0.7648 -1.1413  0.8372
15357TIP3   OH267561   2.427   0.461   0.650 -0.2814 -0.3187 -0.2842
15357TIP3    H167562   2.507   0.480   0.602  0.8717  1.3933  2.1220
15357TIP3    H267563   2.359   0.458   0.582  1.6466 -1.1652 -2.3136
15358TIP3   OH267564   0.579   1.775  11.462 -0.2874  0.5342  0.3192
15358TIP3    H167565   0.512   1.777  11.394  0.6511 -0.1364 -0.6557
15358TIP3    H267566   0.602   1.867  11.476 -0.8385  0.7107  0.0879
15359TIP3   OH267567   5.617   4.426   3.039 -0.4131 -0.2418  0.3823
15359TIP3    H167568   5.693   4.412   2.983  0.4310  1.2941  1.0637
15359TIP3    H267569   5.550   4.368   3.004 -0.4926  1.7555 -3.2288
15360TIP3   OH267570   2.982   2.700  14.197  0.1804  0.6636  0.1582
15360TIP3    H167571   2.956   2.791  14.185 -0.0798  0.5295 -0.3090
15360TIP3    H267572   2.903   2.656  14.226  0.6178  0.8336  1.6868
15361TIP3   OH267573   1.541   5.387  14.324 -0.2335  0.3465  0.2179
15361TIP3    H167574   1.535   5.293  14.342 -0.6316  0.3514  0.1210
15361TIP3    H267575   1.504   5.429  14.401  1.3184  0.4768  0.9225
15362TIP3   OH267576   3.852   4.083   2.207 -0.0405 -0.0992 -0.2587
15362TIP3    H167577   3.932   4.131   2.186 -1.1237  0.4960 -3.4421
15362TIP3    H267578   3.840   4.023   2.134 -2.6775  0.0760 -0.0460
15363TIP3   OH267579   4.289   3.618   6.028  0.8099 -0.0705 -0.6300
15363TIP3    H167580   4.263   3.586   6.114  0.3790  0.0580 -0.7117
15363TIP3    H267581   4.246   3.559   5.966  1.0361 -0.1004 -0.7592
15364TIP3   OH267582   4.985   0.280  14.479  0.5141  0.0039  0.5904
15364TIP3    H167583   5.075   0.292  14.511 -0.2186  0.6893  2.5387
15364TIP3    H267584   4.931   0.292  14.557 -1.2726 -0.5153 -0.5351
15365TIP3   OH267585   5.472   3.037   5.260  0.3151  0.1201  0.0713
15365TIP3    H167586   5.405   2.973   5.235 -1.7664  1.7669  1.1640
15365TIP3    H267587   5.500   3.010   5.347  1.6452 -0.9435 -0.6375
15366TIP3   OH267588   3.225   1.488   3.393 -0.0294 -0.2144  0.0357
15366TIP3    H167589   3.306   1.487   3.444 -0.7448 -1.1392  1.2158
15366TIP3    H267590   3.230   1.408   3.340  0.2082  0.1820 -0.5590
15367TIP3   OH267591   3.199   0.119   2.686  0.5778  0.2020 -0.1029
15367TIP3    H167592   3.166   0.205   2.660  1.0834  0.8147  1.2247
15367TIP3    H267593   3.245   0.087   2.608  0.3855  1.1309 -0.6095
15368TIP3   OH267594   1.782   3.414   4.167 -0.2238  0.1870  0.7971
15368TIP3    H167595   1.837   3.358   4.221  0.7741  0.1317 -0.2276
15368TIP3    H267596   1.826   3.499   4.169 -1.2794  0.7395  1.6766
15369TIP3   OH267597   2.718   3.944   5.718 -0.0759 -0.6068  0.0499
15369TIP3    H167598   2.696   4.025   5.765  1.8135 -0.3518  0.5526
15369TIP3    H267599   2.643   3.887   5.734 -1.4068  0.9605 -0.2039
15370TIP3   OH267600   3.037   5.267  13.599  0.4489 -0.4588  0.1924
15370TIP3    H167601   3.121   5.238  13.564  1.2271  0.8619  0.8909
15370TIP3    H267602   3.054   5.284  13.692 -0.8531 -1.1387  0.5828
15371TIP3   OH267603   1.350   6.161   1.876 -0.7416 -0.5281 -0.5883
15371TIP3    H167604   1.437   6.199   1.867 -0.8783  1.1504  3.0719
15371TIP3    H267605   1.365   6.067   1.885  0.4355 -0.5067 -2.0536
15372TIP3   OH267606   5.814   1.095   4.146 -0.1944  0.0100 -0.3642
15372TIP3    H167607   5.845   1.019   4.195  1.5694  0.2101 -1.0937
15372TIP3    H267608   5.864   1.169   4.181 -0.4594  0.5094 -1.0052
15373TIP3   OH267609   6.029   3.331   5.586 -0.0746  0.1232  0.0450
15373TIP3    H167610   5.994   3.420   5.580 -1.5588 -0.4716 -0.7883
15373TIP3    H267611   6.004   3.290   5.503  0.6258 -1.0632  0.3931
15374TIP3   OH267612   3.236   6.367  11.496  0.5444 -0.3696  0.2295
15374TIP3    H167613   3.289   6.446  11.507  0.0659 -0.2685  2.1866
15374TIP3    H267614   3.193   6.379  11.410  0.9330  1.2126  0.2196
15375TIP3   OH267615   4.581   5.947   0.222  0.0465  0.2920 -0.5519
15375TIP3    H167616   4.497   5.902   0.222  0.0238  0.2510  1.3374
15375TIP3    H267617   4.576   6.009   0.150 -1.3946 -0.0929 -0.7982
15376TIP3   OH267618   2.871   2.774   2.887  0.0381 -0.6131  0.1121
15376TIP3    H167619   2.876   2.684   2.857 -3.1044 -0.0376 -2.7311
15376TIP3    H267620   2.808   2.773   2.959 -2.6677 -0.4252 -2.0937
15377TIP3   OH267621   3.094   6.466  13.072  0.8099 -0.0287 -0.4073
15377TIP3    H167622   3.188   6.483  13.074  0.4568  2.3413  1.8186
15377TIP3    H267623   3.062   6.500  13.156 -2.0918 -0.3760 -1.2650
15378TIP3   OH267624   2.169   6.004   1.697  0.8650 -0.1671  0.2178
15378TIP3    H167625   2.125   6.087   1.717 -0.9651 -1.3216  1.3176
15378TIP3    H267626   2.181   6.005   1.602  0.1218  0.9964  0.1192
15379TIP3   OH267627   5.236   2.460   5.816  0.9323  0.0902  0.2962
15379TIP3    H167628   5.179   2.505   5.753  1.4264 -0.8573 -0.8666
15379TIP3    H267629   5.321   2.456   5.773  1.4796  0.0840  1.3494
15380TIP3   OH267630   1.433   3.855  13.755 -0.4964  0.2527 -0.2036
15380TIP3    H167631   1.495   3.834  13.825 -0.7361 -1.2453 -0.3968
15380TIP3    H267632   1.392   3.771  13.734 -0.2434  0.6024 -2.3082
15381TIP3   OH267633   2.255   4.309  14.845 -0.7249  0.2662 -0.6385
15381TIP3    H167634   2.249   4.239  14.910  1.7566  0.9715  0.4720
15381TIP3    H267635   2.269   4.262  14.762  2.4254 -0.7156  0.2759
15382TIP3   OH267636   1.813   6.298   1.912  0.1862 -0.4967 -0.6025
15382TIP3    H167637   1.873   6.346   1.856  3.3807 -0.2990  2.6367
15382TIP3    H267638   1.777   6.364   1.971 -0.1159 -1.2245  0.0500
15383TIP3   OH267639   5.883   1.236  14.355 -0.6160 -0.2858  0.1783
15383TIP3    H167640   5.953   1.191  14.308 -1.1581 -1.6422  0.6259
15383TIP3    H267641   5.875   1.320  14.311 -1.0998 -1.4858 -2.1945
15384TIP3   OH267642   5.443   1.895   2.300 -0.0864  0.6524  0.0910
15384TIP3    H167643   5.379   1.838   2.259 -0.9198  1.0085  0.8729
15384TIP3    H267644   5.476   1.846   2.375  0.1212  0.7004  0.0323
15385TIP3   OH267645   2.700   4.381   0.261 -0.5432 -0.3246  0.5829
15385TIP3    H167646   2.708   4.295   0.301 -0.1260 -0.9104 -0.7102
15385TIP3    H267647   2.624   4.375   0.204  1.4679 -1.0566 -2.2681
15386TIP3   OH267648   0.865   2.299  15.361  0.6341  0.3541  0.0375
15386TIP3    H167649   0.945   2.320  15.410  0.6738 -0.7392  0.4619
15386TIP3    H267650   0.887   2.220  15.313 -0.3231 -0.1873  0.4710
15387TIP3   OH267651   5.894   1.337   5.906  0.9262 -0.5452 -0.3256
15387TIP3    H167652   5.922   1.248   5.885  0.7237 -0.7689  0.3267
15387TIP3    H267653   5.910   1.346   6.001 -0.1599 -0.2969 -0.1533
15388TIP3   OH267654   5.861   5.158   3.661  0.0039 -0.3774 -0.8941
15388TIP3    H167655   5.796   5.144   3.592  0.9936 -2.1402 -1.5394
15388TIP3    H267656   5.929   5.093   3.643  1.4557  0.7416  0.3552
15389TIP3   OH267657   5.245   0.331   1.865  0.3098  0.4082 -0.5013
15389TIP3    H167658   5.240   0.418   1.825 -2.3947 -0.0903 -1.4731
15389TIP3    H267659   5.186   0.277   1.812  1.2930 -1.8423  0.5537
15390TIP3   OH267660   0.502   6.210   5.836  0.5261  0.0263 -0.1039
15390TIP3    H167661   0.562   6.138   5.818 -0.4650 -1.2590  1.3963
15390TIP3    H267662   0.425   6.193   5.781  0.0962 -0.3642  0.5963
15391TIP3   OH267663   5.873   6.678   3.913 -0.9371  0.1882 -0.1226
15391TIP3    H167664   5.842   6.589   3.932  0.9995 -0.2547  1.2746
15391TIP3    H267665   5.901   6.712   3.998  0.7560  1.1611 -1.0242
15392TIP3   OH267666   6.587   3.674  12.858  0.6814  0.0514  0.5241
15392TIP3    H167667   6.594   3.617  12.782 -0.4003 -1.1305  1.2860
15392TIP3    H267668   6.503   3.718  12.849  0.9679  0.6328  0.5692
15393TIP3   OH267669   2.660   1.852  12.555 -0.1068  0.3858  1.0204
15393TIP3    H167670   2.657   1.871  12.649 -1.9735  1.6005  0.7581
15393TIP3    H267671   2.633   1.934  12.513 -0.6274 -0.5316 -0.5125
15394TIP3   OH267672   2.157   4.661   3.222  0.1850 -0.3517  0.2089
15394TIP3    H167673   2.190   4.599   3.286 -1.3365 -3.4232 -1.7709
15394TIP3    H267674   2.068   4.682   3.252 -0.1879 -1.0606 -0.3843
15395TIP3   OH267675   2.980   4.026  13.456  0.0332  0.0198  0.5787
15395TIP3    H167676   2.952   3.969  13.385  0.1008  2.4644 -1.5614
15395TIP3    H267677   2.900   4.071  13.483  0.1840 -0.1862  1.3823
15396TIP3   OH267678   3.293   2.492  16.747  0.3950  0.1458  0.1762
15396TIP3    H167679   3.264   2.527  16.663  1.3856  0.5341 -0.0161
15396TIP3    H267680   3.367   2.435  16.726  0.6570  0.2537  0.7822
15397TIP3   OH267681   5.484   6.321   2.915  0.2199 -0.0304 -0.4760
15397TIP3    H167682   5.438   6.238   2.909 -1.4314  0.9263 -2.0159
15397TIP3    H267683   5.535   6.327   2.834  1.6473 -0.2349  0.3686
15398TIP3   OH267684   2.741   6.446   3.303 -0.2080  0.1151  0.3725
15398TIP3    H167685   2.657   6.401   3.290  1.0872 -2.1983 -0.5972
15398TIP3    H267686   2.806   6.389   3.262  1.9862  1.3358  1.9031
15399TIP3   OH267687   2.319   0.266   1.417  0.1304  0.2375  0.2057
15399TIP3    H167688   2.232   0.230   1.434  0.6119 -0.8645  0.4007
15399TIP3    H267689   2.353   0.287   1.504  0.7753 -1.0644  0.2827
15400TIP3   OH267690   1.236   3.611   4.164  0.1589 -0.1771 -0.1261
15400TIP3    H167691   1.177   3.553   4.115 -1.8965  0.7182  1.1329
15400TIP3    H267692   1.304   3.553   4.198 -0.7879 -1.5352 -0.4629
15401TIP3   OH267693   0.380   6.167   0.603 -0.0427 -0.1529 -0.1047
15401TIP3    H167694   0.401   6.077   0.580  0.3095  0.3559 -1.9629
15401TIP3    H267695   0.286   6.174   0.588  0.0395 -0.0461 -0.5726
15402TIP3   OH267696   2.868   0.574  16.508  0.2421 -0.3840 -0.2638
15402TIP3    H167697   2.778   0.543  16.511  0.5719 -1.3297  0.3866
15402TIP3    H267698   2.863   0.666  16.532 -0.8666  0.3872 -3.0806
15403TIP3   OH267699   4.896   0.316   1.234  0.1871 -0.0684 -0.0712
15403TIP3    H167700   4.921   0.313   1.327  0.5635  1.0599 -0.1148
15403TIP3    H267701   4.969   0.273   1.189 -0.4542 -1.5077  0.2162
15404TIP3   OH267702   1.037   6.810  12.168  0.2166 -0.6159  0.1838
15404TIP3    H167703   1.007   6.891  12.127  0.3853 -0.4322  0.4170
15404TIP3    H267704   1.062   6.836  12.257 -1.6542 -1.2965  0.9574
15405TIP3   OH267705   1.718   4.129   6.165 -0.0914  0.1940 -0.0099
15405TIP3    H167706   1.728   4.092   6.078 -0.8492  1.7539 -0.7914
15405TIP3    H267707   1.735   4.223   6.154  0.3843  0.3300  1.6312
15406TIP3   OH267708   0.792   0.184  16.005 -0.3976 -0.1934 -0.1530
15406TIP3    H167709   0.834   0.106  15.968  2.0971  0.3563  1.2533
15406TIP3    H267710   0.801   0.250  15.937  1.3522 -0.0400  0.1659
15407TIP3   OH267711   5.930   6.576  15.095  0.1321  0.1441 -0.7204
15407TIP3    H167712   5.922   6.669  15.117  1.4295 -0.3655  2.3389
15407TIP3    H267713   5.839   6.545  15.088 -0.3167  1.6340 -1.9687
15408TIP3   OH267714   3.460   4.994   1.215 -0.0473  0.3360  0.0776
15408TIP3    H167715   3.464   5.030   1.304 -0.0136  1.5443 -0.3831
15408TIP3    H267716   3.535   5.034   1.170 -0.1620 -0.1229 -0.5404
15409TIP3   OH267717   3.563   1.230   5.930  0.0465 -0.1553  0.1566
15409TIP3    H167718   3.530   1.225   6.019 -2.1385  1.0548 -0.4966
15409TIP3    H267719   3.515   1.163   5.882 -0.1653  0.4115 -0.4537
15410TIP3   OH267720   1.070   3.129  11.722  0.0807 -0.2090 -0.5637
15410TIP3    H167721   1.162   3.114  11.702 -0.3056 -1.9840 -1.2696
15410TIP3    H267722   1.037   3.176  11.645 -0.2088 -2.2641 -1.7941
15411TIP3   OH267723   6.774   0.436   1.880  0.2567  0.3260 -0.0902
15411TIP3    H167724   6.813   0.374   1.818 -0.1460 -0.7549  0.6864
15411TIP3    H267725   6.685   0.403   1.893  0.1423  0.8863  0.5890
15412TIP3   OH267726   6.224   4.480  11.222  0.5593 -0.0795  0.0445
15412TIP3    H167727   6.197   4.566  11.252  0.2653  0.0732 -0.6385
15412TIP3    H267728   6.303   4.496  11.169  0.9091 -0.3123  0.4840
15413TIP3   OH267729   3.344   4.627   1.015 -0.0105 -0.5412  0.1011
15413TIP3    H167730   3.256   4.591   1.020 -0.0361 -0.2985  3.2626
15413TIP3    H267731   3.396   4.557   0.975 -1.7687 -0.1108 -3.3187
15414TIP3   OH267732   2.959   6.421  13.548  0.3511  1.4572  0.0578
15414TIP3    H167733   2.925   6.510  13.560 -1.0006  1.0375 -0.4397
15414TIP3    H267734   2.905   6.385  13.477  1.7382  0.6723 -0.6392
15415TIP3   OH267735   0.394   5.559   5.147 -0.1395  0.6988  0.1818
15415TIP3    H167736   0.349   5.541   5.229  1.0064 -0.3244  0.6318
15415TIP3    H267737   0.357   5.496   5.085 -0.8045  1.2822 -0.0242
15416TIP3   OH267738   2.535   6.458   0.365  0.5268 -0.3200 -0.3204
15416TIP3    H167739   2.626   6.451   0.395  0.7380  1.1858 -0.5401
15416TIP3    H267740   2.484   6.437   0.443  1.0855  1.5977  0.6320
15417TIP3   OH267741   1.773   6.109   1.204 -0.4967 -0.0716  0.0055
15417TIP3    H167742   1.844   6.098   1.267  0.1826  1.2291 -0.5146
15417TIP3    H267743   1.705   6.156   1.252 -1.1187 -1.4439  0.5477
15418TIP3   OH267744   4.779   2.009   2.114 -0.2590  0.0196  0.3816
15418TIP3    H167745   4.821   2.026   2.198 -0.0499  0.2137  0.2372
15418TIP3    H267746   4.702   2.066   2.114  0.4946  1.0682 -0.1449
15419TIP3   OH267747   6.473   0.107  11.103 -0.1375 -0.0833  0.2267
15419TIP3    H167748   6.534   0.147  11.165 -1.6475  1.1281  0.9815
15419TIP3    H267749   6.427   0.040  11.154 -0.2683 -0.1973 -0.0377
15420TIP3   OH267750   3.545   6.562  11.402  0.2857  0.1998 -0.3041
15420TIP3    H167751   3.465   6.578  11.452 -0.6219 -1.8724 -0.9851
15420TIP3    H267752   3.533   6.613  11.321  0.0113  0.4997 -0.0781
15421TIP3   OH267753   1.567   1.417   4.113 -0.5149  0.2714  0.0077
15421TIP3    H167754   1.520   1.421   4.196 -0.2825  1.2342  0.1076
15421TIP3    H267755   1.542   1.497   4.067 -1.9752 -1.0497 -1.6009
15422TIP3   OH267756   5.049   1.530   0.227 -0.1457 -0.1838 -0.2384
15422TIP3    H167757   5.141   1.555   0.234 -0.4992  0.7267  2.2666
15422TIP3    H267758   5.001   1.610   0.251 -1.4717 -1.4724  1.7514
15423TIP3   OH267759   0.872   2.726   1.484 -0.0594 -0.0485 -0.0155
15423TIP3    H167760   0.947   2.666   1.486  0.3349  0.4481  0.4962
15423TIP3    H267761   0.820   2.702   1.561  0.1502  0.3235  0.2451
15424TIP3   OH267762   1.782   3.801  11.468 -0.8318 -0.5932  0.1480
15424TIP3    H167763   1.703   3.844  11.436 -0.2338 -0.2883 -0.9831
15424TIP3    H267764   1.767   3.789  11.562 -2.1773 -0.4772 -0.0387
15425TIP3   OH267765   4.322   4.937   0.352 -0.3284 -0.2721  0.1071
15425TIP3    H167766   4.231   4.920   0.376 -0.6933 -1.3211 -1.8424
15425TIP3    H267767   4.346   4.865   0.295  0.9200  1.2975 -1.4613
15426TIP3   OH267768   5.089   2.513  14.090  0.3184 -0.0415  0.0034
15426TIP3    H167769   5.078   2.601  14.125 -0.6976 -0.5144  0.9658
15426TIP3    H267770   5.105   2.525  13.997  0.2313  1.1575  0.1357
15427TIP3   OH267771   4.287   3.133  12.300  0.0534  0.2557 -0.2980
15427TIP3    H167772   4.193   3.124  12.314 -0.4628  2.2534 -1.9711
15427TIP3    H267773   4.309   3.061  12.241 -0.0901 -1.0562  1.1832
15428TIP3   OH267774   1.440   1.478   0.677 -0.2098 -0.0865  0.3561
15428TIP3    H167775   1.471   1.479   0.768 -1.2491  3.7391  0.8306
15428TIP3    H267776   1.345   1.486   0.684 -0.4496 -1.1362 -1.1279
15429TIP3   OH267777   2.825   5.565   4.913  0.4044  0.2994  0.3563
15429TIP3    H167778   2.888   5.522   4.856 -0.0549 -0.4845  0.4272
15429TIP3    H267779   2.819   5.509   4.990  2.3037  2.2018  2.0186
15430TIP3   OH267780   2.712   0.427  15.833 -0.1177 -0.3073 -0.0501
15430TIP3    H167781   2.771   0.461  15.900 -0.1201 -0.9535  0.2904
15430TIP3    H267782   2.726   0.484  15.758  0.0949  0.2531  0.4049
15431TIP3   OH267783   4.936   2.586  14.865 -0.4098  0.2097  0.5452
15431TIP3    H167784   4.887   2.651  14.814  0.8000  0.7640  0.0584
15431TIP3    H267785   4.931   2.617  14.955 -0.0652  0.8378  0.3524
15432TIP3   OH267786   4.030   4.918   3.166 -0.0898 -0.9303 -0.4491
15432TIP3    H167787   4.099   4.856   3.140 -0.2012 -1.9531  1.5444
15432TIP3    H267788   3.969   4.866   3.218 -0.8501  0.6017  0.2591
15433TIP3   OH267789   4.656   0.999  12.255 -0.2258  0.0172 -0.0935
15433TIP3    H167790   4.694   1.033  12.336 -2.4538 -0.2636  1.1512
15433TIP3    H267791   4.696   0.912  12.246 -0.7831 -0.4290  1.3730
15434TIP3   OH267792   2.371   6.356  14.964 -1.1508 -0.2809  0.2377
15434TIP3    H167793   2.395   6.449  14.959  0.8473 -0.6208  2.0704
15434TIP3    H267794   2.318   6.349  15.043  0.3638 -0.9513  1.2459
15435TIP3   OH267795   0.929   6.591   6.097  0.3928  0.0489  0.4481
15435TIP3    H167796   0.901   6.682   6.087  1.2679  0.2864  0.0686
15435TIP3    H267797   0.941   6.560   6.007 -1.1253 -0.8571  0.5139
15436TIP3   OH267798   0.057   1.850   3.155 -0.2790 -0.3016 -0.9051
15436TIP3    H167799   0.143   1.814   3.178 -0.5578 -1.3702 -1.4969
15436TIP3    H267800   0.063   1.943   3.180  0.8981 -0.4525 -0.5568
15437TIP3   OH267801   4.225   4.056  12.654 -0.0765  0.4603  0.2271
15437TIP3    H167802   4.220   4.147  12.685  0.4676  0.5740  0.0149
15437TIP3    H267803   4.202   4.062  12.561 -1.9642  0.0837  0.6355
15438TIP3   OH267804   1.947   0.306  11.304 -0.2044 -0.1932 -0.9207
15438TIP3    H167805   1.929   0.355  11.224  0.4916  0.1354 -0.8781
15438TIP3    H267806   1.878   0.333  11.364 -0.3794  0.0102 -1.2079
15439TIP3   OH267807   6.256   6.743  12.221 -0.4255  0.3176  0.0009
15439TIP3    H167808   6.200   6.670  12.246 -1.1265  0.4330 -1.1299
15439TIP3    H267809   6.227   6.766  12.132 -0.5434  2.2464  0.4779
15440TIP3   OH267810   4.749   1.074   3.698  0.0281 -0.1554  0.3785
15440TIP3    H167811   4.668   1.032   3.727  0.5774 -0.7858  1.0269
15440TIP3    H267812   4.742   1.163   3.732 -0.2779 -0.2835  0.6693
15441TIP3   OH267813   3.844   6.604   2.055  0.0478  1.0531 -0.2896
15441TIP3    H167814   3.808   6.689   2.029  0.3130  1.8688  1.8595
15441TIP3    H267815   3.768   6.549   2.071 -0.1318  1.0300 -1.1623
15442TIP3   OH267816   6.355   2.258   4.204 -0.5922  0.6473  0.2867
15442TIP3    H167817   6.374   2.352   4.211 -1.1336  0.6857  1.5166
15442TIP3    H267818   6.283   2.244   4.266  0.5320 -0.8749  1.2903
15443TIP3   OH267819   2.953   5.339  10.913 -0.2091 -0.2153  0.1215
15443TIP3    H167820   2.882   5.388  10.953 -0.0416 -0.1646  0.3607
15443TIP3    H267821   3.019   5.405  10.893 -0.2231 -0.2637 -0.0832
15444TIP3   OH267822   3.217   0.912   4.292  0.3336 -0.3827  0.4026
15444TIP3    H167823   3.290   0.972   4.307 -0.5227  0.3412  1.9367
15444TIP3    H267824   3.155   0.962   4.238  0.2721 -0.4240  0.4347
15445TIP3   OH267825   4.385   3.613   4.887 -0.2206 -0.1200  0.2291
15445TIP3    H167826   4.397   3.526   4.849  1.4971 -0.1104  0.6509
15445TIP3    H267827   4.454   3.620   4.954 -1.3801  0.9310  1.3802
15446TIP3   OH267828   2.218   0.424   1.834  0.0398  0.2291  0.4928
15446TIP3    H167829   2.146   0.380   1.789  1.5107 -1.1704 -0.5758
15446TIP3    H267830   2.250   0.488   1.770  0.4773  0.0517  0.5356
15447TIP3   OH267831   6.088   1.359   2.894 -0.1900 -0.0253  0.1413
15447TIP3    H167832   6.088   1.440   2.843 -1.2816 -0.0767  0.0292
15447TIP3    H267833   6.111   1.290   2.832  0.2572  0.1411  0.1263
15448TIP3   OH267834   6.145   0.493   1.728  0.9795 -0.1239 -0.3660
15448TIP3    H167835   6.221   0.465   1.778 -0.0592  0.8772  1.9559
15448TIP3    H267836   6.142   0.588   1.741 -0.9143 -0.2019  0.0271
15449TIP3   OH267837   1.535   5.414  11.967  0.4961 -0.3828 -0.0321
15449TIP3    H167838   1.556   5.495  11.920  0.4714  0.0675  0.7265
15449TIP3    H267839   1.571   5.428  12.055 -0.3550 -0.8125  0.3837
15450TIP3   OH267840   4.876   1.348   6.023 -0.3179  0.1586 -0.2938
15450TIP3    H167841   4.966   1.320   6.010 -0.9384 -1.3258 -1.6514
15450TIP3    H267842   4.876   1.441   6.001  0.3062 -0.4875 -3.5272
15451TIP3   OH267843   0.891   4.722  11.067 -0.6793  0.4573  0.1174
15451TIP3    H167844   0.946   4.689  10.995 -0.3975  0.7029  0.2165
15451TIP3    H267845   0.953   4.764  11.127 -0.9758  0.7197  0.2421
15452TIP3   OH267846   5.953   4.650   2.270  0.0460  0.1134  0.0792
15452TIP3    H167847   5.917   4.632   2.184 -0.3490  0.7672  0.1014
15452TIP3    H267848   5.877   4.673   2.324  0.2983 -0.1974  0.5791
15453TIP3   OH267849   1.362   4.636   3.812  0.8902  0.2538  0.1077
15453TIP3    H167850   1.421   4.671   3.745  0.2220  2.3654  0.5692
15453TIP3    H267851   1.420   4.598   3.878  1.8504  3.0956  1.0080
15454TIP3   OH267852   1.124   1.793   5.961 -0.2882 -0.3154  0.2341
15454TIP3    H167853   1.033   1.802   5.989  0.0304  1.5752  0.8359
15454TIP3    H267854   1.167   1.747   6.033 -0.7375 -1.1996 -0.0456
15455TIP3   OH267855   3.848   6.469  10.945 -0.7017 -0.3396  0.8726
15455TIP3    H167856   3.819   6.561  10.947 -0.0240 -0.0765 -0.2760
15455TIP3    H267857   3.807   6.433  10.866  0.5523 -0.4665  0.2517
15456TIP3   OH267858   0.328   4.926  12.566  0.5723  0.2883  0.1033
15456TIP3    H167859   0.287   4.840  12.561  0.7403  0.2597 -1.1531
15456TIP3    H267860   0.287   4.967  12.642  0.7366 -1.0131  0.9304
15457TIP3   OH267861   3.598   1.901  11.330 -1.2496 -0.1670  0.3052
15457TIP3    H167862   3.604   1.978  11.386  1.3197  0.1212 -0.2702
15457TIP3    H267863   3.543   1.840  11.379 -0.1673  0.5756  2.5395
15458TIP3   OH267864   5.996   4.215   2.665  0.6123 -0.1084 -0.8650
15458TIP3    H167865   6.064   4.149   2.653 -0.3547 -1.0163 -1.5535
15458TIP3    H267866   5.993   4.231   2.759  1.0945 -0.7845 -0.7332
15459TIP3   OH267867   6.538   4.004   1.246  0.1501 -0.4112 -0.2947
15459TIP3    H167868   6.463   3.944   1.252  0.0665 -0.2330  0.4810
15459TIP3    H267869   6.612   3.947   1.227  0.0208 -0.7338  0.1529
15460TIP3   OH267870   1.259   4.900  14.103  0.2095  0.1368 -0.1999
15460TIP3    H167871   1.177   4.938  14.134  0.3937 -0.8260  1.5860
15460TIP3    H267872   1.262   4.923  14.010 -1.1333  1.8424  0.1200
15461TIP3   OH267873   6.427   3.618   5.577  0.3224  0.7000 -0.2397
15461TIP3    H167874   6.490   3.552   5.547 -0.2817  0.8114 -1.8406
15461TIP3    H267875   6.347   3.568   5.594 -0.0742  0.9680 -1.2568
15462TIP3   OH267876   0.293   1.787   0.897  0.0801 -0.4751  0.0232
15462TIP3    H167877   0.274   1.841   0.821 -0.1401  0.1150  0.4956
15462TIP3    H267878   0.234   1.818   0.965  2.0850  0.8665  1.2805
15463TIP3   OH267879   6.470   6.466   1.680 -0.1294  0.0925 -0.4201
15463TIP3    H167880   6.536   6.398   1.667  1.7307  2.1543 -2.7780
15463TIP3    H267881   6.387   6.419   1.684  1.0553 -2.3153 -1.8570
15464TIP3   OH267882   4.796   5.163   3.622  0.1468  0.3025  0.1066
15464TIP3    H167883   4.714   5.169   3.671 -0.4724  2.6746 -1.0643
15464TIP3    H267884   4.769   5.159   3.530  1.3322  0.1402 -0.2572
15465TIP3   OH267885   6.230   1.376   5.059  0.1418 -0.4720  0.0623
15465TIP3    H167886   6.288   1.450   5.042  0.4485 -0.9761 -1.2059
15465TIP3    H267887   6.169   1.376   4.986  0.0551 -1.3869  0.1276
15466TIP3   OH267888   0.933   3.205  12.701 -0.2996 -0.2540 -0.0246
15466TIP3    H167889   1.027   3.222  12.703 -0.4460  0.5553  0.1113
15466TIP3    H267890   0.917   3.173  12.612 -0.0311  0.4153 -0.3217
15467TIP3   OH267891   2.804   3.300  11.650  0.9534 -0.2227 -0.1880
15467TIP3    H167892   2.787   3.243  11.575  1.3122 -0.1202 -0.3474
15467TIP3    H267893   2.856   3.372  11.614 -0.3604  0.7524 -0.2056
15468TIP3   OH267894   2.054   1.734   6.027 -0.5015  0.5775 -0.4989
15468TIP3    H167895   2.131   1.782   6.058  2.0427 -2.5754 -1.4280
15468TIP3    H267896   2.063   1.735   5.931  0.0932 -2.1576 -0.5611
15469TIP3   OH267897   0.904   4.017  14.332  0.0473  0.2892  0.4396
15469TIP3    H167898   0.964   4.075  14.285 -0.1361  0.9237  0.9723
15469TIP3    H267899   0.886   4.063  14.414  2.6675 -2.0732  2.5292
15470TIP3   OH267900   6.376   3.973   0.674 -0.4690 -0.0954  0.0512
15470TIP3    H167901   6.421   3.965   0.590  0.7279 -0.7686  0.7266
15470TIP3    H267902   6.364   4.067   0.687 -0.0064  0.0504 -0.5348
15471TIP3   OH267903   0.732   3.897  12.951  0.2999  0.3503  0.2304
15471TIP3    H167904   0.797   3.958  12.915 -0.7025  0.6717 -1.1576
15471TIP3    H267905   0.715   3.836  12.880 -0.0637 -0.4316  0.9782
15472TIP3   OH267906   0.638   2.646   5.904 -0.6231 -0.1466 -0.0610
15472TIP3    H167907   0.576   2.693   5.848 -0.2192  0.9968  0.4115
15472TIP3    H267908   0.584   2.606   5.971 -0.8121  1.6994  0.9538
15473TIP3   OH267909   3.764   1.943   0.639 -0.0487  0.1679 -0.0612
15473TIP3    H167910   3.751   1.903   0.554 -0.3774  0.3951 -0.1196
15473TIP3    H267911   3.852   1.917   0.665 -1.2616 -3.2074  1.3026
15474TIP3   OH267912   0.885   0.185  13.017  0.2055 -0.0591  0.2481
15474TIP3    H167913   0.794   0.163  12.996 -0.1951  0.8564  0.9260
15474TIP3    H267914   0.937   0.116  12.977 -0.6143  0.5874 -2.1180
15475TIP3   OH267915   2.853   3.596  11.032 -0.2925 -0.0268  0.4997
15475TIP3    H167916   2.894   3.651  10.966  1.2141 -3.2030 -1.4343
15475TIP3    H267917   2.910   3.603  11.108 -0.2182  1.1230  0.3556
15476TIP3   OH267918   3.720   2.498  16.117  0.7255 -0.3246  0.6891
15476TIP3    H167919   3.757   2.483  16.204  2.5622 -0.8999 -0.1419
15476TIP3    H267920   3.794   2.489  16.058 -0.6788 -1.0646 -1.0432
15477TIP3   OH267921   5.424   1.745  15.145 -0.2490  0.0174  0.0107
15477TIP3    H167922   5.368   1.704  15.210  0.3546  0.3845  0.7805
15477TIP3    H267923   5.364   1.789  15.085 -0.7625  2.4696  2.1813
15478TIP3   OH267924   5.844   0.813  16.316 -0.0282  0.0139 -0.1739
15478TIP3    H167925   5.811   0.734  16.272 -1.8102  1.0872 -0.8372
15478TIP3    H267926   5.935   0.819  16.286 -0.4360 -0.7182 -1.6815
15479TIP3   OH267927   0.262   0.597   3.422  0.1837  0.3732 -0.2714
15479TIP3    H167928   0.241   0.505   3.437 -0.2182  0.6311  0.8643
15479TIP3    H267929   0.353   0.606   3.451 -0.0134  0.4781  0.3412
15480TIP3   OH267930   0.066   5.184  14.465  0.1851 -0.1854  0.0409
15480TIP3    H167931   0.146   5.195  14.516  0.2473 -0.8659  0.1038
15480TIP3    H267932   0.085   5.110  14.406 -0.2565 -0.0942 -0.2228
15481TIP3   OH267933   0.929   2.524  12.314  0.2376 -0.4123 -0.0307
15481TIP3    H167934   0.841   2.497  12.287  0.4634  0.1745 -1.4719
15481TIP3    H267935   0.968   2.559  12.234  1.5015  0.0760  0.7771
15482TIP3   OH267936   1.702   0.675   0.348  0.4372 -0.6465  0.7308
15482TIP3    H167937   1.719   0.672   0.442  1.7046 -1.4674  0.4988
15482TIP3    H267938   1.784   0.707   0.309 -0.1942  0.0464 -0.0651
15483TIP3   OH267939   0.412   3.337  11.712  0.1669  0.0380 -0.4162
15483TIP3    H167940   0.323   3.313  11.734  0.0117  1.0831  0.1412
15483TIP3    H267941   0.414   3.336  11.616 -0.6359  0.6654 -0.4497
15484TIP3   OH267942   6.244   0.999   2.185 -0.1681  0.2898  0.3987
15484TIP3    H167943   6.312   0.968   2.244  0.3506  2.1040  0.8050
15484TIP3    H267944   6.197   1.066   2.235 -0.9951  0.4661 -0.5716
15485TIP3   OH267945   6.637   4.154   0.951 -0.3175 -0.1052  0.9399
15485TIP3    H167946   6.655   4.211   0.876  0.7836  0.3773  1.5501
15485TIP3    H267947   6.618   4.068   0.912  1.4248 -0.1665  0.1442
15486TIP3   OH267948   3.144   2.837   6.034  0.7239  0.0763  0.1710
15486TIP3    H167949   3.237   2.812   6.036  0.2406 -1.9257 -0.2207
15486TIP3    H267950   3.142   2.924   6.074  2.7660  0.1732  0.1776
15487TIP3   OH267951   3.546   1.260  12.370 -0.0334  0.1453  0.3083
15487TIP3    H167952   3.455   1.233  12.385  0.3591 -0.9332  0.9082
15487TIP3    H267953   3.543   1.356  12.369 -0.9791  0.1715  1.7820
15488TIP3   OH267954   3.331   1.993   0.500 -0.4822 -0.2692  0.4003
15488TIP3    H167955   3.412   1.942   0.506 -0.3403 -0.2192 -0.9415
15488TIP3    H267956   3.359   2.083   0.518 -0.5269 -0.4677  1.5426
15489TIP3   OH267957   4.227   6.606  17.034 -0.1542  0.1608 -0.0040
15489TIP3    H167958   4.151   6.642  16.988 -0.9456 -0.7954  0.4864
15489TIP3    H267959   4.189   6.563  17.112  0.9050 -0.2058  0.3335
15490TIP3   OH267960   6.272   1.597  15.991  0.9428  0.1029 -0.2235
15490TIP3    H167961   6.264   1.545  15.911  0.8847  2.3643 -1.7991
15490TIP3    H267962   6.294   1.534  16.059  0.8095 -1.9485 -1.9787
15491TIP3   OH267963   2.374   4.481   2.696  0.3007 -0.2111 -0.8752
15491TIP3    H167964   2.433   4.407   2.708  0.6746 -0.0414 -1.6057
15491TIP3    H267965   2.431   4.558   2.701  0.0046 -0.0017 -0.7076
15492TIP3   OH267966   3.832   3.065   1.725 -0.2309 -0.2031  0.8159
15492TIP3    H167967   3.806   3.103   1.641 -0.4262  0.7649  1.2974
15492TIP3    H267968   3.926   3.081   1.731 -0.0635 -1.0092  0.4205
15493TIP3   OH267969   2.810   3.515  16.237 -0.0861  0.1686 -0.5057
15493TIP3    H167970   2.824   3.597  16.189  0.8415 -0.4156 -1.2635
15493TIP3    H267971   2.739   3.471  16.190 -0.0478  0.1773 -0.5704
15494TIP3   OH267972   1.683   1.594  15.070  0.0357  0.1705  0.0081
15494TIP3    H167973   1.693   1.648  14.991 -1.1116  1.8300  0.9579
15494TIP3    H267974   1.706   1.652  15.142 -1.8886 -0.3847  1.1190
15495TIP3   OH267975   6.181   6.622  14.941 -0.8477 -0.1804 -0.2400
15495TIP3    H167976   6.136   6.542  14.967 -0.2551 -0.2851  0.4881
15495TIP3    H267977   6.211   6.660  15.023 -1.0050  0.7232 -0.5926
15496TIP3   OH267978   2.422   2.732   3.037 -0.4097 -0.2010 -0.2937
15496TIP3    H167979   2.342   2.694   3.001  0.7358 -2.7996 -0.3542
15496TIP3    H267980   2.442   2.806   2.979 -1.9014 -0.4692 -1.2083
15497TIP3   OH267981   3.565   3.422  16.280 -0.1772 -0.5795  0.1771
15497TIP3    H167982   3.627   3.349  16.285  0.8821  0.2690 -0.1586
15497TIP3    H267983   3.531   3.431  16.369 -1.3824 -2.3445 -0.0532
15498TIP3   OH267984   5.067   5.857   4.757  0.2242  0.5915  0.2064
15498TIP3    H167985   5.161   5.872   4.768  0.0502  3.7622 -1.3776
15498TIP3    H267986   5.027   5.893   4.837  0.3201 -2.0841  1.5657
15499TIP3   OH267987   2.707   0.911   5.196  0.3679  0.6266 -0.1652
15499TIP3    H167988   2.758   0.929   5.275  0.4496 -0.8183  0.1394
15499TIP3    H267989   2.714   0.816   5.185 -3.2496  0.1644  0.5641
15500TIP3   OH267990   6.085   1.870  13.632  0.0453 -0.1955  0.0463
15500TIP3    H167991   6.061   1.879  13.539  0.1500 -0.9988 -0.0675
15500TIP3    H267992   6.120   1.956  13.656 -0.7743  0.2831 -0.4207
15501TIP3   OH267993   1.053   0.377   0.796  0.1386  0.5441  0.1254
15501TIP3    H167994   1.033   0.310   0.862  1.1348 -1.4359 -1.4669
15501TIP3    H267995   0.969   0.418   0.777 -0.5094 -0.2879  1.1183
15502TIP3   OH267996   4.958   1.722  16.008  0.1715  0.0232 -0.4552
15502TIP3    H167997   4.910   1.796  15.972 -1.0584  0.4821  1.8970
15502TIP3    H267998   5.016   1.694  15.938 -2.1559  0.6675 -2.8016
15503TIP3   OH267999   6.329   6.296  15.825 -0.0611  0.1906  0.3708
15503TIP3    H168000   6.345   6.207  15.857  0.3972  0.6988  1.6025
15503TIP3    H268001   6.407   6.317  15.773 -0.7761 -0.6093 -1.1017
15504TIP3   OH268002   2.540   2.812   5.689  0.2368  0.4006  0.1964
15504TIP3    H168003   2.596   2.753   5.739 -2.3060 -1.2271  1.3129
15504TIP3    H268004   2.526   2.887   5.747  2.2839  1.5334 -0.6537
15505TIP3   OH268005   4.842   6.100   0.859  0.8492 -0.3129  0.1735
15505TIP3    H168006   4.909   6.056   0.911 -0.3508 -3.8484 -0.9310
15505TIP3    H268007   4.830   6.044   0.782 -0.6561  2.2529 -1.6339
15506TIP3   OH268008   5.757   2.828  12.950 -0.8246 -0.1591 -0.3040
15506TIP3    H168009   5.842   2.871  12.939 -0.9185  0.2498  0.4835
15506TIP3    H268010   5.706   2.889  13.003 -1.5004 -0.5476 -0.4966
15507TIP3   OH268011   0.854   1.217   0.057 -0.3824  0.4642  0.2905
15507TIP3    H168012   0.913   1.170  -0.002  0.6297  1.4330  0.4823
15507TIP3    H268013   0.891   1.202   0.144 -1.5230 -0.4601  0.6448
15508TIP3   OH268014   5.141   5.294  13.076 -0.4115  0.6890  0.4145
15508TIP3    H168015   5.081   5.226  13.047 -0.1930 -0.1354  1.8207
15508TIP3    H268016   5.083   5.366  13.103 -0.8498 -0.3984  2.5159
15509TIP3   OH268017   1.742   5.424  16.058 -0.5482  0.2204  0.2765
15509TIP3    H168018   1.683   5.430  15.983 -0.3750 -2.3602 -0.1791
15509TIP3    H268019   1.829   5.437  16.021 -0.6024  0.9708  0.4041
15510TIP3   OH268020   3.310   0.966   0.370 -0.3950  0.4431  0.1703
15510TIP3    H168021   3.307   0.890   0.312  0.0883  0.1576  0.5102
15510TIP3    H268022   3.218   0.991   0.382 -0.6236 -0.5795  0.6809
15511TIP3   OH268023   5.731   2.722   0.407  0.1210 -0.4736 -0.1428
15511TIP3    H168024   5.746   2.815   0.392 -0.3639 -0.2352  0.7355
15511TIP3    H268025   5.644   2.706   0.372 -0.8577  0.0024  1.8945
15512TIP3   OH268026   1.335   6.468   6.222  0.0987  0.4459  0.3157
15512TIP3    H168027   1.390   6.500   6.293  1.3841  0.9437 -0.8512
15512TIP3    H268028   1.363   6.377   6.210 -0.7683  0.0709  1.0295
15513TIP3   OH268029   2.299   2.282   3.624  0.6049  0.1917 -0.0827
15513TIP3    H168030   2.274   2.221   3.554 -0.6508 -1.7301  1.8708
15513TIP3    H268031   2.288   2.369   3.586 -2.5375 -0.7001 -1.5420
15514TIP3   OH268032   1.728   3.653  14.973 -0.1868 -0.3066  0.5820
15514TIP3    H168033   1.648   3.615  15.009 -1.1987  1.9484  0.8904
15514TIP3    H268034   1.758   3.591  14.907 -2.2658 -1.1490  0.3829
15515TIP3   OH268035   6.306   6.135   5.945 -0.1837 -0.3677 -0.0579
15515TIP3    H168036   6.289   6.080   5.868 -1.0758 -1.2701  0.7542
15515TIP3    H268037   6.402   6.144   5.946 -0.1291 -0.6095 -1.0827
15516TIP3   OH268038   4.446   3.391   3.689 -0.3914 -0.1948 -0.7204
15516TIP3    H168039   4.408   3.459   3.745 -1.2320  0.2124 -1.7341
15516TIP3    H268040   4.507   3.344   3.745  0.3003  1.4678 -0.0165
15517TIP3   OH268041   2.238   6.573  12.408  0.5717 -0.2242 -0.3812
15517TIP3    H168042   2.245   6.478  12.393 -1.8112 -0.2758 -1.7795
15517TIP3    H268043   2.149   6.584  12.444  0.8680  1.4784 -0.1012
15518TIP3   OH268044   0.146   3.361   1.092 -0.5140 -0.2448 -1.0136
15518TIP3    H168045   0.108   3.406   1.017  0.4546 -0.5567 -1.7029
15518TIP3    H268046   0.229   3.407   1.109 -0.2355 -0.8192 -0.7851
15519TIP3   OH268047   5.367   2.646  17.090  0.1760  0.5341  0.2258
15519TIP3    H168048   5.444   2.633  17.146  0.4029 -1.5720 -0.5074
15519TIP3    H268049   5.382   2.730  17.048  1.6284  0.5840  0.7948
15520TIP3   OH268050   6.544   1.476  15.330 -0.2850 -0.0970 -0.0763
15520TIP3    H168051   6.569   1.529  15.406 -0.0198 -1.5856  0.9132
15520TIP3    H268052   6.618   1.416  15.318 -1.5710 -1.8172  0.3205
15521TIP3   OH268053   6.554   0.748  13.545  0.5493 -0.2463  0.2254
15521TIP3    H168054   6.645   0.774  13.558  0.7714 -0.7243 -0.3378
15521TIP3    H268055   6.504   0.808  13.601  0.8346  2.8632 -2.5783
15522TIP3   OH268056   3.642   3.154  11.473  0.1429 -0.1776  0.4406
15522TIP3    H168057   3.693   3.089  11.425 -0.4600  0.8794 -1.7973
15522TIP3    H268058   3.685   3.160  11.558  2.4124 -0.9017 -0.5628
15523TIP3   OH268059   3.061   2.633  15.693  0.0432  0.0076  0.1279
15523TIP3    H168060   3.058   2.541  15.668 -1.7719  0.0109  0.2118
15523TIP3    H268061   3.153   2.650  15.710  0.3194 -2.0039  0.9082
15524TIP3   OH268062   2.053   6.222  15.605 -0.8258  0.1491 -0.2046
15524TIP3    H168063   2.095   6.172  15.675  0.2975  0.2140 -0.8106
15524TIP3    H268064   2.031   6.156  15.539  0.4463  0.3788 -0.9007
15525TIP3   OH268065   0.751   0.837  11.831 -0.0530 -0.4697 -0.0030
15525TIP3    H168066   0.836   0.794  11.839  0.9144  1.5513  1.5639
15525TIP3    H268067   0.773   0.930  11.826 -2.1146 -0.0088 -1.5349
15526TIP3   OH268068   3.517   6.140   5.829  0.6311 -0.5061  0.2584
15526TIP3    H168069   3.435   6.103   5.797  1.5055 -0.4334 -2.3079
15526TIP3    H268070   3.568   6.065   5.861 -0.0441 -0.6625  0.9929
15527TIP3   OH268071   4.400   0.916  13.609 -0.3490 -0.5297 -0.8283
15527TIP3    H168072   4.466   0.966  13.561 -0.8441  0.8988 -0.0539
15527TIP3    H268073   4.440   0.895  13.693 -0.3190 -1.0454 -0.9648
15528TIP3   OH268074   1.316   3.013  12.099  0.3366 -0.3153 -0.6502
15528TIP3    H168075   1.232   3.038  12.059 -0.6343 -2.5435 -0.1664
15528TIP3    H268076   1.381   3.037  12.033 -0.9370 -0.9577 -2.2339
15529TIP3   OH268077   1.787   2.385  14.175  0.0183 -0.2737  0.1162
15529TIP3    H168078   1.867   2.392  14.122  0.8387 -0.5537  1.2993
15529TIP3    H268079   1.720   2.428  14.121  1.1675  0.8534 -0.4750
15530TIP3   OH268080   2.649   3.286   0.870  0.0301  0.2103 -0.0324
15530TIP3    H168081   2.598   3.324   0.798 -0.8238 -0.0778  0.4043
15530TIP3    H268082   2.740   3.307   0.848 -0.3416  1.8042 -0.2110
15531TIP3   OH268083   3.942   5.950  12.676 -0.3232  0.2211  0.3085
15531TIP3    H168084   4.009   6.007  12.639  0.2138 -1.1996 -0.9987
15531TIP3    H268085   3.973   5.931  12.765  0.6184  0.2339 -0.0039
15532TIP3   OH268086   4.633   1.433   6.270  0.1962  0.1699  0.1881
15532TIP3    H168087   4.582   1.397   6.197  2.0395 -0.4387 -0.8650
15532TIP3    H268088   4.599   1.521   6.282  0.3820  0.6076 -1.9960
15533TIP3   OH268089   4.053   4.311   2.872  0.0137  0.2435 -0.0226
15533TIP3    H168090   4.101   4.274   2.946  0.1248 -1.6138 -0.9744
15533TIP3    H268091   4.121   4.349   2.816  0.0999  0.0883 -0.0232
15534TIP3   OH268092   3.158   0.491   1.358 -0.3349  0.1211  0.6398
15534TIP3    H168093   3.159   0.413   1.414  1.3727 -0.0954  0.3711
15534TIP3    H268094   3.136   0.457   1.271 -0.3670  0.0504  0.6750
15535TIP3   OH268095   3.700   5.727  13.683  0.5783 -0.2544  0.9148
15535TIP3    H168096   3.653   5.651  13.648 -1.5235  1.5514 -0.4858
15535TIP3    H268097   3.784   5.692  13.712 -0.2076 -3.0527  0.1442
15536TIP3   OH268098   6.472   0.571   3.765 -0.6160 -0.1380  0.1656
15536TIP3    H168099   6.400   0.623   3.801  0.3911  0.4457  1.4185
15536TIP3    H268100   6.512   0.529   3.842 -0.1379 -1.1337 -0.6029
15537TIP3   OH268101   4.004   2.640   5.545  0.4150  0.5101 -0.1937
15537TIP3    H168102   3.954   2.692   5.482  2.0907  1.4940 -0.7946
15537TIP3    H268103   4.086   2.621   5.499  0.4760 -1.3687  0.6048
15538TIP3   OH268104   0.285   0.539   4.607  0.3797  0.1166  0.2788
15538TIP3    H168105   0.326   0.548   4.693  0.6830 -1.8929  0.3876
15538TIP3    H268106   0.358   0.517   4.548 -0.0689 -0.1742 -0.1756
15539TIP3   OH268107   6.362   5.648   3.322  0.1659  0.2848 -0.5029
15539TIP3    H168108   6.407   5.575   3.278 -1.6423 -1.2144  0.0028
15539TIP3    H268109   6.367   5.626   3.415 -1.0558  0.3918 -0.4007
15540TIP3   OH268110   5.600   3.239   1.178 -0.1521  0.0588  0.1819
15540TIP3    H168111   5.566   3.153   1.200  1.1819 -0.2861  1.0200
15540TIP3    H268112   5.536   3.301   1.213  0.2476 -0.5507  2.0608
15541TIP3   OH268113   1.745   5.672  11.033 -0.0096 -0.4997 -0.0679
15541TIP3    H168114   1.833   5.700  11.059 -0.5217 -0.7313  2.1623
15541TIP3    H268115   1.759   5.616  10.956  1.6992  0.0748 -0.2142
15542TIP3   OH268116   6.471   5.179   6.347  0.0968  0.1172  0.4107
15542TIP3    H168117   6.414   5.228   6.288 -0.0818  0.5054  0.9023
15542TIP3    H268118   6.541   5.240   6.368  0.3921 -0.1667  0.2664
15543TIP3   OH268119   0.107   6.444   5.457 -0.1298  0.4747  0.1342
15543TIP3    H168120   0.107   6.349   5.451  0.4664  0.4847 -0.0132
15543TIP3    H268121   0.087   6.463   5.549  0.0696  0.2045  0.2329
15544TIP3   OH268122   4.702   5.166   4.480  0.5934 -0.3018  0.3732
15544TIP3    H168123   4.668   5.254   4.462 -0.8407 -0.3214  2.6204
15544TIP3    H268124   4.639   5.108   4.437  0.4072 -0.2388  0.5525
15545TIP3   OH268125   0.343   4.192   4.685  0.1936  0.2548 -0.2197
15545TIP3    H168126   0.398   4.255   4.730  0.3629 -1.4050  2.0680
15545TIP3    H268127   0.274   4.170   4.748 -2.0142  0.8035 -2.2738
15546TIP3   OH268128   6.225   3.375   3.730  0.4712  0.4869 -0.4170
15546TIP3    H168129   6.235   3.281   3.718 -2.0783  0.3245 -1.8985
15546TIP3    H268130   6.280   3.414   3.662  0.5667  0.0443 -0.5951
15547TIP3   OH268131   6.068   4.360   1.336  0.5643  0.9042 -0.1417
15547TIP3    H168132   6.118   4.283   1.360  1.3052  1.9073  1.7236
15547TIP3    H268133   5.980   4.345   1.373  0.6815  0.9095  0.1409
15548TIP3   OH268134   5.573   4.281   0.994  0.3056 -0.1931 -0.0330
15548TIP3    H168135   5.541   4.362   1.033 -0.9420 -0.1929 -0.9878
15548TIP3    H268136   5.587   4.222   1.068 -4.0750 -0.9596  0.4142
15549TIP3   OH268137   3.935   4.415   0.816 -0.4570 -0.2945 -0.0708
15549TIP3    H168138   3.853   4.365   0.823 -0.6148  0.0366  0.4954
15549TIP3    H268139   3.952   4.420   0.722  0.7125 -3.2618 -0.1164
15550TIP3   OH268140   0.238   6.589  14.336  0.0020  0.0553 -0.1880
15550TIP3    H168141   0.194   6.582  14.421  2.0587  0.1348  0.9399
15550TIP3    H268142   0.259   6.682  14.328  1.4766 -0.2412  0.1111
15551TIP3   OH268143   0.893   6.581  15.015  0.1938 -0.2994 -0.2193
15551TIP3    H168144   0.985   6.571  14.992  0.2439 -0.7991  0.1840
15551TIP3    H268145   0.851   6.501  14.983 -0.0436 -0.2093 -0.1347
15552TIP3   OH268146   1.771   1.241  15.850  0.1599 -0.0120  0.5360
15552TIP3    H168147   1.788   1.149  15.832 -1.7559  0.1385 -2.8137
15552TIP3    H268148   1.683   1.243  15.886  0.0791  0.5258  0.3208
15553TIP3   OH268149   2.265   3.029  15.135  0.0769 -0.1034 -0.0844
15553TIP3    H168150   2.239   3.014  15.226  0.4701 -1.0655 -0.1179
15553TIP3    H268151   2.328   2.959  15.116 -0.6970 -0.4897 -1.3760
15554TIP3   OH268152   1.053   1.332   1.390  0.1648  0.0106  0.6158
15554TIP3    H168153   1.023   1.362   1.305  1.7907  0.7994  0.2686
15554TIP3    H268154   1.078   1.241   1.376  0.2838  0.0934  0.2721
15555TIP3   OH268155   3.919   5.056  15.980 -0.3441  0.3993 -0.1636
15555TIP3    H168156   3.921   5.103  16.063 -1.0570 -2.7865  1.8543
15555TIP3    H268157   3.891   5.121  15.915 -0.5449  2.8344  2.1954
15556TIP3   OH268158   6.566   3.475   5.972  0.0998  0.5876  0.4814
15556TIP3    H168159   6.565   3.561   5.929 -0.1640  0.0484 -0.6207
15556TIP3    H268160   6.524   3.490   6.057  0.6105  1.6717  0.5560
15557TIP3   OH268161   4.428   5.521  16.007  0.2374 -0.3553  0.3337
15557TIP3    H168162   4.414   5.616  16.010  1.0049 -0.0335 -2.6344
15557TIP3    H268163   4.497   5.510  15.941  0.6550 -2.9512  1.1158
15558TIP3   OH268164   2.647   4.528   1.116 -0.3892 -0.0235  0.2143
15558TIP3    H168165   2.593   4.461   1.075 -0.7717  0.1224  0.4800
15558TIP3    H268166   2.737   4.498   1.101 -0.5707 -1.1939  1.3408
15559TIP3   OH268167   5.095   3.997   4.890  0.1532 -0.0508 -0.4797
15559TIP3    H168168   5.034   4.058   4.850 -1.3851 -1.4988 -0.4590
15559TIP3    H268169   5.052   3.912   4.883  1.8731 -1.0312  0.1733
15560TIP3   OH268170   5.425   0.600  16.206  0.3103 -0.3555 -0.2990
15560TIP3    H168171   5.438   0.571  16.116 -0.0499 -2.0774  0.1665
15560TIP3    H268172   5.361   0.539  16.243 -1.2360  1.6458  0.5096
15561TIP3   OH268173   5.052   0.152  11.534  0.0039  0.6066  0.5308
15561TIP3    H168174   5.050   0.059  11.513 -0.7157  0.6482  0.3723
15561TIP3    H268175   5.020   0.157  11.624  1.0377  0.6162  0.9075
15562TIP3   OH268176   4.224   0.366  13.477 -0.1387  0.3706 -0.0344
15562TIP3    H168177   4.157   0.317  13.525  1.0855 -0.8727  0.4768
15562TIP3    H268178   4.277   0.407  13.545  2.9707 -3.1791  0.0127
15563TIP3   OH268179   2.742   2.803   4.001  0.2273  0.1471 -0.0242
15563TIP3    H168180   2.682   2.760   4.062  0.0482 -0.1068 -0.3778
15563TIP3    H268181   2.696   2.883   3.975  0.8744  0.9420  1.2051
15564TIP3   OH268182   5.264   5.928   1.908 -0.1127  0.6868  0.1634
15564TIP3    H168183   5.340   5.908   1.852 -0.8015 -0.1854 -0.4830
15564TIP3    H268184   5.269   6.023   1.920  0.2682  0.8534 -1.0793
15565TIP3   OH268185   2.470   3.848  14.774 -0.3722 -0.3693 -0.3152
15565TIP3    H168186   2.462   3.800  14.692 -1.9281 -2.1901  0.8025
15565TIP3    H268187   2.382   3.883  14.790 -0.0538  0.0874  0.4985
15566TIP3   OH268188   1.693   3.923  14.454 -0.0616 -0.1071 -0.1340
15566TIP3    H168189   1.603   3.942  14.483  0.1050 -0.5553  0.7029
15566TIP3    H268190   1.683   3.894  14.364 -0.7716 -0.2658 -0.0130
15567TIP3   OH268191   3.285   0.109   0.640 -0.5841  0.1477  0.2698
15567TIP3    H168192   3.365   0.109   0.588 -1.0885  1.5413 -0.5368
15567TIP3    H268193   3.246   0.023   0.624 -0.1123  0.1051 -0.6882
15568TIP3   OH268194   2.032   5.481  14.223  0.1502 -0.4848 -0.4071
15568TIP3    H168195   2.063   5.437  14.303  0.4091  0.6170  0.1247
15568TIP3    H268196   2.059   5.572  14.235 -0.6611 -0.1124 -1.3282
15569TIP3   OH268197   0.749   2.438   4.780 -0.2856  0.1547  0.1843
15569TIP3    H168198   0.819   2.377   4.758  0.3457  0.8584  0.2146
15569TIP3    H268199   0.788   2.525   4.771  0.2531  0.5976  4.5362
15570TIP3   OH268200   3.594   4.265   2.867 -0.0988 -0.0973  0.3700
15570TIP3    H168201   3.534   4.191   2.876 -1.4348  0.7714 -0.8475
15570TIP3    H268202   3.549   4.338   2.909  0.9729  0.1647  1.1061
15571TIP3   OH268203   6.448   6.475   2.686  0.4952 -0.0723 -0.8577
15571TIP3    H168204   6.536   6.511   2.671  0.2488  0.5675 -0.8195
15571TIP3    H268205   6.447   6.453   2.779  0.1163  1.3814 -0.4848
15572TIP3   OH268206   0.992   6.615  16.639  0.4701 -0.4352  0.2813
15572TIP3    H168207   0.947   6.699  16.628  0.0212 -0.4282  1.9041
15572TIP3    H268208   1.053   6.611  16.566  2.2024  2.4321  1.3748
15573TIP3   OH268209   6.005   4.189   5.552 -0.3703  0.1051 -0.9408
15573TIP3    H168210   6.035   4.220   5.467 -0.8095  0.0009 -1.1374
15573TIP3    H268211   6.082   4.194   5.608 -0.6749  2.6658 -0.6382
15574TIP3   OH268212   5.808   4.018   0.326 -0.2248  0.4869  0.3674
15574TIP3    H168213   5.773   4.107   0.319 -2.5530 -0.4224 -0.6186
15574TIP3    H268214   5.819   4.004   0.420 -0.4250  1.6048  0.5689
15575TIP3   OH268215   4.831   6.243   2.504 -0.1103 -0.7448 -0.5561
15575TIP3    H168216   4.876   6.274   2.583  0.8877 -0.3199 -1.2667
15575TIP3    H268217   4.757   6.193   2.537 -1.6243  2.0516  0.7009
15576TIP3   OH268218   6.636   5.525   2.617  0.5374 -0.0973 -0.3479
15576TIP3    H168219   6.556   5.532   2.669  0.9216 -1.1970  0.4249
15576TIP3    H268220   6.689   5.460   2.663  2.5209  1.6534  0.0218
15577TIP3   OH268221   6.374   0.222  15.859 -0.5216  0.0531 -0.5368
15577TIP3    H168222   6.351   0.206  15.767 -1.0722  1.2455 -0.6244
15577TIP3    H268223   6.367   0.317  15.869  1.6909  0.1794  0.1831
15578TIP3   OH268224   5.317   2.173  17.023  0.4229  0.1851 -0.2120
15578TIP3    H168225   5.376   2.141  16.954  1.9852  0.7153  0.8125
15578TIP3    H268226   5.344   2.264  17.038 -0.8608  0.5388  0.1111
15579TIP3   OH268227   1.408   3.665  11.431 -0.2237  0.1713 -0.3657
15579TIP3    H168228   1.368   3.585  11.396 -1.0555  0.7580 -0.7718
15579TIP3    H268229   1.376   3.670  11.521  2.3972 -1.6677  0.7961
15580TIP3   OH268230   2.403   6.278  10.805  0.3147  0.2880 -0.2861
15580TIP3    H168231   2.491   6.251  10.830  0.3212 -0.9290 -1.5178
15580TIP3    H268232   2.381   6.223  10.730 -1.8542 -0.0826  0.5543
15581TIP3   OH268233   4.041   2.159  14.346 -0.0382 -0.1653 -0.1232
15581TIP3    H168234   3.988   2.230  14.382  0.7216  1.2229 -1.6334
15581TIP3    H268235   3.977   2.097  14.310 -0.7007 -0.2460  1.1460
15582TIP3   OH268236   6.328   4.088   4.695 -0.7077 -0.0169  0.2796
15582TIP3    H168237   6.240   4.091   4.655 -0.5116  0.6101 -0.1237
15582TIP3    H268238   6.379   4.035   4.634 -0.6801  0.0509  0.2430
15583TIP3   OH268239   6.226   2.690  12.910 -0.3383  0.0970 -0.7942
15583TIP3    H168240   6.224   2.595  12.898  0.6970  0.0241 -0.4561
15583TIP3    H268241   6.254   2.702  13.000 -2.2006  0.7222 -0.2520
15584TIP3   OH268242   0.866   5.334   5.806 -0.1075  0.2932  0.1694
15584TIP3    H168243   0.779   5.371   5.823 -0.7610 -1.2124  0.2511
15584TIP3    H268244   0.852   5.274   5.732  1.5163  2.3862 -2.0026
15585TIP3   OH268245   0.272   5.924  15.038 -0.9405  0.1066 -0.0562
15585TIP3    H168246   0.242   5.855  14.979 -0.8055 -1.9128  2.0863
15585TIP3    H268247   0.367   5.923  15.029 -1.0169  1.0889 -1.1210
15586TIP3   OH268248   5.790   3.135  15.370  0.1533  0.0815  0.0674
15586TIP3    H168249   5.743   3.055  15.345 -2.3051  0.9932  1.4674
15586TIP3    H268250   5.748   3.205  15.321  0.6581  0.8359  0.6869
15587TIP3   OH268251   6.824   0.629   0.804  0.1220  0.4706 -0.0690
15587TIP3    H168252   6.892   0.600   0.743 -0.6437 -0.4931 -0.4887
15587TIP3    H268253   6.769   0.688   0.753 -0.0145  0.3541 -0.0570
15588TIP3   OH268254   0.972   6.059  16.559 -0.1372 -0.6120 -0.4195
15588TIP3    H168255   0.997   5.992  16.624 -0.0213  0.6417  0.8824
15588TIP3    H268256   1.013   6.030  16.478  1.0532 -1.4225  0.4357
15589TIP3   OH268257   5.965   4.136  16.818 -0.0078 -0.1116  0.6290
15589TIP3    H168258   5.976   4.045  16.846 -1.3990 -1.1521 -1.8769
15589TIP3    H268259   5.892   4.169  16.870  0.2270 -0.5504  1.2454
15590TIP3   OH268260   2.553   2.854  14.523  0.1241 -0.4651  0.2918
15590TIP3    H168261   2.645   2.847  14.496  0.1955  2.9762 -0.8490
15590TIP3    H268262   2.503   2.842  14.442 -0.0883  2.2638 -0.0645
15591TIP3   OH268263   4.351   6.525  15.344 -0.1897  0.2044  0.4098
15591TIP3    H168264   4.286   6.574  15.394 -1.1287  2.2543 -2.5630
15591TIP3    H268265   4.428   6.523  15.401 -1.5035  1.4307  2.3389
15592TIP3   OH268266   6.264   0.117  13.549 -0.3679  0.3694 -0.3634
15592TIP3    H168267   6.266   0.165  13.467 -0.0492  1.9550  0.5375
15592TIP3    H268268   6.186   0.148  13.594  0.5166  1.0271  0.7776
15593TIP3   OH268269   5.464   0.042   4.416 -0.7046  0.2934  0.4838
15593TIP3    H168270   5.395   0.012   4.475 -0.7111  0.6871  0.6758
15593TIP3    H268271   5.443   0.133   4.398 -0.2789  0.3970  0.4876
15594TIP3   OH268272   5.560   1.126  17.100 -0.0451 -0.2699 -0.7208
15594TIP3    H168273   5.526   1.038  17.117 -1.2939  0.1659 -0.8711
15594TIP3    H268274   5.602   1.120  17.015  0.6801 -0.9380 -0.3248
15595TIP3   OH268275   3.549   3.558  16.020 -0.4704 -0.2029  0.1563
15595TIP3    H168276   3.579   3.643  16.053 -2.1515  0.6848 -0.5162
15595TIP3    H268277   3.561   3.498  16.094  0.5623  0.6282  0.6996
15596TIP3   OH268278   5.748   1.606  13.259  0.3913  0.6073 -0.3037
15596TIP3    H168279   5.785   1.584  13.344 -0.9556 -0.2873  0.0930
15596TIP3    H268280   5.670   1.550  13.251  1.8552 -1.2821 -3.2420
15597TIP3   OH268281   6.737   1.486   4.027 -0.0217 -0.0622  0.5598
15597TIP3    H168282   6.758   1.540   4.103 -3.3761  0.6881  1.0657
15597TIP3    H268283   6.683   1.415   4.061  0.9510 -1.5001 -0.7271
15598TIP3   OH268284   3.942   3.960   3.507  0.0789 -0.2136  0.0910
15598TIP3    H168285   3.920   3.950   3.415  0.5583  0.8756 -0.1493
15598TIP3    H268286   3.990   4.042   3.512  0.0632 -0.2586  1.3102
15599TIP3   OH268287   6.482   5.563  13.485 -0.0908  0.9242 -0.1512
15599TIP3    H168288   6.459   5.528  13.399  1.3137  2.0878 -1.0213
15599TIP3    H268289   6.518   5.650  13.468  1.2520  0.7467  1.5040
15600TIP3   OH268290   2.294   5.788   4.360  0.0584  0.2344  0.3098
15600TIP3    H168291   2.352   5.751   4.426  0.2559  0.5413  0.3113
15600TIP3    H268292   2.321   5.747   4.278 -0.0349  0.0259  0.3830
15601TIP3   OH268293   5.262   0.254   1.349  1.0978 -0.0227  0.2888
15601TIP3    H168294   5.172   0.282   1.362  1.0127 -0.0507 -0.2297
15601TIP3    H268295   5.289   0.297   1.268  1.3745 -0.4437  0.1554
15602TIP3   OH268296   5.162   5.426   0.515  0.1665  0.0176  0.0288
15602TIP3    H168297   5.234   5.488   0.522 -0.0080  0.2829 -0.4624
15602TIP3    H268298   5.204   5.343   0.489  0.2035  0.4339 -1.3654
15603TIP3   OH268299   6.743   2.356  14.117 -0.7987  0.2311  0.1521
15603TIP3    H168300   6.780   2.309  14.042 -2.7122  1.2048 -1.5165
15603TIP3    H268301   6.802   2.430  14.131  1.8716 -2.1013  2.3812
15604TIP3   OH268302   0.934   5.601  17.085 -0.4320  0.0020  0.4946
15604TIP3    H168303   0.981   5.580  17.004 -2.8696 -2.2899 -0.4866
15604TIP3    H268304   0.891   5.684  17.067  2.0816  1.5086  0.9692
15605TIP3   OH268305   4.124   5.592   5.751  0.0704  0.7370 -0.0289
15605TIP3    H168306   4.045   5.628   5.791 -0.2010 -0.2032  0.3052
15605TIP3    H268307   4.137   5.646   5.673 -0.0650  1.8302  0.6738
15606TIP3   OH268308   5.399   1.108  12.020 -0.3687 -0.3098  0.7932
15606TIP3    H168309   5.323   1.065  11.980 -1.2484  0.4623  1.5939
15606TIP3    H268310   5.434   1.043  12.081 -1.7704  0.1293  2.0971
15607TIP3   OH268311   6.711   5.906  16.391 -0.3123 -0.5009  0.0344
15607TIP3    H168312   6.629   5.920  16.439  0.1765  1.3760  0.4061
15607TIP3    H268313   6.688   5.844  16.322 -2.0225 -0.1229  0.2157
15608TIP3   OH268314   5.627   2.433  14.165 -0.1002 -0.0902  0.0053
15608TIP3    H168315   5.713   2.423  14.124 -0.9618 -0.7975 -1.7659
15608TIP3    H268316   5.575   2.480  14.100 -1.3931 -0.7863  0.4955
15609TIP3   OH268317   0.107   4.883  15.214 -0.1171 -0.3283 -0.0767
15609TIP3    H168318   0.193   4.895  15.176 -0.7984  1.2959 -1.1941
15609TIP3    H268319   0.054   4.845  15.144 -1.0185  1.3739 -0.3761
15610TIP3   OH268320   1.985   3.688  15.029 -0.4862  0.0783  0.2330
15610TIP3    H168321   2.020   3.610  15.072 -0.4754 -0.1825 -0.2416
15610TIP3    H268322   1.890   3.674  15.026 -0.2877 -1.7363 -3.2054
15611TIP3   OH268323   6.608   0.504   4.883  0.0432  0.0538 -0.3440
15611TIP3    H168324   6.546   0.455   4.936  0.4717 -0.7127 -0.5417
15611TIP3    H268325   6.687   0.511   4.937  0.3650 -0.4402 -0.7341
15612TIP3   OH268326   3.840   0.335  15.309  0.4208 -0.0364  0.0904
15612TIP3    H168327   3.753   0.327  15.269  1.0123 -1.2421 -1.0024
15612TIP3    H268328   3.824   0.321  15.402 -1.0666  3.3845  0.5150
15613TIP3   OH268329   5.255   2.539  11.335 -0.2524  0.0523  0.4167
15613TIP3    H168330   5.289   2.497  11.256  0.3373  1.3730 -0.0728
15613TIP3    H268331   5.161   2.521  11.333 -0.2355  0.0281 -0.5694
15614TIP3   OH268332   5.386   4.628  13.139  0.5947  0.1338 -0.0791
15614TIP3    H168333   5.400   4.563  13.208 -1.9288 -0.5260 -0.0953
15614TIP3    H268334   5.294   4.653  13.149  0.3287  0.4943 -2.8158
15615TIP3   OH268335   6.258   2.099  13.442 -1.1164  0.3390  0.6524
15615TIP3    H168336   6.175   2.135  13.413 -0.1124  1.0508 -1.5679
15615TIP3    H268337   6.274   2.026  13.382  0.2699  0.7951  0.4328
15616TIP3   OH268338   0.458   5.357  12.875  0.5404 -0.2358 -0.2394
15616TIP3    H168339   0.525   5.336  12.940  2.1939 -0.0767 -1.8250
15616TIP3    H268340   0.391   5.289  12.887  0.0947  0.5440  2.4720
15617TIP3   OH268341   0.003   5.470   4.637  0.7941 -0.0124  0.2437
15617TIP3    H168342  -0.016   5.425   4.719 -0.0237  1.0143  0.6325
15617TIP3    H268343  -0.080   5.510   4.611  1.0313 -0.3495 -1.1115
15618TIP3   OH268344   2.667   0.365  14.165 -0.5687 -0.2148  0.2901
15618TIP3    H168345   2.588   0.326  14.203 -0.7911  0.3746  0.4437
15618TIP3    H268346   2.662   0.457  14.189 -0.0263 -0.0964 -0.0344
15619TIP3   OH268347   2.017   5.504  16.569  0.9315 -0.1288  0.2393
15619TIP3    H168348   2.082   5.528  16.635  0.1968 -1.2804  1.4445
15619TIP3    H268349   2.032   5.411  16.554  0.6516 -0.0258 -0.7303
15620TIP3   OH268350   5.916   0.502  15.850  0.3193  0.3629  0.1909
15620TIP3    H168351   5.897   0.490  15.943  1.8629 -0.3750  0.4465
15620TIP3    H268352   5.982   0.571  15.848  1.7079 -0.9293 -0.1699
15621TIP3   OH268353   0.817   0.022   1.165  0.2055 -0.8957 -0.2791
15621TIP3    H168354   0.819   0.101   1.219 -0.8982 -1.7447  1.0578
15621TIP3    H268355   0.816   0.054   1.075  0.6819  0.5780  0.2153
15622TIP3   OH268356   4.653   4.181   0.975 -0.3625  0.1586  0.7702
15622TIP3    H168357   4.639   4.096   0.932  0.1432  0.3615  0.1938
15622TIP3    H268358   4.728   4.219   0.929  0.5948  0.1198  2.2248
15623TIP3   OH268359   4.091   2.864  14.846  0.7013 -0.1920 -0.2369
15623TIP3    H168360   4.007   2.820  14.848  1.2884 -1.3896 -1.1312
15623TIP3    H268361   4.097   2.902  14.758  0.9195  0.2752 -0.0292
15624TIP3   OH268362   0.534   1.229   1.688 -0.1444 -0.0991  0.3019
15624TIP3    H168363   0.628   1.244   1.690  0.2463 -1.8692 -1.5928
15624TIP3    H268364   0.496   1.317   1.693  1.6258  0.7399 -0.2105
15625TIP3   OH268365   0.033   6.220   1.286 -0.1855  0.1098 -0.0326
15625TIP3    H168366   0.002   6.138   1.324  0.4441  0.9258  2.4186
15625TIP3    H268367   0.110   6.194   1.235 -3.0448 -1.5378 -4.0600
15626TIP3   OH268368   4.582   0.444  10.406 -0.6717 -0.6074  0.4366
15626TIP3    H168369   4.591   0.425  10.499  0.5588 -0.3162  0.3938
15626TIP3    H268370   4.609   0.363  10.363  0.1570 -0.2788  0.3219
15627TIP3   OH268371   3.327   1.947  14.701 -0.7594  0.2388  0.1200
15627TIP3    H168372   3.379   1.926  14.624 -0.1187  0.1107  0.5776
15627TIP3    H268373   3.391   1.978  14.766 -1.2093 -0.2044  0.7904
15628TIP3   OH268374   4.558   6.486  13.485  0.1917  0.0621 -0.2001
15628TIP3    H168375   4.547   6.550  13.555 -1.1710 -2.0558  1.6789
15628TIP3    H268376   4.484   6.502  13.426  0.0758  0.4769  0.0520
15629TIP3   OH268377   4.832   6.061  10.596 -0.1593  0.3384 -0.2464
15629TIP3    H168378   4.846   6.074  10.502 -1.8925  0.3087 -0.5540
15629TIP3    H268379   4.828   6.149  10.632 -2.1075  0.4861 -0.6861
15630TIP3   OH268380   6.469   4.456  13.451 -0.5578 -0.4343  0.0567
15630TIP3    H168381   6.430   4.541  13.469 -0.5508 -0.2546 -0.7431
15630TIP3    H268382   6.400   4.393  13.471 -0.1032 -0.3689  2.0971
15631TIP3   OH268383   4.639   6.769  11.928 -0.3513  0.1225 -0.1925
15631TIP3    H168384   4.552   6.773  11.970  0.0662  0.2157  0.6942
15631TIP3    H268385   4.690   6.836  11.974  0.6405 -0.9857  0.3623
15632TIP3   OH268386   3.443   2.970   5.342  0.0400  0.0426  0.1175
15632TIP3    H168387   3.396   2.889   5.321  1.6827 -1.4107  1.7134
15632TIP3    H268388   3.374   3.032   5.367 -1.2987 -0.6464 -1.6301
15633TIP3   OH268389   6.535   1.315   1.742  0.1897  1.0338 -0.1250
15633TIP3    H168390   6.452   1.270   1.758  0.3309 -0.1513 -2.2660
15633TIP3    H268391   6.510   1.393   1.691  0.2194  1.8328  1.0574
15634TIP3   OH268392   3.946   2.296  15.003 -0.5247 -0.0518  0.0715
15634TIP3    H168393   4.003   2.337  14.938  1.4922 -0.1226  1.6856
15634TIP3    H268394   3.924   2.211  14.966  0.1491  0.1120 -0.7440
15635TIP3   OH268395   1.066   5.221   5.354 -0.3577 -0.2823  0.2508
15635TIP3    H168396   1.033   5.210   5.265  0.5792  0.1415 -0.1654
15635TIP3    H268397   0.998   5.184   5.410 -0.8181 -0.8371 -0.6575
15636TIP3   OH268398   3.319   4.910  14.890 -0.0598  0.0640  0.6497
15636TIP3    H168399   3.354   4.860  14.816  0.4784  0.5122  0.5909
15636TIP3    H268400   3.389   4.907  14.955 -0.3845 -0.0136  0.9973
15637TIP3   OH268401   5.315   1.191  15.497 -0.0374  0.2626 -0.6036
15637TIP3    H168402   5.407   1.217  15.502 -0.9714  3.9146  1.7632
15637TIP3    H268403   5.306   1.122  15.563  0.9740 -0.0992 -0.8286
15638TIP3   OH268404   2.429   0.378  11.137 -0.8664  0.1691 -0.3107
15638TIP3    H168405   2.506   0.357  11.083 -0.6381 -2.3534  0.8307
15638TIP3    H268406   2.356   0.381  11.075 -0.0260  1.7096 -1.2880
15639TIP3   OH268407   2.768   6.261   0.237  0.2278  0.0986 -0.3468
15639TIP3    H168408   2.781   6.183   0.182 -0.5395  0.6153 -1.2920
15639TIP3    H268409   2.811   6.239   0.319  0.6865 -1.0310 -0.8611
15640TIP3   OH268410   5.153   2.112  11.592  0.0466  0.6153 -0.0235
15640TIP3    H168411   5.189   2.047  11.652  2.5026  0.5252 -1.4383
15640TIP3    H268412   5.216   2.184  11.594 -0.1469  0.8898 -1.9491
15641TIP3   OH268413   2.335   5.895   5.325 -0.7264  0.1589 -0.1376
15641TIP3    H168414   2.341   5.800   5.322  0.8500  0.2245  0.3146
15641TIP3    H268415   2.256   5.913   5.377  0.2126 -0.9188  1.7472
15642TIP3   OH268416   2.501   4.152   4.757  0.3504 -0.0059  0.4463
15642TIP3    H168417   2.474   4.093   4.827 -0.9166  0.8446  0.7156
15642TIP3    H268418   2.492   4.100   4.677  1.1286 -0.7658  0.8426
15643TIP3   OH268419   5.057   5.512  14.227  0.1600  0.1515  0.1997
15643TIP3    H168420   4.967   5.496  14.254  0.3954  0.9590  1.5104
15643TIP3    H268421   5.110   5.490  14.304  1.0385  0.2432 -0.3630
15644TIP3   OH268422   5.918   2.987  11.677 -0.0975 -0.0512 -0.1440
15644TIP3    H168423   5.897   3.025  11.762 -2.3600  0.4676 -0.8696
15644TIP3    H268424   5.871   2.903  11.675  1.3411 -0.8957 -0.2515
15645TIP3   OH268425   0.486   3.692   0.270 -0.0823  0.0626 -0.1107
15645TIP3    H168426   0.577   3.695   0.239 -0.1760  0.8588 -0.3278
15645TIP3    H268427   0.452   3.780   0.253 -0.9448 -0.2743 -0.1745
15646TIP3   OH268428   6.298   1.015  11.884  0.2762  0.1384 -0.1187
15646TIP3    H168429   6.377   0.961  11.874  0.2398  0.1196 -0.3041
15646TIP3    H268430   6.305   1.050  11.972 -1.4194 -2.8791  1.3534
15647TIP3   OH268431   6.263   4.229  16.056 -0.0676 -0.3142 -0.3466
15647TIP3    H168432   6.171   4.205  16.048 -1.0575  2.3142  1.8515
15647TIP3    H268433   6.272   4.309  16.005  0.9044 -0.2830 -0.1443
15648TIP3   OH268434   0.668   2.430   1.784  0.3309 -0.1982 -0.3483
15648TIP3    H168435   0.648   2.386   1.866  2.7471  1.0896  1.0503
15648TIP3    H268436   0.592   2.413   1.728 -0.8185 -2.2147  1.6648
15649TIP3   OH268437   4.113   1.133   2.188 -0.7738 -0.0051 -0.3534
15649TIP3    H168438   4.076   1.221   2.181 -2.4613 -0.7317 -1.2096
15649TIP3    H268439   4.059   1.089   2.254 -0.3948 -0.6015 -0.4340
15650TIP3   OH268440   0.232   2.872  10.988 -0.3539  0.6710 -0.0451
15650TIP3    H168441   0.162   2.856  10.925 -0.3728 -1.4415  0.4259
15650TIP3    H268442   0.189   2.871  11.073 -0.1896  2.5849  0.0984
15651TIP3   OH268443   3.721   5.090   1.655  0.4255 -0.0875 -0.2971
15651TIP3    H168444   3.792   5.133   1.702  0.2696  1.4228 -1.3709
15651TIP3    H268445   3.761   5.013   1.615  0.6484 -1.1909  1.8934
15652TIP3   OH268446   0.182   5.064   2.465 -0.5319 -0.1041  0.0343
15652TIP3    H168447   0.245   5.099   2.527  1.5556 -1.7450 -1.0333
15652TIP3    H268448   0.219   4.980   2.437 -2.6818 -0.6547 -1.4516
15653TIP3   OH268449   2.214   5.649   2.845  0.3805  0.2462 -0.2770
15653TIP3    H168450   2.257   5.564   2.834 -0.1085 -0.1665  0.8671
15653TIP3    H268451   2.124   5.634   2.816  0.2147  0.2874  0.2121
15654TIP3   OH268452   1.823   4.165   0.045 -0.3334  0.5687 -0.1254
15654TIP3    H168453   1.829   4.253   0.083 -2.8481  0.4478  0.7280
15654TIP3    H268454   1.737   4.162   0.004  0.1571 -1.1459 -1.1451
15655TIP3   OH268455   5.013   3.366   1.841  0.3624  0.5661  0.0687
15655TIP3    H168456   5.003   3.453   1.802 -2.8035  0.4232  0.2796
15655TIP3    H268457   5.000   3.306   1.767  0.2125  0.2838  0.3229
15656TIP3   OH268458   4.963   2.243  10.725  0.2497  0.3361  0.0338
15656TIP3    H168459   4.919   2.177  10.671  0.3959  0.3028 -0.0458
15656TIP3    H268460   5.026   2.192  10.777  1.1426  0.5325 -0.8180
15657TIP3   OH268461   5.869   2.559   3.698 -0.5802 -0.0316  0.2830
15657TIP3    H168462   5.946   2.506   3.678 -0.5665  0.6733 -1.7219
15657TIP3    H268463   5.795   2.498   3.690 -0.3744 -0.3292  0.6025
15658TIP3   OH268464   3.044   1.477   1.409  0.3912  0.1791 -0.1506
15658TIP3    H168465   3.022   1.499   1.499  0.6815 -0.9989  0.2340
15658TIP3    H268466   2.987   1.532   1.355  1.3654  2.1247  0.7026
15659TIP3   OH268467   6.005   5.306  12.692 -0.7333  0.1765  0.1636
15659TIP3    H168468   5.997   5.367  12.766  1.5044  0.6776  0.0873
15659TIP3    H268469   6.086   5.333  12.649 -0.6193 -1.7658 -0.9293
15660TIP3   OH268470   5.725   4.229  13.544 -0.6154 -0.4779  0.4268
15660TIP3    H168471   5.706   4.175  13.468 -0.3693  0.1016 -0.0607
15660TIP3    H268472   5.652   4.291  13.549 -1.2486 -1.2624  1.3870
15661TIP3   OH268473   4.202   4.853  11.903  0.2128 -0.0484 -0.5519
15661TIP3    H168474   4.192   4.833  11.996 -0.7846 -0.4074 -0.7288
15661TIP3    H268475   4.192   4.948  11.897 -0.1195 -0.0728 -0.3459
15662TIP3   OH268476   4.191   1.493   0.422  0.0801 -0.0152  0.3480
15662TIP3    H168477   4.142   1.447   0.490 -0.9639  0.7119  0.1234
15662TIP3    H268478   4.220   1.574   0.464 -0.0094  0.1378  0.1162
15663TIP3   OH268479   2.493   3.418  13.767 -0.4499  0.0521 -0.1701
15663TIP3    H168480   2.524   3.410  13.857 -0.4655  0.7095 -0.1080
15663TIP3    H268481   2.436   3.495  13.767 -0.9486 -0.3108 -0.6055
15664TIP3   OH268482   0.555   0.935   0.754  0.0947  0.0329 -0.0164
15664TIP3    H168483   0.488   0.960   0.690  2.3359 -1.2682 -3.1197
15664TIP3    H268484   0.518   0.860   0.800 -0.3716 -1.2125 -2.2665
15665TIP3   OH268485   6.291   3.163  11.565  0.5822  0.7770 -0.0100
15665TIP3    H168486   6.347   3.216  11.508 -1.1191  1.7146 -0.8772
15665TIP3    H268487   6.212   3.147  11.514  0.5774 -1.7235  0.6437
15666TIP3   OH268488   5.108   3.654  13.282 -0.6921  0.3453 -0.3003
15666TIP3    H168489   5.020   3.631  13.311  0.1860 -2.2228  0.6449
15666TIP3    H268490   5.163   3.637  13.359  0.7912  0.5425 -1.2789
15667TIP3   OH268491   0.087   6.527   4.993  0.3637 -0.1933  0.3938
15667TIP3    H168492   0.040   6.525   5.076  0.4823 -1.2499  0.4558
15667TIP3    H268493   0.022   6.503   4.928 -0.1424  2.2164 -0.0781
15668TIP3   OH268494   5.978   0.944   2.635  0.4245  0.2764 -0.2358
15668TIP3    H168495   5.942   0.915   2.552  0.7251  0.1287 -0.3144
15668TIP3    H268496   6.069   0.915   2.634  0.3101 -0.1301  0.3369
15669TIP3   OH268497   5.526   5.737   1.822 -0.0821 -0.1016  0.2591
15669TIP3    H168498   5.535   5.812   1.764  2.9788  0.6151  1.4658
15669TIP3    H268499   5.552   5.662   1.768  1.3103  0.3571  0.2586
15670TIP3   OH268500   3.111   2.359  15.190  0.8045 -0.5248 -0.0011
15670TIP3    H168501   3.131   2.298  15.119  0.9479  0.6645 -1.0201
15670TIP3    H268502   3.182   2.424  15.187  0.0978  0.2832  0.3498
15671TIP3   OH268503   3.188   6.336   4.724  0.2137 -0.4782 -0.1634
15671TIP3    H168504   3.243   6.299   4.655  0.1468 -1.7969  0.4606
15671TIP3    H268505   3.117   6.380   4.677  2.0098  1.7201 -1.0015
15672TIP3   OH268506   6.653   5.365   3.522 -0.1434 -0.7907  0.3515
15672TIP3    H168507   6.566   5.400   3.544 -1.3149 -2.6493 -0.9986
15672TIP3    H268508   6.688   5.333   3.605 -0.2223  0.9579  1.1100
15673TIP3   OH268509   3.592   5.244  13.094 -0.3537 -0.2255 -0.5092
15673TIP3    H168510   3.542   5.256  13.013 -0.2563 -1.6174 -0.7933
15673TIP3    H268511   3.681   5.273  13.072 -0.7990  1.4166 -0.2584
15674TIP3   OH268512   2.016   1.152   5.447  0.3738 -0.6565 -0.1340
15674TIP3    H168513   2.057   1.142   5.533  1.7731 -0.4592 -0.7540
15674TIP3    H268514   2.080   1.116   5.386 -0.6388 -0.8788 -1.0977
15675TIP3   OH268515   3.207   5.830   5.452 -0.0878 -0.2145  0.3330
15675TIP3    H168516   3.219   5.773   5.529  0.6699 -0.7083 -0.1384
15675TIP3    H268517   3.181   5.915   5.489 -2.0160 -1.0346  1.0135
15676TIP3   OH268518   0.194   2.035  12.693 -0.4618  0.0149 -0.0536
15676TIP3    H168519   0.191   1.939  12.697 -0.9776  0.0590  0.9212
15676TIP3    H268520   0.273   2.058  12.742  0.9270  0.0217 -2.1730
15677TIP3   OH268521   6.055   2.910  13.381 -0.4989  0.0725  0.6028
15677TIP3    H168522   6.086   2.973  13.316 -0.6035  0.0353  0.5164
15677TIP3    H268523   6.067   2.954  13.465 -1.5286  0.6209  0.4832
15678TIP3   OH268524   3.541   5.461   3.800  0.4877  0.1630  0.0810
15678TIP3    H168525   3.543   5.550   3.835  0.6399  0.8955 -1.6833
15678TIP3    H268526   3.557   5.405   3.876  2.7765  1.7438  0.8811
15679TIP3   OH268527   5.210   0.291   4.154  0.0862  0.3370  0.0310
15679TIP3    H168528   5.133   0.331   4.114  0.0013 -1.2393 -1.4843
15679TIP3    H268529   5.176   0.239   4.226 -0.0435  1.0768  0.5181
15680TIP3   OH268530   3.581   2.702   3.610  0.2709  0.3677  0.3772
15680TIP3    H168531   3.578   2.788   3.570  0.6971  0.9888  1.6465
15680TIP3    H268532   3.496   2.693   3.655  0.6024  0.5194  1.0374
15681TIP3   OH268533   4.267   2.427  11.928  0.4276  0.3286 -0.3470
15681TIP3    H168534   4.363   2.425  11.918  0.5398 -2.4740  0.6094
15681TIP3    H268535   4.245   2.343  11.967 -2.5682  0.4379 -1.5402
15682TIP3   OH268536   0.052   2.069   6.940  0.1209 -0.5771 -0.3535
15682TIP3    H168537   0.024   2.054   6.850  1.2533 -0.0949 -0.7981
15682TIP3    H268538  -0.028   2.058   6.992 -0.7736  0.2231 -1.5185
15683TIP3   OH268539   0.271   6.495  12.883 -0.3858  0.5250  0.0209
15683TIP3    H168540   0.198   6.524  12.938 -1.3024  1.7256 -1.7470
15683TIP3    H268541   0.331   6.569  12.881  0.7724 -0.3231  1.1577
15684TIP3   OH268542   4.970   6.432   3.564 -0.1592  0.2052  0.7094
15684TIP3    H168543   4.959   6.503   3.626 -0.0178  1.0552 -0.2190
15684TIP3    H268544   4.909   6.451   3.494  0.7729  0.1093 -0.1536
15685TIP3   OH268545   4.118   5.842   1.722  0.7024 -0.0647 -0.1273
15685TIP3    H168546   4.202   5.888   1.733 -0.1932  1.9442 -1.2048
15685TIP3    H268547   4.087   5.868   1.635 -1.7066  0.4085  0.7967
15686TIP3   OH268548   1.692   1.720   0.121 -0.6136 -0.6179  0.8377
15686TIP3    H168549   1.749   1.757   0.188  1.0657 -2.8281  0.7558
15686TIP3    H268550   1.603   1.733   0.154  0.1109 -0.5349  2.8685
15687TIP3   OH268551   2.849   4.304  13.361  0.4110  0.0226 -0.0426
15687TIP3    H168552   2.927   4.299  13.416  0.3010 -0.4569  0.0670
15687TIP3    H268553   2.870   4.249  13.285  0.3678  0.2838 -0.2457
15688TIP3   OH268554   6.648   4.163  15.130  0.3744  0.1464 -0.1895
15688TIP3    H168555   6.615   4.117  15.207  2.8054  0.2371  1.0082
15688TIP3    H268556   6.726   4.115  15.104  0.8709  1.4283 -1.2260
15689TIP3   OH268557   4.300   0.646  12.616 -0.1552  0.0438  0.4804
15689TIP3    H168558   4.330   0.703  12.546  0.8553 -0.8656  0.1498
15689TIP3    H268559   4.240   0.584  12.574  0.1791 -0.2821  0.4740
15690TIP3   OH268560   6.496   2.260  11.648 -0.2277  0.0470  0.7445
15690TIP3    H168561   6.463   2.173  11.672  0.5862 -0.6320 -0.5112
15690TIP3    H268562   6.428   2.297  11.591  0.4219 -0.7245 -0.5829
15691TIP3   OH268563   6.181   3.252  12.045  0.2355  0.9151 -0.0089
15691TIP3    H168564   6.105   3.284  11.997  0.2574  0.5599 -0.2846
15691TIP3    H268565   6.220   3.186  11.988  0.5126  0.7963  0.3089
15692TIP3   OH268566   2.857   3.677   1.783  0.1371 -0.1743 -0.0532
15692TIP3    H168567   2.946   3.648   1.761 -0.0116 -0.4897 -0.2488
15692TIP3    H268568   2.838   3.746   1.719  0.1403 -0.2938 -0.1846
15693TIP3   OH268569   6.800   1.422   1.814  0.1512  0.0121 -0.1646
15693TIP3    H168570   6.849   1.350   1.775 -0.5366 -0.4472 -0.2072
15693TIP3    H268571   6.713   1.416   1.775 -1.1399 -1.5496  2.6073
15694TIP3   OH268572   0.533   0.558   5.031  0.2503  0.7842  0.3072
15694TIP3    H168573   0.626   0.536   5.024  0.5108  1.5133  1.3653
15694TIP3    H268574   0.524   0.599   5.116 -1.4404 -1.1257  1.1312
15695TIP3   OH268575   1.634   2.522  12.489 -0.1988  0.1800  0.0012
15695TIP3    H168576   1.631   2.544  12.396  0.6989 -1.0820 -0.3545
15695TIP3    H268577   1.572   2.450  12.499  1.1996 -1.0724 -0.0587
15696TIP3   OH268578   3.917   5.712   1.173 -0.1721 -0.1956  0.0540
15696TIP3    H168579   3.948   5.756   1.253 -0.9878  0.5809 -0.0346
15696TIP3    H268580   3.936   5.775   1.103  2.1305 -1.5657 -0.6681
15697TIP3   OH268581   1.320   2.380  16.731  0.3844 -0.3264  0.6257
15697TIP3    H168582   1.246   2.399  16.673  0.4950 -0.8693  0.2927
15697TIP3    H268583   1.362   2.465  16.745  0.0493 -0.1081  0.3270
15698TIP3   OH268584   2.888   2.190  14.852 -0.0130 -0.0063  0.2717
15698TIP3    H168585   2.899   2.275  14.810 -0.0036 -0.0065  0.2735
15698TIP3    H268586   2.882   2.128  14.780  0.3446 -0.0481  0.2777
15699TIP3   OH268587   5.468   2.500  16.193  0.1957  0.0388 -0.2966
15699TIP3    H168588   5.523   2.476  16.268  2.5083 -0.3717 -2.0283
15699TIP3    H268589   5.430   2.417  16.164  0.7802 -0.0975 -0.6824
15700TIP3   OH268590   0.170   2.612   1.374  0.0363 -0.3151  0.2761
15700TIP3    H168591   0.183   2.690   1.427  0.4972  0.8849 -1.4999
15700TIP3    H268592   0.253   2.565   1.380 -0.1992 -0.6365  1.2495
15701TIP3   OH268593   1.668   3.155   6.246  0.4572 -0.4765  0.4583
15701TIP3    H168594   1.699   3.080   6.297 -2.8552  0.0879  3.7237
15701TIP3    H268595   1.731   3.225   6.264  1.6738 -1.4591  0.1787
15702TIP3   OH268596   6.354   4.627   0.211  0.1397 -0.3617 -0.1937
15702TIP3    H168597   6.271   4.599   0.172  0.3543 -0.6193 -0.4679
15702TIP3    H268598   6.398   4.546   0.235  0.6493 -0.2549 -0.7499
15703TIP3   OH268599   0.687   6.343   1.086 -0.7416  0.1831  0.0539
15703TIP3    H168600   0.638   6.294   1.020 -0.8228 -1.0495  0.9774
15703TIP3    H268601   0.776   6.308   1.080 -0.6545  0.3579  0.3121
15704TIP3   OH268602   3.856   5.014  12.413  0.8376  0.4493 -0.5770
15704TIP3    H168603   3.869   4.998  12.320 -0.0709 -2.0763 -0.3408
15704TIP3    H268604   3.901   4.942  12.456  1.6187  1.8047  1.0099
15705TIP3   OH268605   4.251   4.993   2.897 -0.7522 -0.2944  0.3940
15705TIP3    H168606   4.224   4.913   2.942 -0.4440 -0.1624  0.8165
15705TIP3    H268607   4.203   4.992   2.814 -2.4110  0.1518  1.3051
15706TIP3   OH268608   6.370   1.123   5.389  0.1197  0.6580  0.6535
15706TIP3    H168609   6.352   1.075   5.308 -1.2698 -0.7192  1.7282
15706TIP3    H268610   6.305   1.192   5.391 -0.5893 -0.0070  1.1202
15707TIP3   OH268611   6.651   3.617   4.292 -0.0506 -0.2692 -0.3321
15707TIP3    H168612   6.736   3.636   4.252  0.2227 -0.0004  0.3482
15707TIP3    H268613   6.673   3.592   4.382 -0.8253  2.1041  0.5951
15708TIP3   OH268614   1.810   4.261   4.106 -0.0277  0.5469 -0.4789
15708TIP3    H168615   1.852   4.214   4.034  0.1532  0.1934 -0.1465
15708TIP3    H268616   1.716   4.243   4.096  0.0502  0.0060 -0.2833
15709TIP3   OH268617   6.671   2.042   2.617  0.3963  0.1770  0.1431
15709TIP3    H168618   6.641   2.021   2.528  0.9579 -3.0780  0.6104
15709TIP3    H268619   6.759   2.006   2.621  0.7467  1.1402  1.7689
15710TIP3   OH268620   2.596   4.991   4.908  0.6766 -0.0386  0.1597
15710TIP3    H168621   2.596   4.905   4.866  0.0941  0.1915 -0.3276
15710TIP3    H268622   2.576   5.052   4.837  0.5246  0.4392  0.6120
15711TIP3   OH268623   3.661   3.092  15.820 -0.4494  0.6936  0.1291
15711TIP3    H168624   3.647   3.125  15.909 -0.7688 -1.2515  0.8592
15711TIP3    H268625   3.697   3.004  15.832 -0.5002  0.3755 -1.6766
15712TIP3   OH268626   1.734   3.575   5.279 -0.3883 -0.0551  0.6981
15712TIP3    H168627   1.773   3.624   5.352  2.6285 -1.0518 -0.0844
15712TIP3    H268628   1.640   3.585   5.291  0.0284  1.9485  3.2373
15713TIP3   OH268629   0.511   4.340   4.884 -0.2370  0.0824  0.1736
15713TIP3    H168630   0.578   4.407   4.871  0.1110 -0.6538 -2.2778
15713TIP3    H268631   0.491   4.344   4.978  0.9011  2.4984  0.3931
15714TIP3   OH268632   1.342   3.762   0.250 -0.4992  0.2299  0.2961
15714TIP3    H168633   1.381   3.849   0.255 -2.1858  1.1505 -1.2281
15714TIP3    H268634   1.408   3.703   0.285  2.0534  1.7067 -1.7288
15715TIP3   OH268635   5.896   6.476   2.901 -0.0620  0.1672  0.3018
15715TIP3    H168636   5.893   6.562   2.943  1.4957  1.0225 -1.1552
15715TIP3    H268637   5.839   6.485   2.824  2.0493  0.8499 -1.2960
15716TIP3   OH268638   0.312   5.261  17.161  0.2256  0.5943 -0.1387
15716TIP3    H168639   0.399   5.221  17.166 -1.3795 -3.3998 -0.7760
15716TIP3    H268640   0.272   5.242  17.246 -0.7974  0.2968 -0.6746
15717TIP3   OH268641   6.128   3.055   0.115  0.5125 -0.4433 -0.1022
15717TIP3    H168642   6.087   3.142   0.112  1.2419 -0.1144 -1.4398
15717TIP3    H268643   6.055   2.994   0.125 -0.0832  0.2741 -0.0050
15718TIP3   OH268644   3.358   6.242  16.287  0.1071 -0.7613 -0.6143
15718TIP3    H168645   3.289   6.231  16.353  0.0864  0.2692 -0.4541
15718TIP3    H268646   3.311   6.268  16.208  0.3970  1.9912 -0.0003
15719TIP3   OH268647   5.433   6.171  15.496  0.3806 -0.2120 -0.1398
15719TIP3    H168648   5.448   6.099  15.557  2.1433  1.1104  1.0644
15719TIP3    H268649   5.343   6.156  15.465 -0.7351 -0.8185  2.9626
15720TIP3   OH268650   2.909   0.975  12.857  0.6289 -0.6288 -0.3247
15720TIP3    H168651   2.986   1.028  12.839  0.3136  0.5861  1.5925
15720TIP3    H268652   2.912   0.960  12.952 -1.9356  0.2566 -0.0173
15721TIP3   OH268653   6.273   1.173  12.680  0.0403  1.0861  0.3140
15721TIP3    H168654   6.290   1.267  12.687  0.6407  1.2251 -2.1781
15721TIP3    H268655   6.178   1.167  12.671 -0.1090  1.3325  1.4800
15722TIP3   OH268656   5.982   5.076  15.218  0.2526 -0.4995  0.0419
15722TIP3    H168657   5.904   5.103  15.266  1.3454 -0.1644  1.7040
15722TIP3    H268658   5.976   5.123  15.135  0.6226  2.6989  1.6550
15723TIP3   OH268659   4.582   5.579   5.390 -0.3972  0.1873 -0.9225
15723TIP3    H168660   4.601   5.613   5.477 -3.0435 -2.2549  0.7864
15723TIP3    H268661   4.644   5.506   5.379  0.9227  1.3940 -1.7951
15724TIP3   OH268662   3.190   0.512   3.257  0.9187  0.0615  0.0934
15724TIP3    H168663   3.280   0.510   3.288  0.9291 -2.3114  0.1461
15724TIP3    H268664   3.195   0.481   3.167  0.2027  0.4306 -0.0809
15725TIP3   OH268665   4.535   6.608   1.313  0.5048 -0.4271 -0.0782
15725TIP3    H168666   4.510   6.521   1.344 -1.0378  0.2212  0.5862
15725TIP3    H268667   4.526   6.603   1.218 -0.4953 -0.7275  0.0232
15726TIP3   OH268668   4.833   6.232   0.506 -0.0550  0.3593  0.1157
15726TIP3    H168669   4.804   6.252   0.417  1.1867  0.8425 -0.1971
15726TIP3    H268670   4.765   6.268   0.562 -1.4849 -1.0405 -0.6385
15727TIP3   OH268671   4.898   3.755  12.227  0.1557 -0.0785 -0.2250
15727TIP3    H168672   4.927   3.808  12.153  0.6091  0.6367  0.4391
15727TIP3    H268673   4.805   3.743  12.213  0.2820 -0.1641 -1.0376
15728TIP3   OH268674   4.429   4.474  14.428  0.0526  0.1677  0.1462
15728TIP3    H168675   4.340   4.509  14.433  0.2589  0.6883  0.3114
15728TIP3    H268676   4.424   4.389  14.471 -0.5526 -0.2099 -0.6394
15729TIP3   OH268677   2.267   2.806   3.499 -0.2483 -0.7060 -0.1604
15729TIP3    H168678   2.290   2.850   3.416  1.3624 -0.5327  0.3319
15729TIP3    H268679   2.335   2.835   3.560 -0.7444 -1.7478  0.9177
15730TIP3   OH268680   3.943   0.420  13.347 -0.2651 -0.4764 -0.2062
15730TIP3    H168681   3.962   0.339  13.395 -1.1295  0.0936  1.1499
15730TIP3    H268682   3.944   0.394  13.255 -0.8187 -2.0991  0.2135
15731TIP3   OH268683   4.694   1.865  15.084  0.2456  0.1480 -0.3969
15731TIP3    H168684   4.619   1.900  15.133 -0.3381  0.7761 -1.6943
15731TIP3    H268685   4.768   1.874  15.144 -0.2493  1.8460  0.0134
15732TIP3   OH268686   4.642   1.878   6.605 -0.3599 -0.3217 -0.5991
15732TIP3    H168687   4.588   1.808   6.568  0.2859 -1.7321  1.0162
15732TIP3    H268688   4.729   1.862   6.570 -0.2796 -0.1139 -0.4944
15733TIP3   OH268689   5.238   3.714  14.740  0.1128 -0.6898 -0.0543
15733TIP3    H168690   5.230   3.778  14.811  0.6330  1.3337 -1.7001
15733TIP3    H268691   5.330   3.720  14.713 -0.6121  0.4927 -2.4953
15734TIP3   OH268692   3.263   6.380   3.619  0.2859  0.9228 -0.4697
15734TIP3    H168693   3.207   6.454   3.642  1.2082  1.3895  0.3578
15734TIP3    H268694   3.240   6.312   3.683  1.5858  1.5961  0.7834
15735TIP3   OH268695   2.856   2.608   1.384 -0.8738  0.4295  0.3028
15735TIP3    H168696   2.870   2.646   1.297 -1.6260  1.6676  0.7043
15735TIP3    H268697   2.935   2.629   1.433 -0.3618 -0.4401 -0.1158
15736TIP3   OH268698   3.585   6.211   0.351  0.4545  0.0433 -0.6651
15736TIP3    H168699   3.670   6.169   0.340  0.4098 -1.3146  2.8498
15736TIP3    H268700   3.524   6.157   0.300  1.2016 -1.0232 -0.4618
15737TIP3   OH268701   6.251   5.087   3.969  0.7475 -0.8685 -0.2982
15737TIP3    H168702   6.242   5.110   3.876 -0.6681  1.5997  0.3585
15737TIP3    H268703   6.184   5.021   3.984  1.2336 -1.5708 -1.0671
15738TIP3   OH268704   3.648   1.668  16.757  0.2485  0.1768  0.5723
15738TIP3    H168705   3.655   1.573  16.761 -3.0314 -0.1652  1.3731
15738TIP3    H268706   3.651   1.689  16.664  3.5530 -0.3341  0.4728
15739TIP3   OH268707   4.976   1.153  17.136 -0.0377  0.0760 -0.1648
15739TIP3    H168708   5.036   1.085  17.103  1.1462  1.6914 -1.4781
15739TIP3    H268709   4.889   1.124  17.108  0.4133 -0.9494 -0.5706
15740TIP3   OH268710   3.540   3.789   1.130  0.5039 -0.0666 -0.6008
15740TIP3    H168711   3.566   3.842   1.055 -1.2213  0.3151 -0.9652
15740TIP3    H268712   3.537   3.699   1.096  0.0827  0.0591 -0.9075
15741TIP3   OH268713   2.464   1.720   1.618 -0.3325 -0.0345 -0.0817
15741TIP3    H168714   2.521   1.644   1.624  0.2788  0.5559  2.3428
15741TIP3    H268715   2.518   1.788   1.578  0.1624  0.0678  0.7604
15742TIP3   OH268716   2.588   5.366   3.772 -0.0792 -0.1969  0.2003
15742TIP3    H168717   2.536   5.338   3.847 -0.3560  0.1734  0.1469
15742TIP3    H268718   2.554   5.314   3.699 -0.0523 -0.2972  0.2584
15743TIP3   OH268719   0.266   4.072  12.688 -0.2663  0.2234 -0.1342
15743TIP3    H168720   0.316   3.992  12.670 -0.5275 -0.5206  2.1081
15743TIP3    H268721   0.318   4.142  12.650  0.6163 -0.8893 -1.0478
15744TIP3   OH268722   2.091   4.327  11.689  0.0882  0.9022  0.1686
15744TIP3    H168723   2.056   4.240  11.673  0.8776  0.2900  1.6290
15744TIP3    H268724   2.073   4.375  11.608 -1.3993 -0.2543 -0.2332
15745TIP3   OH268725   3.243   5.944   5.849 -0.0031  0.5762  0.3290
15745TIP3    H168726   3.193   5.862   5.844  0.0827  0.4619  1.1992
15745TIP3    H268727   3.219   5.992   5.769 -2.3963  1.0250  1.2416
15746TIP3   OH268728   3.893   5.852   2.341  0.1976  0.2278 -0.4430
15746TIP3    H168729   3.895   5.947   2.349  1.1848  0.1546  0.2585
15746TIP3    H268730   3.931   5.835   2.255  4.4257  0.3005  1.2034
15747TIP3   OH268731   5.485   3.523   2.691  0.0890  0.5413  0.2969
15747TIP3    H168732   5.510   3.431   2.701  2.2795  1.0691  0.2301
15747TIP3    H268733   5.514   3.564   2.773  0.0900  1.3517 -0.1040
15748TIP3   OH268734   1.788   4.234   6.707  0.1882  0.0466  0.2457
15748TIP3    H168735   1.852   4.163   6.717  0.6653  0.0903 -1.9530
15748TIP3    H268736   1.704   4.194   6.727  0.6728 -0.5710  1.1127
15749TIP3   OH268737   3.718   4.242   4.495  0.1507 -0.3256 -0.1727
15749TIP3    H168738   3.722   4.146   4.500  1.8808 -0.2370  0.8254
15749TIP3    H268739   3.806   4.268   4.466 -0.7673  0.9110 -2.0295
15750TIP3   OH268740   1.093   0.247  13.880 -0.4350 -0.3552 -0.1123
15750TIP3    H168741   1.029   0.243  13.809 -0.9422  0.3186  0.2907
15750TIP3    H268742   1.069   0.326  13.929  1.1986  0.3958 -0.4320
15751TIP3   OH268743   5.643   2.639   4.032 -0.1803 -0.5185 -0.0942
15751TIP3    H168744   5.628   2.726   4.068 -0.8531 -1.5408  2.3229
15751TIP3    H268745   5.593   2.637   3.951  1.2223  1.8483 -1.1029
15752TIP3   OH268746   0.896   2.300   0.363 -0.1189 -0.6252 -0.1361
15752TIP3    H168747   0.939   2.383   0.386  0.1139 -1.1843  1.5745
15752TIP3    H268748   0.933   2.236   0.424 -0.0213 -2.0875 -1.6742
15753TIP3   OH268749   3.766   5.234  14.535 -0.4716 -0.1212  0.2577
15753TIP3    H168750   3.823   5.287  14.592  1.5757 -2.0836  0.1718
15753TIP3    H268751   3.721   5.175  14.594  0.5465 -1.1664  0.0264
15754TIP3   OH268752   5.525   4.622   4.068 -0.6737 -0.1986  0.3563
15754TIP3    H168753   5.529   4.599   3.975  0.0124  1.1960  0.0063
15754TIP3    H268754   5.616   4.644   4.090 -1.0423  0.6536  1.0381
15755TIP3   OH268755   0.494   6.481   2.552 -0.1453 -0.1587 -0.6989
15755TIP3    H168756   0.557   6.469   2.481  0.1535 -0.1147 -0.4392
15755TIP3    H268757   0.476   6.575   2.552  0.3721 -0.0569 -0.2733
15756TIP3   OH268758   4.542   1.286  14.245  0.0294  0.1608 -0.6181
15756TIP3    H168759   4.538   1.191  14.260 -1.9813  0.1645 -0.7944
15756TIP3    H268760   4.458   1.307  14.203 -0.4718  2.3295  1.2694
15757TIP3   OH268761   4.632   6.398   0.621 -0.6551 -0.1227  0.4758
15757TIP3    H168762   4.540   6.387   0.596 -1.2997  0.6749  2.3362
15757TIP3    H268763   4.636   6.367   0.712  0.8140  0.3481  0.5954
15758TIP3   OH268764   2.607   5.849  14.470  0.7139 -0.3708 -0.4361
15758TIP3    H168765   2.698   5.873  14.492  1.1974 -1.9457 -0.5440
15758TIP3    H268766   2.616   5.778  14.406 -0.5786 -1.1168  0.1682
15759TIP3   OH268767   3.535   2.127  12.928  0.4366 -0.4250  0.0018
15759TIP3    H168768   3.473   2.195  12.901 -0.9601 -1.6944 -0.1413
15759TIP3    H268769   3.520   2.117  13.022  0.8420 -0.3422  0.0767
15760TIP3   OH268770   5.309   5.032  11.649 -0.1648 -0.4247  1.0496
15760TIP3    H168771   5.239   5.085  11.688  0.3253 -0.3664  1.8705
15760TIP3    H268772   5.317   5.064  11.560 -1.8339 -1.0729  0.6289
15761TIP3   OH268773   3.653   0.004  15.060  0.6217  0.4644 -0.3660
15761TIP3    H168774   3.635  -0.024  15.149 -0.8800  1.3374 -0.3498
15761TIP3    H268775   3.623  -0.069  15.005  1.8525 -0.2095 -0.1609
15762TIP3   OH268776   1.127   0.798   4.728 -0.2114  0.2964  0.1054
15762TIP3    H168777   1.064   0.726   4.736  1.2351 -1.1539 -0.8775
15762TIP3    H268778   1.133   0.813   4.634 -1.5584  2.7479  0.3532
15763TIP3   OH268779   2.853   4.498   2.241  0.2819  0.2033 -0.6936
15763TIP3    H168780   2.939   4.497   2.283 -0.7810 -0.6473  1.5854
15763TIP3    H268781   2.819   4.586   2.258 -0.3301 -0.2783  0.7162
15764TIP3   OH268782   2.616   6.524  10.815  0.0642 -0.4543  0.2337
15764TIP3    H168783   2.667   6.445  10.800  0.2576 -0.6320  1.6419
15764TIP3    H268784   2.539   6.515  10.759  0.9443 -0.7812 -0.9557
15765TIP3   OH268785   1.220   5.469  16.438  0.1862 -0.8012  0.1572
15765TIP3    H168786   1.281   5.542  16.426 -0.1900 -0.6764 -1.0857
15765TIP3    H268787   1.218   5.425  16.354 -1.1703 -1.0183  0.2881
15766TIP3   OH268788   5.687   2.431   4.219  0.1883  0.3967 -0.1119
15766TIP3    H168789   5.674   2.472   4.133  2.7428  1.3324 -0.1270
15766TIP3    H268790   5.703   2.504   4.279  2.2023 -0.3771  0.3736
15767TIP3   OH268791   0.645   5.857  12.067 -0.1037  0.5065 -0.3939
15767TIP3    H168792   0.650   5.913  11.990 -0.5755  0.3719 -0.5261
15767TIP3    H268793   0.551   5.845  12.082 -0.0176  0.5751  0.2348
15768TIP3   OH268794   4.698   0.764   1.639 -0.6229 -0.8589 -0.4590
15768TIP3    H168795   4.789   0.753   1.613 -0.7856 -0.4214 -1.2544
15768TIP3    H268796   4.702   0.796   1.729 -0.0327 -2.1131 -0.0132
15769TIP3   OH268797   4.344   3.085   5.376  0.6861  0.8297 -0.2523
15769TIP3    H168798   4.379   3.101   5.463  1.0608 -0.7200 -0.0867
15769TIP3    H268799   4.391   3.008   5.345  0.3431  1.1736 -1.7065
15770TIP3   OH268800   3.882   1.287  10.921  0.1486 -0.0324 -0.4536
15770TIP3    H168801   3.837   1.207  10.949  1.4444 -1.3090 -1.8173
15770TIP3    H268802   3.814   1.337  10.875 -0.8105 -0.0721  0.8509
15771TIP3   OH268803   0.524   5.503  17.169 -0.1749  0.1797 -0.2331
15771TIP3    H168804   0.533   5.411  17.141  0.5697  0.2564 -0.2679
15771TIP3    H268805   0.466   5.499  17.244 -1.0256 -0.1966 -0.8909
15772TIP3   OH268806   5.331   5.653  10.985 -0.1755  0.4514  0.1838
15772TIP3    H168807   5.339   5.749  10.988  0.1835  0.5033 -1.4222
15772TIP3    H268808   5.392   5.626  10.916 -0.0575 -0.9739  0.8058
15773TIP3   OH268809   5.118   1.480  12.359 -0.1268  0.2259 -0.1541
15773TIP3    H168810   5.172   1.431  12.297  1.2899 -0.5595  1.5890
15773TIP3    H268811   5.053   1.525  12.305 -0.0026 -1.7096 -2.0464
15774TIP3   OH268812   5.275   0.773   4.081 -0.1274  0.3800 -0.4501
15774TIP3    H168813   5.190   0.802   4.114 -0.2513 -0.5312  0.0876
15774TIP3    H268814   5.262   0.762   3.987 -0.8091 -0.3917 -0.2773
15775TIP3   OH268815   3.561   4.199  17.185  0.2073 -0.6111 -0.4490
15775TIP3    H168816   3.547   4.272  17.245 -0.2186 -1.1404  0.1079
15775TIP3    H268817   3.483   4.145  17.195  0.7899 -1.4642 -0.3904
15776TIP3   OH268818   2.968   6.413  11.172  0.5322  0.3765 -0.6172
15776TIP3    H168819   3.056   6.382  11.192  0.8043  0.2954 -1.8521
15776TIP3    H268820   2.975   6.446  11.082  0.0942  3.3198  0.3323
15777TIP3   OH268821   3.471   5.029   3.464 -0.0463 -0.3412 -0.2768
15777TIP3    H168822   3.494   4.944   3.425  0.0438 -0.7398  0.6213
15777TIP3    H268823   3.512   5.093   3.407 -0.7528 -0.8614 -1.4122
15778TIP3   OH268824   3.112   3.933   5.933 -1.0276 -0.6519  0.0012
15778TIP3    H168825   3.107   3.844   5.896  0.2833 -0.0596 -1.7523
15778TIP3    H268826   3.164   3.923   6.012  0.4230 -1.2588 -0.9856
15779TIP3   OH268827   1.931   4.114   5.017 -0.7718 -0.0749 -0.9313
15779TIP3    H168828   1.847   4.160   5.020 -0.1808  1.0028  1.0433
15779TIP3    H268829   1.932   4.062   5.097  1.3119  1.7048  0.3299
15780TIP3   OH268830   3.063   2.457  11.367 -0.0068  0.1453 -0.5129
15780TIP3    H168831   3.138   2.515  11.382  0.3715 -0.1782 -1.1456
15780TIP3    H268832   3.039   2.426  11.455 -0.1621  1.1845 -0.1762
15781TIP3   OH268833   4.110   1.248  12.417  0.1224  0.6788  0.7638
15781TIP3    H168834   4.174   1.179  12.439 -1.5787 -0.3392  2.9049
15781TIP3    H268835   4.121   1.313  12.486  1.2465  2.3305 -0.8772
15782TIP3   OH268836   0.111   2.119   3.187 -0.2631  0.3945  0.3925
15782TIP3    H168837   0.117   2.188   3.254  1.5469  1.6480 -0.9479
15782TIP3    H268838   0.066   2.161   3.114  1.2297  0.3511 -0.5989
15783TIP3   OH268839   0.675   6.206   6.264 -0.1106 -0.2487  0.0697
15783TIP3    H168840   0.604   6.209   6.328 -0.0433  0.5439  0.1256
15783TIP3    H268841   0.674   6.293   6.225 -1.1209 -1.1741 -2.0900
15784TIP3   OH268842   6.142   5.168  16.386 -0.2131  0.2365 -0.1189
15784TIP3    H168843   6.108   5.095  16.333 -0.3910  0.1649  0.0906
15784TIP3    H268844   6.119   5.246  16.337  0.1510  0.1454 -0.4411
15785TIP3   OH268845   6.509   6.085  11.304 -0.0679  0.5464  0.6354
15785TIP3    H168846   6.430   6.063  11.256 -0.4311  0.0992  1.4346
15785TIP3    H268847   6.507   6.030  11.382  0.9715  0.6081  0.7258
15786TIP3   OH268848   5.573   0.754  14.761 -0.4227  0.5570  0.0012
15786TIP3    H168849   5.572   0.755  14.665  2.8847 -2.1481 -0.2645
15786TIP3    H268850   5.665   0.762  14.784 -0.9675 -0.4150  2.8893
15787TIP3   OH268851   6.178   0.084  15.462  0.0133 -0.0203 -0.6469
15787TIP3    H168852   6.124   0.014  15.499 -1.8527  0.3871 -2.4273
15787TIP3    H268853   6.130   0.164  15.480  0.9610  0.5693 -0.6749
15788TIP3   OH268854   2.428   4.241  11.107  0.2648 -0.5563 -0.1581
15788TIP3    H168855   2.486   4.316  11.120 -2.1687  1.1093  2.1902
15788TIP3    H268856   2.446   4.184  11.181 -0.3664 -0.5092  0.0371
15789TIP3   OH268857   0.640   4.187   5.605 -0.3928  0.3468 -0.1843
15789TIP3    H168858   0.672   4.126   5.671 -2.3850  0.3527  0.8605
15789TIP3    H268859   0.643   4.138   5.523  0.8481 -0.1073  0.1174
15790TIP3   OH268860   2.300   0.141   3.170 -0.3098 -0.1699 -0.4034
15790TIP3    H168861   2.274   0.126   3.261  1.9734 -1.1293  0.1608
15790TIP3    H268862   2.343   0.059   3.144 -1.2020 -0.0311 -2.4743
15791TIP3   OH268863   0.386   3.277   0.904  0.5134  0.3251 -0.2287
15791TIP3    H168864   0.409   3.322   0.823  1.0279 -0.5994 -0.6048
15791TIP3    H268865   0.433   3.325   0.972  0.3504  0.8948 -0.5102
15792TIP3   OH268866   1.126   3.580  16.517  0.3820  0.4854  0.7230
15792TIP3    H168867   1.049   3.633  16.497 -1.0365 -1.8782 -0.7197
15792TIP3    H268868   1.095   3.514  16.578  1.7375  0.5112  1.4818
15793TIP3   OH268869   1.968   0.395   0.623  0.0861 -0.7611 -0.6616
15793TIP3    H168870   2.033   0.460   0.649 -1.0441 -0.2501  1.0819
15793TIP3    H268871   2.008   0.311   0.646  1.8355 -0.8493 -3.5455
15794TIP3   OH268872   3.420   0.339   1.141  0.3178 -0.1507 -0.0911
15794TIP3    H168873   3.388   0.388   1.065 -0.2326  2.3826  1.6319
15794TIP3    H268874   3.345   0.284   1.166  0.1718 -0.2886 -0.7917
15795TIP3   OH268875   1.725   1.646  11.759  0.3194 -0.6181  0.9672
15795TIP3    H168876   1.697   1.625  11.848  1.2018  0.9966  1.6822
15795TIP3    H268877   1.648   1.688  11.719 -0.7887 -3.2105  0.1826
15796TIP3   OH268878   1.914   0.061   0.368 -0.0659 -0.2501 -0.2333
15796TIP3    H168879   1.953   0.131   0.316 -0.9684  0.0852 -0.4862
15796TIP3    H268880   1.980   0.039   0.433  0.2857  0.7536 -0.2356
15797TIP3   OH268881   6.151   3.504   0.530  0.6950  0.1809  0.4987
15797TIP3    H168882   6.168   3.543   0.616  3.5887  0.4461 -0.0759
15797TIP3    H268883   6.088   3.563   0.490 -0.2927  0.3642  2.1979
15798TIP3   OH268884   0.920   0.643  14.202  0.1834  0.7272 -1.1512
15798TIP3    H168885   0.979   0.630  14.128 -0.4364 -0.1378 -1.5016
15798TIP3    H268886   0.833   0.650  14.163 -0.3255 -1.0675 -0.4284
15799TIP3   OH268887   6.557   5.334  14.212  0.0133 -0.2986  0.0224
15799TIP3    H168888   6.481   5.384  14.244  1.5143  1.5422  0.9114
15799TIP3    H268889   6.589   5.288  14.290 -0.4354 -1.4589 -0.4578
15800TIP3   OH268890   0.584   0.253  11.824 -0.5478 -0.2955 -0.5310
15800TIP3    H168891   0.668   0.223  11.859 -1.1784  0.2010  1.5344
15800TIP3    H268892   0.585   0.347  11.837 -1.7646 -0.3828  0.3564
15801TIP3   OH268893   6.529   4.936  13.028 -0.2569  0.4355  0.4109
15801TIP3    H168894   6.472   4.923  13.103 -1.4796  2.0230 -0.1953
15801TIP3    H268895   6.560   4.848  13.006  0.3627 -0.0358  2.8942
15802TIP3   OH268896   4.296   5.862   0.194 -0.1296 -0.0415  0.7605
15802TIP3    H168897   4.224   5.839   0.253 -0.9707  0.4772 -0.0275
15802TIP3    H268898   4.333   5.777   0.168 -1.0477 -0.3685  0.4679
15803TIP3   OH268899   3.019   1.076   4.195 -0.1522 -0.4007  0.5272
15803TIP3    H168900   2.943   1.024   4.168  0.4115 -0.7281 -0.4873
15803TIP3    H268901   3.046   1.122   4.115  1.8710 -1.7846  0.3401
15804TIP3   OH268902   6.526   2.478   2.899 -0.1562  0.2574  0.3992
15804TIP3    H168903   6.518   2.495   2.806 -1.7766 -0.6143  0.3370
15804TIP3    H268904   6.439   2.495   2.934  0.0850 -0.6602  1.5257
15805TIP3   OH268905   2.713   5.857  14.009  0.3305 -0.6024 -0.1944
15805TIP3    H168906   2.719   5.902  13.925  0.7494 -0.1338  0.0770
15805TIP3    H268907   2.699   5.765  13.987  0.4931 -0.4904 -0.7760
15806TIP3   OH268908   1.171   0.214  17.126  0.3610 -0.5049 -0.4616
15806TIP3    H168909   1.140   0.129  17.158  1.2493 -0.3917  0.7755
15806TIP3    H268910   1.168   0.271  17.203 -0.0280  0.5278 -1.2346
15807TIP3   OH268911   0.518   1.645   2.284  0.3920  0.8327  0.1446
15807TIP3    H168912   0.484   1.649   2.374 -0.6299 -2.5435  0.0607
15807TIP3    H268913   0.446   1.607   2.234  2.6597 -2.3731 -0.9632
15808TIP3   OH268914   5.444   5.430  14.248 -0.2984 -0.6854  0.0946
15808TIP3    H168915   5.398   5.356  14.288 -1.1054 -0.5152 -0.4851
15808TIP3    H268916   5.516   5.449  14.308  0.6532 -2.6929 -0.3320
15809TIP3   OH268917   3.865   3.235  13.144  0.3646  0.0994  0.0443
15809TIP3    H168918   3.904   3.164  13.094  3.7571  0.1816  2.2776
15809TIP3    H268919   3.895   3.315  13.099 -1.1210  0.2183 -0.8211
15810TIP3   OH268920   0.303   4.749   0.041 -0.2108  0.2976 -0.6147
15810TIP3    H168921   0.366   4.687   0.004 -0.2202  0.5447 -1.0516
15810TIP3    H268922   0.355   4.802   0.103 -0.2474 -0.2746 -0.0854
15811TIP3   OH268923   6.805   4.560   3.330  0.3488 -0.5073  0.0470
15811TIP3    H168924   6.829   4.547   3.421 -2.8106 -0.3121  1.0135
15811TIP3    H268925   6.861   4.632   3.300 -0.3101  1.2131  2.6498
15812TIP3   OH268926   1.929   0.834  16.861  0.2292 -0.0935 -0.0557
15812TIP3    H168927   1.970   0.748  16.852  0.6712  0.1783 -0.6916
15812TIP3    H268928   2.001   0.892  16.887 -0.2631 -0.1060  1.4727
15813TIP3   OH268929   5.624   3.846  14.261 -0.1295  0.1015 -0.1861
15813TIP3    H168930   5.530   3.831  14.247 -0.6181  1.9061  0.7799
15813TIP3    H268931   5.630   3.939  14.280  2.0097  0.2102 -1.1820
15814TIP3   OH268932   6.071   5.153  12.213  0.3729 -0.1087  0.5077
15814TIP3    H168933   5.994   5.158  12.270 -0.0774 -0.2889 -0.0705
15814TIP3    H268934   6.116   5.074  12.241 -1.3821 -1.8429 -1.2349
15815TIP3   OH268935   6.319   3.699  12.184 -0.3619  0.0739 -0.7053
15815TIP3    H168936   6.289   3.745  12.105 -0.3659 -0.2702 -0.9056
15815TIP3    H268937   6.239   3.683  12.233 -0.4114 -0.1086 -0.8450
15816TIP3   OH268938   5.029   5.480  12.261  0.4899 -0.5320 -0.4601
15816TIP3    H168939   5.092   5.524  12.318 -1.9732  1.6691  0.7758
15816TIP3    H268940   4.980   5.421  12.319 -0.4275 -0.1064 -0.7769
15817TIP3   OH268941   3.826   6.456   1.337 -0.1087 -0.1102 -0.1249
15817TIP3    H168942   3.894   6.520   1.358  0.6295 -0.7124 -0.6170
15817TIP3    H268943   3.744   6.500   1.357  0.3906  0.9787 -0.4094
15818TIP3   OH268944   0.391   1.312  16.345  0.0509 -0.6898  0.0547
15818TIP3    H168945   0.370   1.344  16.432 -0.6032 -0.3954 -0.2065
15818TIP3    H268946   0.476   1.268  16.355  0.9041  0.9683  0.4571
15819TIP3   OH268947   0.634   6.177  13.337 -0.2785  0.4624  0.3513
15819TIP3    H168948   0.578   6.102  13.318  0.3702 -0.0428  0.4026
15819TIP3    H268949   0.573   6.249  13.352 -0.8859  0.2478 -0.9386
15820TIP3   OH268950   3.994   6.177  12.446 -0.7140 -1.0430 -0.1095
15820TIP3    H168951   3.956   6.264  12.443 -0.9553 -1.1565 -0.4182
15820TIP3    H268952   4.008   6.154  12.354  0.4340 -0.8545  0.0001
15821TIP3   OH268953   5.333   0.196  13.117 -1.0484  0.7041  0.8784
15821TIP3    H168954   5.311   0.195  13.024 -2.4459  0.5561  1.1758
15821TIP3    H268955   5.347   0.104  13.139  0.0123  0.8043  0.6757
15822TIP3   OH268956   0.658   0.196   3.794 -0.3707 -0.1417  0.3288
15822TIP3    H168957   0.716   0.123   3.769 -0.9228 -0.3345 -0.4175
15822TIP3    H268958   0.714   0.273   3.789 -0.0565 -0.3827  0.0718
15823TIP3   OH268959   5.703   1.030  11.769 -0.2818  0.0302 -0.2373
15823TIP3    H168960   5.679   0.948  11.813 -0.9414  0.1033 -0.4473
15823TIP3    H268961   5.686   1.097  11.835 -0.8785  0.1020 -0.4571
15824TIP3   OH268962   4.267   5.729   0.588  0.7193 -0.3060  0.1462
15824TIP3    H168963   4.208   5.725   0.513  1.6628 -0.3994 -0.6060
15824TIP3    H268964   4.212   5.760   0.660 -0.3147 -0.6954 -0.4606
15825TIP3   OH268965   2.065   1.963   1.938 -0.2797 -0.0244  0.0164
15825TIP3    H168966   2.146   1.945   1.890 -1.2099  0.8456 -1.9492
15825TIP3    H268967   2.024   1.877   1.949 -0.1349 -0.2220 -0.9305
15826TIP3   OH268968   3.614   4.749   1.707  0.1049 -0.3488 -0.1980
15826TIP3    H168969   3.657   4.738   1.622 -0.6153 -0.5989 -0.5337
15826TIP3    H268970   3.679   4.718   1.770  0.8368  0.3016 -0.6132
15827TIP3   OH268971   2.986   4.490  12.434  0.2725 -0.7628  0.3247
15827TIP3    H168972   3.070   4.460  12.470  0.3738 -2.1092 -0.9340
15827TIP3    H268973   3.006   4.509  12.342  0.2328  3.3769  0.9699
15828TIP3   OH268974   6.278   5.128  14.290 -0.0373  0.6961  0.3451
15828TIP3    H168975   6.195   5.079  14.287 -1.0650  2.3854  0.0570
15828TIP3    H268976   6.262   5.199  14.352  1.0460  1.3068 -0.0570
15829TIP3   OH268977   1.952   1.254   1.895 -0.3250 -0.0801 -0.1144
15829TIP3    H168978   1.892   1.227   1.965 -2.3596  0.1455 -1.6867
15829TIP3    H268979   2.013   1.314   1.937 -1.6138  0.2015  1.4418
15830TIP3   OH268980   1.969   5.555   2.735  0.2744 -0.5101  0.1773
15830TIP3    H168981   1.959   5.583   2.644 -0.6127 -0.0717  0.4015
15830TIP3    H268982   1.899   5.600   2.782  0.2233 -1.3611  0.9404
15831TIP3   OH268983   3.406   0.270  11.626 -0.1024  0.2593  0.4083
15831TIP3    H168984   3.408   0.174  11.626 -3.3255  0.0623  1.0242
15831TIP3    H268985   3.462   0.296  11.553 -0.1776 -2.1604 -0.5988
15832TIP3   OH268986   1.617   0.055   5.026 -0.1568 -0.2122 -0.2091
15832TIP3    H168987   1.575  -0.018   5.072  0.6359 -0.7133 -0.2592
15832TIP3    H268988   1.710   0.033   5.025  0.3002  1.4298  0.9500
15833TIP3   OH268989   2.614   5.784   3.039  0.0112  0.4850  0.1773
15833TIP3    H168990   2.603   5.728   3.116 -1.3651 -0.7871 -0.9052
15833TIP3    H268991   2.699   5.827   3.053  0.5079 -0.8880  1.6493
15834TIP3   OH268992   3.871   5.877   4.800 -0.1009 -0.1823 -0.2626
15834TIP3    H168993   3.946   5.893   4.858  0.1260 -2.1804  0.0629
15834TIP3    H268994   3.817   5.956   4.809  1.6508  1.0618 -0.0549
15835TIP3   OH268995   3.441   1.744  14.514 -0.4581  0.2547 -0.0804
15835TIP3    H168996   3.376   1.710  14.576  0.2503 -1.0679 -0.0438
15835TIP3    H268997   3.525   1.720  14.552 -0.0068 -0.7234 -1.6338
15836TIP3   OH268998   6.602   2.469   0.085 -0.0401  0.7844 -0.4176
15836TIP3    H168999   6.557   2.385   0.082  1.4278 -0.0223 -0.3540
15836TIP3    H269000   6.604   2.499  -0.006  1.1749 -0.2194 -0.7444
15837TIP3   OH269001   1.973   5.466  15.779 -0.3770  0.4492  0.6044
15837TIP3    H169002   2.055   5.514  15.780 -0.2821  0.4579 -1.8683
15837TIP3    H269003   1.994   5.382  15.737 -1.1566 -0.5750  2.1385
15838TIP3   OH269004   6.191   6.362   1.669 -0.2813 -0.0142  0.1991
15838TIP3    H169005   6.167   6.301   1.599  1.4697 -0.4020 -0.1050
15838TIP3    H269006   6.233   6.308   1.735  1.3154  0.7950 -0.0776
15839TIP3   OH269007   6.041   2.822   2.754 -0.1814 -0.8202 -0.2230
15839TIP3    H169008   5.988   2.869   2.689 -0.2376 -0.5617  0.0082
15839TIP3    H269009   5.994   2.835   2.836  0.1143 -0.7956 -0.0572
15840TIP3   OH269010   2.241   5.173   4.960 -0.5235  0.2924  0.2532
15840TIP3    H169011   2.305   5.106   4.981 -0.8588 -0.6656 -1.5854
15840TIP3    H269012   2.292   5.254   4.951  0.1375 -0.0744  0.6653
15841TIP3   OH269013   0.870   3.888   3.970 -0.2042 -0.0915 -0.4808
15841TIP3    H169014   0.943   3.852   3.919 -1.2955 -1.1540 -1.3450
15841TIP3    H269015   0.883   3.983   3.965  0.6016 -0.2303 -1.4128
15842TIP3   OH269016   0.968   5.299   2.880  0.2330  0.2344  0.0931
15842TIP3    H169017   1.042   5.258   2.924  1.0570  0.0656 -1.3525
15842TIP3    H269018   0.902   5.311   2.948  0.2782 -2.6651  0.7976
15843TIP3   OH269019   1.507   4.080  10.876  0.2825  0.2102 -0.2185
15843TIP3    H169020   1.426   4.131  10.874  0.2610  0.2035  0.3798
15843TIP3    H269021   1.486   3.998  10.831  0.1040  0.4164 -0.5129
15844TIP3   OH269022   1.648   5.262  10.625 -0.8971  0.4817 -0.0386
15844TIP3    H169023   1.653   5.342  10.572 -0.9820  1.6915  1.7082
15844TIP3    H269024   1.563   5.224  10.601 -1.0648  1.1540 -0.5602
15845TIP3   OH269025   1.590   6.345   0.582 -0.1878 -0.1495  0.4310
15845TIP3    H169026   1.585   6.267   0.528  1.7839 -0.1746  0.2337
15845TIP3    H269027   1.628   6.412   0.526 -1.2211  0.7878  0.8032
15846TIP3   OH269028   4.527   2.998   1.548 -0.0758  0.3406  0.2596
15846TIP3    H169029   4.600   3.024   1.492 -1.1723  0.4150 -1.2196
15846TIP3    H269030   4.547   3.036   1.633  1.7389  0.1042 -0.0122
15847TIP3   OH269031   3.819   0.468   3.145 -0.0265 -0.3132 -0.1064
15847TIP3    H169032   3.800   0.561   3.132 -0.0102 -0.2380  0.3923
15847TIP3    H269033   3.735   0.424   3.133 -0.3952 -0.0597  1.3202
15848TIP3   OH269034   2.570   0.481   2.375 -0.2573 -0.5991 -0.0925
15848TIP3    H169035   2.619   0.547   2.325 -0.3825  0.1984  0.8007
15848TIP3    H269036   2.633   0.410   2.387  1.2399  0.9354  2.1436
15849TIP3   OH269037   5.700   0.268   5.663  0.0982 -0.9511 -0.3383
15849TIP3    H169038   5.649   0.301   5.738 -0.2888 -0.5203 -0.7794
15849TIP3    H269039   5.691   0.337   5.596  0.9857 -1.0263 -0.5479
15850TIP3   OH269040   1.745   3.890   4.045  0.0575  0.6485  0.5986
15850TIP3    H169041   1.792   3.893   3.961  0.8050  1.0824  1.0164
15850TIP3    H269042   1.792   3.823   4.095 -0.9299 -0.2401  0.3718
15851TIP3   OH269043   2.127   1.155   4.532  0.0527  0.2895 -0.8368
15851TIP3    H169044   2.088   1.088   4.477 -1.4144 -0.7125  1.2859
15851TIP3    H269045   2.106   1.237   4.488 -0.9969 -0.4675 -1.8048
15852TIP3   OH269046   5.988   4.743   5.007 -0.2536  0.1325  0.2525
15852TIP3    H169047   6.025   4.658   4.980 -0.1616  0.5298 -0.9135
15852TIP3    H269048   6.064   4.799   5.018 -0.2763 -0.0572  1.5479
15853TIP3   OH269049   4.881   5.316   0.794  0.6506 -0.2091  0.5654
15853TIP3    H169050   4.951   5.365   0.751 -0.0076 -0.3203 -0.6827
15853TIP3    H269051   4.845   5.261   0.725  0.1932 -1.1297  1.5137
15854TIP3   OH269052   5.981   5.206   0.616  0.3415 -0.2952  0.1484
15854TIP3    H169053   5.991   5.140   0.548 -0.1341  0.5462 -0.7687
15854TIP3    H269054   6.069   5.240   0.630  0.4336 -0.4400 -0.0832
15855TIP3   OH269055   6.362   3.616   4.489 -0.0826  0.6625 -0.0088
15855TIP3    H169056   6.268   3.602   4.495 -0.0094  0.7624  1.8432
15855TIP3    H269057   6.370   3.697   4.437 -0.9455  0.1393 -1.0036
15856TIP3   OH269058   3.850   3.341   6.347 -0.2090  0.1861  0.5367
15856TIP3    H169059   3.895   3.418   6.312  0.4342 -0.8900 -1.1232
15856TIP3    H269060   3.758   3.368   6.353 -0.3453  0.5414 -1.8699
15857TIP3   OH269061   5.339   0.446  11.444 -0.3117  0.4654  0.6075
15857TIP3    H169062   5.334   0.464  11.351 -0.1183 -1.2953  0.2165
15857TIP3    H269063   5.255   0.474  11.479  0.0061  2.1108  0.1183
15858TIP3   OH269064   4.836   2.182   3.585  0.0782  0.1008 -0.3290
15858TIP3    H169065   4.793   2.201   3.501  2.5880 -0.6030 -1.8926
15858TIP3    H269066   4.790   2.106   3.619  0.2826 -0.8894 -2.1421
15859TIP3   OH269067   4.620   2.766   0.824 -0.1805  0.2442  0.0827
15859TIP3    H169068   4.605   2.761   0.918  2.0971  0.1593  0.4949
15859TIP3    H269069   4.709   2.733   0.812 -0.8881 -1.0558 -2.2847
15860TIP3   OH269070   2.122   2.888  12.399  0.2387 -0.0830  0.1764
15860TIP3    H169071   2.121   2.946  12.475  0.3605  0.3323 -0.1388
15860TIP3    H269072   2.137   2.946  12.324  1.6974 -0.6634 -0.0193
15861TIP3   OH269073   1.684   0.266   2.275  0.0223  0.8013  0.7305
15861TIP3    H169074   1.622   0.193   2.277 -0.1734  0.8791 -0.9359
15861TIP3    H269075   1.655   0.323   2.347 -1.0778  0.2304  0.7716
15862TIP3   OH269076   1.180   4.121   4.015  0.4176  0.0630  0.9791
15862TIP3    H169077   1.203   4.214   4.015  3.8088 -0.6377 -0.6330
15862TIP3    H269078   1.230   4.084   4.088 -0.2770 -0.6560  1.1020
15863TIP3   OH269079   5.103   2.608   6.252  0.5900 -0.1897 -0.3961
15863TIP3    H169080   5.144   2.655   6.179  0.1859 -1.0882 -1.2237
15863TIP3    H269081   5.176   2.562   6.294  0.8449  0.4334 -0.1245
15864TIP3   OH269082   2.512   6.214  15.781 -1.5619  0.5153 -0.1854
15864TIP3    H169083   2.520   6.134  15.729 -0.1694 -1.4200  2.7203
15864TIP3    H269084   2.580   6.272  15.747 -0.5853 -0.7524 -0.4854
15865TIP3   OH269085   2.943   2.696   0.672  0.4527  0.1687  0.2954
15865TIP3    H169086   2.944   2.768   0.610  0.7301  1.6138  1.8927
15865TIP3    H269087   3.033   2.664   0.673  0.6686  0.7643  0.6186
15866TIP3   OH269088   5.943   0.239   4.215  0.1089 -0.6311 -0.3036
15866TIP3    H169089   5.990   0.245   4.299  0.6257 -0.3572 -0.6028
15866TIP3    H269090   5.857   0.206   4.238 -0.8397  2.2435  0.7551
15867TIP3   OH269091   5.106   0.129  11.260  0.1857  0.6960  0.2431
15867TIP3    H169092   5.111   0.156  11.352  2.3296 -0.1189  0.4229
15867TIP3    H269093   5.171   0.183  11.215 -0.5857  0.8250 -0.7315
15868TIP3   OH269094   2.868   3.690  14.174  0.7605  0.1385  0.2443
15868TIP3    H169095   2.864   3.765  14.233 -3.3620  1.6250 -1.5158
15868TIP3    H269096   2.853   3.728  14.087  0.1499 -2.5536 -0.9308
15869TIP3   OH269097   1.037   2.382  14.523 -0.0968 -0.2015  0.4831
15869TIP3    H169098   1.011   2.318  14.457 -0.6142  0.4544  0.0462
15869TIP3    H269099   0.965   2.382  14.586  0.5621 -1.0999  1.2752
15870TIP3   OH269100   2.245   1.533  14.964  0.1195  0.0064  0.2103
15870TIP3    H169101   2.159   1.497  14.944 -0.3601  1.1148  0.1857
15870TIP3    H269102   2.227   1.618  15.003  1.2154  1.5135 -2.2780
15871TIP3   OH269103   3.861   0.955   1.860  0.2200 -0.0474 -0.0421
15871TIP3    H169104   3.841   1.009   1.936  1.6261 -1.1463  1.1884
15871TIP3    H269105   3.787   0.894   1.853  0.1802 -0.0803  0.5971
15872TIP3   OH269106   2.329   2.761   1.781 -1.1978 -0.3974  0.2574
15872TIP3    H169107   2.419   2.794   1.779 -1.6594  0.9110 -2.0941
15872TIP3    H269108   2.339   2.666   1.789  0.2983 -0.1694  1.9668
15873TIP3   OH269109   4.134   5.950  14.183 -0.0808  0.3448  0.1487
15873TIP3    H169110   4.142   5.976  14.091 -1.4154  0.2983  0.0020
15873TIP3    H269111   4.212   5.896  14.199  0.5574  0.9770 -0.7317
15874TIP3   OH269112   5.028   1.886  17.216 -0.1480  0.1266 -0.4644
15874TIP3    H169113   4.989   1.914  17.299  0.6166 -2.0264  0.6987
15874TIP3    H269114   5.121   1.902  17.227 -0.1484  0.7983 -1.3493
15875TIP3   OH269115   0.809   4.157  15.443  0.2975  0.6072 -0.0876
15875TIP3    H169116   0.810   4.250  15.468 -0.4069  1.4207 -2.7617
15875TIP3    H269117   0.893   4.143  15.399  0.9249 -0.4090  1.3563
15876TIP3   OH269118   0.895   0.594   4.559  0.1170 -0.7673  0.8367
15876TIP3    H169119   0.907   0.689   4.551 -0.0083 -0.7882  0.3700
15876TIP3    H269120   0.972   0.564   4.608 -0.3041 -0.3058  1.7980
15877TIP3   OH269121   1.653   1.718  14.293  0.3034 -0.4820 -0.5623
15877TIP3    H169122   1.631   1.785  14.357  0.6491 -0.3749 -0.5523
15877TIP3    H269123   1.633   1.757  14.208 -2.5045 -1.4717 -0.4779
15878TIP3   OH269124   4.830   6.729  12.933 -0.2216 -0.4256 -1.1035
15878TIP3    H169125   4.832   6.634  12.921  1.9323 -1.0905  2.8500
15878TIP3    H269126   4.911   6.760  12.893  0.7759 -0.8253  0.5267
15879TIP3   OH269127   3.481   5.061   2.033 -0.3568 -0.1709 -0.6066
15879TIP3    H169128   3.546   5.016   2.088 -0.2074  0.4260 -0.2871
15879TIP3    H269129   3.528   5.137   1.999 -0.0909 -1.1280 -2.5078
15880TIP3   OH269130   5.844   4.272   2.435  0.4559 -0.4747 -0.2447
15880TIP3    H169131   5.907   4.315   2.377 -0.0602  0.9656  0.2186
15880TIP3    H269132   5.892   4.261   2.517  0.0105  1.0599  0.2628
15881TIP3   OH269133   1.634   2.239   3.463  0.1572 -0.2819  0.8872
15881TIP3    H169134   1.691   2.313   3.445  1.2631 -0.9160  1.6352
15881TIP3    H269135   1.547   2.277   3.474  0.6554  0.8611  0.9726
15882TIP3   OH269136   5.764   3.674   1.612 -0.2281 -0.1990  1.0750
15882TIP3    H169137   5.725   3.715   1.689 -0.4389  0.5894  0.5652
15882TIP3    H269138   5.704   3.695   1.541  1.0478  0.9591  0.2837
15883TIP3   OH269139   3.625   0.332  14.398 -0.4766 -0.0377 -0.1755
15883TIP3    H169140   3.596   0.421  14.377 -1.1226 -0.3731 -0.7166
15883TIP3    H269141   3.645   0.292  14.314 -0.7838 -0.6089  0.0153
15884TIP3   OH269142   5.021   4.870   6.807  0.0143 -0.8096 -0.3027
15884TIP3    H169143   4.949   4.924   6.775  1.0299  0.2848 -0.8099
15884TIP3    H269144   5.002   4.782   6.774 -1.1547 -0.5763 -0.2887
15885TIP3   OH269145   5.796   3.966   4.363  0.0501  0.5578  0.4609
15885TIP3    H169146   5.754   4.046   4.393  1.2352  0.0843  3.8749
15885TIP3    H269147   5.889   3.981   4.378  0.2603 -1.5622  1.6924
15886TIP3   OH269148   2.467   6.543   3.171  0.0152  0.2666 -0.8925
15886TIP3    H169149   2.428   6.560   3.085 -1.8445 -0.0801 -0.1525
15886TIP3    H269150   2.468   6.448   3.179  1.5364  0.2344 -1.0876
15887TIP3   OH269151   3.287   4.935  15.990  0.0806 -0.2398 -0.1859
15887TIP3    H169152   3.203   4.890  15.994 -0.3723  0.6784  1.2486
15887TIP3    H269153   3.265   5.026  15.971  0.7311  0.0332  0.3408
15888TIP3   OH269154   1.988   0.286   3.843 -0.3157  0.3575  0.3852
15888TIP3    H169155   2.046   0.210   3.851 -2.2129 -1.5084 -2.0851
15888TIP3    H269156   2.047   0.360   3.827  1.4672 -1.1996 -0.6794
15889TIP3   OH269157   4.988   6.515   0.493 -0.3139 -0.4047  0.0722
15889TIP3    H169158   5.021   6.427   0.472 -0.7146 -0.0444 -2.4616
15889TIP3    H269159   5.040   6.543   0.568  0.5611 -2.3802  0.2849
15890TIP3   OH269160   6.169   4.107  12.926 -0.1620 -0.1599 -0.0439
15890TIP3    H169161   6.131   4.112  12.839 -1.3783 -1.5973  0.3622
15890TIP3    H269162   6.157   4.015  12.952  2.8623 -0.5246  0.4582
15891TIP3   OH269163   5.285   1.085  12.436 -0.1000 -0.2584 -0.3793
15891TIP3    H169164   5.211   1.097  12.497  1.2849  2.0747  1.0257
15891TIP3    H269165   5.299   1.172  12.399  0.3047 -1.2379 -2.7102
15892TIP3   OH269166   3.517   4.515  17.155 -0.3702  0.0495 -0.2012
15892TIP3    H169167   3.546   4.469  17.077 -0.3062 -0.6985  0.2585
15892TIP3    H269168   3.506   4.606  17.126 -1.1583 -0.3707 -1.2895
15893TIP3   OH269169   3.269   5.294  16.982 -0.2317 -0.2891  0.4726
15893TIP3    H169170   3.344   5.327  16.932 -1.6283  1.9069 -0.3438
15893TIP3    H269171   3.200   5.359  16.966 -2.7714 -2.8856  0.0696
15894TIP3   OH269172   3.507   3.511  13.021  0.2110 -0.3423  0.2837
15894TIP3    H169173   3.504   3.546  12.932 -1.3186 -2.7571 -0.7296
15894TIP3    H269174   3.458   3.574  13.073  0.7827  0.9155 -0.6297
15895TIP3   OH269175   2.508   4.893  11.257 -0.1191  0.0021  0.4564
15895TIP3    H169176   2.571   4.861  11.321  0.3145 -0.1081 -0.0195
15895TIP3    H269177   2.500   4.987  11.275  0.4188  0.0768  0.3204
15896TIP3   OH269178   0.062   3.684  16.151  0.2166  0.0643 -0.4125
15896TIP3    H169179   0.038   3.681  16.059  1.4360  1.8192 -0.8467
15896TIP3    H269180  -0.013   3.726  16.194  0.3065  0.7403 -0.8907
15897TIP3   OH269181   5.455   4.830   3.469  0.4712  0.0105 -0.6804
15897TIP3    H169182   5.456   4.869   3.382  0.2746  0.2445 -0.5810
15897TIP3    H269183   5.459   4.904   3.529 -1.5492  0.0140 -0.4692
15898TIP3   OH269184   2.554   5.107  14.685  0.1706  0.0494 -0.2744
15898TIP3    H169185   2.515   5.026  14.653 -2.3458  1.2835 -0.6111
15898TIP3    H269186   2.648   5.091  14.683 -0.2117 -2.7757 -0.4779
15899TIP3   OH269187   6.054   2.281   1.978 -0.4145  0.2402 -0.5899
15899TIP3    H169188   6.110   2.207   1.952 -0.1946  0.6149 -1.2111
15899TIP3    H269189   5.997   2.295   1.903 -0.5272  0.6356 -0.4329
15900TIP3   OH269190   4.364   0.873  14.097  0.3200  0.5660  0.3188
15900TIP3    H169191   4.370   0.859  14.003  1.5699  1.6266  0.2127
15900TIP3    H269192   4.273   0.900  14.112 -0.8919 -2.8713 -0.0528
15901TIP3   OH269193   4.071   4.115  15.351 -0.2410 -0.0913 -0.3050
15901TIP3    H169194   4.130   4.103  15.426  1.3736  0.0496 -1.5184
15901TIP3    H269195   4.112   4.183  15.298 -0.2306 -1.6504 -2.4022
15902TIP3   OH269196   4.870   4.666   3.610  0.3836 -0.7353 -0.3254
15902TIP3    H169197   4.855   4.750   3.654 -0.8304 -1.0975 -0.0016
15902TIP3    H269198   4.870   4.601   3.680 -0.8122 -1.2320 -0.7485
15903TIP3   OH269199   6.668   3.095  13.059 -0.0782  0.1711 -0.0697
15903TIP3    H169200   6.758   3.069  13.040 -0.5482 -1.4555 -0.1804
15903TIP3    H269201   6.670   3.191  13.055  1.5140  0.1482 -0.6352
15904TIP3   OH269202   2.000   5.006  15.928 -0.2750  0.1249 -0.0934
15904TIP3    H169203   1.984   5.091  15.886 -0.0463 -0.1672 -0.7812
15904TIP3    H269204   1.936   4.947  15.889 -0.4302 -0.0253  0.3813
15905TIP3   OH269205   5.117   0.332  14.746  0.3006 -0.3486 -0.5681
15905TIP3    H169206   5.025   0.328  14.773  0.4762  0.5151  0.2054
15905TIP3    H269207   5.166   0.309  14.825  0.7888  0.8906 -0.4905
15906TIP3   OH269208   0.669   1.895  10.988 -0.1653 -0.1477  0.3507
15906TIP3    H169209   0.754   1.854  10.971  0.0048  0.2905  0.1241
15906TIP3    H269210   0.621   1.885  10.905  0.0306  0.4695  0.1544
15907TIP3   OH269211   1.951   4.076   3.665  0.0763 -0.0145  0.0513
15907TIP3    H169212   1.881   4.015   3.687  0.5762 -0.0928  1.5027
15907TIP3    H269213   1.929   4.157   3.710 -0.2623  0.7178 -1.3691
15908TIP3   OH269214   5.850   6.656  10.928 -0.0506 -0.1821  0.3517
15908TIP3    H169215   5.775   6.602  10.952  0.2388 -0.6385  0.2540
15908TIP3    H269216   5.839   6.736  10.979 -0.1796 -0.5697  0.9536
15909TIP3   OH269217   1.264   0.249  15.163 -0.0219  0.0863  0.3362
15909TIP3    H169218   1.236   0.322  15.107  0.9825  1.2012  1.2499
15909TIP3    H269219   1.255   0.172  15.107 -0.5169  0.9748 -0.8561
15910TIP3   OH269220   2.592   1.930  10.986 -0.1462 -0.5916 -0.2638
15910TIP3    H169221   2.547   1.912  10.903 -0.7172 -0.9438  0.1159
15910TIP3    H269222   2.685   1.934  10.963 -0.3045 -0.6509 -0.9232
15911TIP3   OH269223   6.787   2.036  12.138  0.7201 -0.1282  0.0636
15911TIP3    H169224   6.755   1.947  12.151 -0.4164  0.2988  0.2869
15911TIP3    H269225   6.756   2.060  12.050 -0.7827  0.7796  0.8165
15912TIP3   OH269226   4.806   0.086   4.456  0.1536  0.2370  0.1982
15912TIP3    H169227   4.798  -0.009   4.465  1.4936  0.2034  1.4399
15912TIP3    H269228   4.812   0.101   4.362  0.3970 -0.9578  0.0088
15913TIP3   OH269229   4.322   0.333   3.535 -0.1047  0.2719 -0.5367
15913TIP3    H169230   4.379   0.346   3.611  0.5398 -0.2011 -0.9312
15913TIP3    H269231   4.236   0.366   3.563 -0.5134 -2.0556  1.2634
15914TIP3   OH269232   4.621   0.531   3.203  0.0714  0.0764 -0.4110
15914TIP3    H169233   4.581   0.617   3.189 -0.8876 -0.0255  1.4387
15914TIP3    H269234   4.714   0.544   3.182  0.4591  2.2773  2.0578
15915TIP3   OH269235   0.220   2.044  12.326 -0.0926 -0.1526 -0.1969
15915TIP3    H169236   0.292   2.011  12.378  1.6412  2.4848 -0.7564
15915TIP3    H269237   0.248   2.032  12.235 -0.1041  1.2925 -0.4192
15916TIP3   OH269238   5.043   3.773   0.018  0.4602  0.6618 -0.3667
15916TIP3    H169239   5.045   3.732   0.105 -0.9850 -0.5000 -0.8403
15916TIP3    H269240   5.134   3.792  -0.001  0.7377  1.9034  1.8366
15917TIP3   OH269241   6.004   3.514  14.436  0.5246  0.0283 -0.5803
15917TIP3    H169242   6.062   3.530  14.361 -1.0114 -2.0251 -2.3408
15917TIP3    H269243   5.945   3.590  14.436  0.7704  0.2321 -1.2550
15918TIP3   OH269244   1.606   4.444   3.326  0.1719 -0.2560 -0.1248
15918TIP3    H169245   1.616   4.535   3.353  1.9619 -0.1597 -0.9173
15918TIP3    H269246   1.692   4.421   3.289 -0.4513 -2.0529 -0.5541
15919TIP3   OH269247   0.727   6.123  16.676  0.3054  0.0998  0.3892
15919TIP3    H169248   0.704   6.205  16.631 -1.1657  0.9057  2.4534
15919TIP3    H269249   0.788   6.080  16.616 -0.7902  1.5093 -1.9251
15920TIP3   OH269250   2.153   5.492  10.830 -0.2658 -0.2904  0.4944
15920TIP3    H169251   2.188   5.420  10.777 -0.1875 -0.4869  0.8068
15920TIP3    H269252   2.112   5.551  10.767  0.6834 -0.0217  0.1164
15921TIP3   OH269253   3.445   2.235   0.525 -0.3494  0.6149  0.0547
15921TIP3    H169254   3.529   2.279   0.511  0.0632 -0.1247  0.1380
15921TIP3    H269255   3.379   2.303   0.508  0.2446  1.0056 -0.7658
15922TIP3   OH269256   2.236   5.730   0.612 -0.7321 -0.2579 -0.7723
15922TIP3    H169257   2.149   5.769   0.603 -1.0685 -1.1175 -1.4534
15922TIP3    H269258   2.283   5.757   0.533 -1.4037 -2.2256 -1.9222
15923TIP3   OH269259   6.254   2.566  16.642  0.1726  0.1891 -0.1530
15923TIP3    H169260   6.189   2.637  16.638  0.9662  0.9400 -0.0641
15923TIP3    H269261   6.208   2.489  16.611 -0.7680  0.7095 -0.0803
15924TIP3   OH269262   0.007   0.694  11.296  0.3502 -0.5686  0.5050
15924TIP3    H169263  -0.056   0.624  11.314 -0.2033 -0.5602 -1.2077
15924TIP3    H269264  -0.047   0.773  11.293  0.3435 -0.6113 -1.3518
15925TIP3   OH269265   6.241   1.272  17.073 -0.0673  0.4098 -0.3025
15925TIP3    H169266   6.235   1.254  16.979  0.6068  2.0138 -0.6870
15925TIP3    H269267   6.153   1.298  17.098 -0.0071  1.1060 -0.7700
15926TIP3   OH269268   1.107   0.899  11.792  0.5660  0.3341 -0.0938
15926TIP3    H169269   1.066   0.972  11.839 -1.1460 -0.8553  0.3605
15926TIP3    H269270   1.143   0.843  11.860 -1.4304 -1.1042 -0.1349
15927TIP3   OH269271   6.747   2.192   3.836 -0.1968  0.5861 -0.7595
15927TIP3    H169272   6.675   2.133   3.817 -1.1313  2.0759 -2.1382
15927TIP3    H269273   6.824   2.148   3.802 -0.4392 -0.9562  0.5813
15928TIP3   OH269274   2.168   5.173  12.040  0.0138 -0.1117  0.2610
15928TIP3    H169275   2.104   5.127  11.986 -1.1789  0.4630  1.1323
15928TIP3    H269276   2.152   5.266  12.021  0.5294  0.0434  0.5729
15929TIP3   OH269277   2.535   4.954   1.672  0.1146  0.1415 -0.4604
15929TIP3    H169278   2.447   4.989   1.681  0.3709  1.0663 -1.3141
15929TIP3    H269279   2.562   4.930   1.761 -1.0129 -0.2344 -0.2084
15930TIP3   OH269280   5.940   6.772   3.275 -0.0077  0.2514 -0.2615
15930TIP3    H169281   5.880   6.770   3.349  1.8329 -1.6689  1.3106
15930TIP3    H269282   6.010   6.833   3.302  0.7253 -0.5322 -0.3484
15931TIP3   OH269283   5.312   3.177   1.848  0.5588  0.1625  0.7380
15931TIP3    H169284   5.267   3.162   1.932 -0.5437 -0.6597  0.0259
15931TIP3    H269285   5.294   3.269   1.828  1.0996  0.4602  1.5408
15932TIP3   OH269286   5.159   3.694  16.581 -0.1275  0.2111  0.0590
15932TIP3    H169287   5.106   3.742  16.645 -0.3821 -0.5376  0.4189
15932TIP3    H269288   5.113   3.611  16.569  0.8437 -0.3629  0.2073
15933TIP3   OH269289   1.544   1.071  11.121 -0.3667  0.0879  1.0775
15933TIP3    H169290   1.530   1.026  11.204  0.6640 -1.3566  0.5079
15933TIP3    H269291   1.636   1.053  11.099 -0.2710  1.4607  0.2114
15934TIP3   OH269292   2.365   3.486  10.604 -0.5459  0.0500  0.0284
15934TIP3    H169293   2.401   3.575  10.607  0.5618 -0.3939  0.2930
15934TIP3    H269294   2.371   3.455  10.694 -1.7922  0.0238  0.1158
15935TIP3   OH269295   3.381   1.361  12.673  0.5316  0.1732 -0.3181
15935TIP3    H169296   3.309   1.299  12.659 -1.1065  1.9874 -0.2887
15935TIP3    H269297   3.350   1.418  12.743  2.5781  0.2255  0.5990
15936TIP3   OH269298   1.975   1.056  14.927 -0.6626 -0.1878 -0.2987
15936TIP3    H169299   1.991   0.983  14.987  0.0742 -0.4579 -0.8084
15936TIP3    H269300   1.956   1.014  14.843  0.2586  0.1975 -0.7177
15937TIP3   OH269301   1.775   3.454  13.536  0.0640  0.4420 -0.0970
15937TIP3    H169302   1.861   3.495  13.526 -0.2355  1.0323 -0.2726
15937TIP3    H269303   1.732   3.467  13.452 -0.5290  0.9263  0.2683
15938TIP3   OH269304   3.197   4.632  16.208  0.7851 -0.2193  0.2916
15938TIP3    H169305   3.217   4.723  16.231 -2.2727  0.7481 -0.4368
15938TIP3    H269306   3.252   4.613  16.132  1.5996  0.9309  0.5738
15939TIP3   OH269307   4.950   3.388   0.448 -0.1955  0.4656  0.3619
15939TIP3    H169308   4.930   3.319   0.511 -0.8918  0.9452  0.6637
15939TIP3    H269309   4.942   3.345   0.363  0.7817 -0.1910  0.5814
15940TIP3   OH269310   3.791   3.656   3.943 -0.4554 -0.4474  0.2555
15940TIP3    H169311   3.709   3.706   3.949  0.2776  0.6125  2.0816
15940TIP3    H269312   3.846   3.707   3.884 -0.2622  0.1016  0.9051
15941TIP3   OH269313   6.637   4.601   5.458 -0.2728 -0.0151 -0.5319
15941TIP3    H169314   6.632   4.696   5.461 -1.3808 -0.0256 -1.0830
15941TIP3    H269315   6.546   4.572   5.468  0.0269 -1.0031 -0.5182
15942TIP3   OH269316   3.739   0.935  12.069 -0.5947 -0.4112  0.8043
15942TIP3    H169317   3.696   0.868  12.017  0.4996 -0.7354  0.2884
15942TIP3    H269318   3.810   0.967  12.013 -0.5570  0.5516  1.3833
15943TIP3   OH269319   1.521   6.626   4.846  0.4857  0.0062 -0.3139
15943TIP3    H169320   1.538   6.648   4.938  0.4458 -0.5358 -0.1685
15943TIP3    H269321   1.494   6.708   4.805 -0.8641 -0.0054  0.4837
15944TIP3   OH269322   2.724   6.494  12.008  0.6192  0.1317 -0.4472
15944TIP3    H169323   2.758   6.583  11.997  0.6308  0.0531 -1.0667
15944TIP3    H269324   2.683   6.473  11.924 -0.1612 -0.1196 -0.0172
15945TIP3   OH269325   0.113   2.247  12.515  0.1504 -0.0020 -0.0308
15945TIP3    H169326   0.207   2.253  12.503  0.4534 -1.3495  1.3224
15945TIP3    H269327   0.101   2.177  12.580 -1.7260  0.7323  0.4992
15946TIP3   OH269328   4.966   0.506  13.224  0.0449 -0.0971  0.1314
15946TIP3    H169329   5.022   0.547  13.289  0.6561 -0.6553 -0.0336
15946TIP3    H269330   4.951   0.574  13.158 -0.4222  0.4077  0.7446
15947TIP3   OH269331   5.045   0.099   1.121  0.0068 -0.5432  0.5483
15947TIP3    H169332   5.114   0.053   1.073  0.1919  0.7778 -0.5063
15947TIP3    H269333   4.964   0.069   1.082  0.1565  0.5624 -0.6997
15948TIP3   OH269334   1.329   1.994  15.407 -0.4785 -0.1322  0.7313
15948TIP3    H169335   1.271   1.958  15.475 -0.4523 -0.7452  0.4365
15948TIP3    H269336   1.411   1.946  15.419 -0.3607  0.0115  0.4920
15949TIP3   OH269337   4.365   1.958  16.136 -0.6884  0.7352 -0.1766
15949TIP3    H169338   4.374   1.888  16.070 -2.7499  1.4711 -1.3376
15949TIP3    H269339   4.318   2.027  16.090 -1.5088  1.6047  1.8761
15950TIP3   OH269340   6.202   6.581   3.274  0.2532 -0.1562 -0.6471
15950TIP3    H169341   6.220   6.489   3.256 -0.5301 -0.4804  0.1510
15950TIP3    H269342   6.113   6.582   3.310  0.6422  0.7897  0.3489
15951TIP3   OH269343   5.823   0.813  11.902  0.2495 -0.1580  0.0132
15951TIP3    H169344   5.785   0.777  11.822 -0.4503  2.3608 -0.8519
15951TIP3    H269345   5.881   0.883  11.872  1.5876 -0.5020  1.6304
15952TIP3   OH269346   6.127   4.527  13.247 -0.7792  0.2408  0.7377
15952TIP3    H169347   6.213   4.532  13.288 -0.5570  1.7470  0.1209
15952TIP3    H269348   6.131   4.448  13.193  0.4738  0.6663  0.1703
15953TIP3   OH269349   1.654   1.243  12.685 -0.7435  0.1661 -0.3346
15953TIP3    H169350   1.596   1.292  12.743 -1.2261  0.1988 -0.8298
15953TIP3    H269351   1.609   1.161  12.669 -1.0069  0.4742 -1.2818
15954TIP3   OH269352   1.785   3.788  15.604  0.1805  0.2045  0.5599
15954TIP3    H169353   1.869   3.828  15.581 -0.3671  1.9260  1.3402
15954TIP3    H269354   1.774   3.717  15.541  1.5433  0.8687 -0.4925
15955TIP3   OH269355   5.035   5.254   0.273  0.2267 -0.2132  0.0196
15955TIP3    H169356   4.983   5.246   0.353  0.5593  0.0113  0.2574
15955TIP3    H269357   4.993   5.325   0.225  0.8733  0.6165  0.6473
15956TIP3   OH269358   0.063   1.316  11.939 -0.0207  0.2289  0.0560
15956TIP3    H169359  -0.006   1.256  11.908  1.1085 -0.8233 -0.5101
15956TIP3    H269360   0.115   1.263  11.999  1.3198  0.4701 -0.8625
15957TIP3   OH269361   4.443   4.618  14.909 -0.5996  0.3692 -0.0694
15957TIP3    H169362   4.349   4.601  14.917 -0.8113  0.9197 -1.1437
15957TIP3    H269363   4.475   4.549  14.851  0.3384 -1.8185  2.8216
15958TIP3   OH269364   4.153   2.355   2.437  0.0383 -0.3814  0.4319
15958TIP3    H169365   4.089   2.306   2.490 -0.3713 -0.2980  0.0213
15958TIP3    H269366   4.106   2.375   2.356  0.6031 -0.3526  0.1089
15959TIP3   OH269367   2.285   0.240  16.379 -0.7931  0.1946 -0.0591
15959TIP3    H169368   2.308   0.189  16.456  2.5049 -0.6236 -1.4110
15959TIP3    H269369   2.237   0.179  16.323 -0.3790 -0.2068  0.0183
15960TIP3   OH269370   0.223   1.592   5.220  0.0937  0.3652  0.2179
15960TIP3    H169371   0.214   1.633   5.134 -0.5785  1.4367  0.7768
15960TIP3    H269372   0.304   1.628   5.255  1.8172 -2.0750 -0.9827
15961TIP3   OH269373   5.765   0.749   6.136 -0.1704  0.1872  0.8783
15961TIP3    H169374   5.806   0.835   6.128  0.2399 -0.1159 -0.4684
15961TIP3    H269375   5.738   0.744   6.228 -0.0329  1.6698  1.0241
15962TIP3   OH269376   1.249   6.353  14.026  0.2542 -0.0053 -0.8246
15962TIP3    H169377   1.167   6.397  14.004 -1.0468 -1.3774  1.0319
15962TIP3    H269378   1.232   6.261  14.010 -0.0238 -0.8224  3.3043
15963TIP3   OH269379   3.761   2.012   4.252  0.1297 -0.6594  1.1198
15963TIP3    H169380   3.833   1.963   4.291 -1.3726 -1.1082  3.4929
15963TIP3    H269381   3.684   1.956   4.265 -0.9608  0.5597  0.1997
15964TIP3   OH269382   5.351   1.176   5.985 -0.2357 -0.0384 -0.0230
15964TIP3    H169383   5.381   1.265   6.003 -0.4286 -0.4602  2.8409
15964TIP3    H269384   5.384   1.124   6.058 -0.2050 -2.3496 -1.5501
15965TIP3   OH269385   4.335   2.416   3.877 -0.5816 -0.2419  0.2304
15965TIP3    H169386   4.387   2.357   3.931  2.8043  0.6090 -1.7612
15965TIP3    H269387   4.269   2.451   3.936 -0.4577 -3.2075  2.3811
15966TIP3   OH269388   4.126   0.250   4.806 -0.0202 -0.1944  0.1593
15966TIP3    H169389   4.035   0.253   4.835  0.1509 -1.5713  0.9346
15966TIP3    H269390   4.137   0.161   4.771  1.0461 -0.0711  0.1522
15967TIP3   OH269391   1.990   1.666   2.910 -0.3087 -0.9940  0.1213
15967TIP3    H169392   1.980   1.692   2.819  0.9213 -1.2252 -0.1046
15967TIP3    H269393   1.909   1.620   2.932 -1.1190  0.1055 -0.4756
15968TIP3   OH269394   5.076   5.422   1.044 -0.3505  0.2538 -0.0658
15968TIP3    H169395   5.041   5.364   1.112 -0.4958  0.3771 -0.0336
15968TIP3    H269396   5.163   5.387   1.025 -0.0181  0.6385  0.6973
15969TIP3   OH269397   4.382   1.510  11.679 -0.0999  0.1788  0.1214
15969TIP3    H169398   4.369   1.469  11.593  1.2597 -0.2031  0.0753
15969TIP3    H269399   4.409   1.438  11.736  0.2060  0.6376  0.5612
15970TIP3   OH269400   4.106   6.053   3.973  0.2947 -0.7097  0.0895
15970TIP3    H169401   4.190   6.092   3.998  0.7881 -2.0029  0.5537
15970TIP3    H269402   4.126   6.004   3.893  0.5442 -2.7771  1.3424
15971TIP3   OH269403   5.672   3.310  11.357 -0.0025 -0.0351  1.4104
15971TIP3    H169404   5.664   3.222  11.320  0.6640  0.6435 -0.4682
15971TIP3    H269405   5.759   3.339  11.330 -0.2768  1.2574  1.8596
15972TIP3   OH269406   1.479   5.022  14.768  0.7637 -0.1652 -0.0419
15972TIP3    H169407   1.437   5.084  14.828  1.4693  0.4210 -0.1427
15972TIP3    H269408   1.414   5.006  14.700  1.0896  1.6251 -0.8216
15973TIP3   OH269409   5.493   6.540  12.664  0.5112  0.1098  0.4450
15973TIP3    H169410   5.481   6.578  12.577  0.0546  1.3699  1.0298
15973TIP3    H269411   5.408   6.553  12.708  1.0470  0.4647  1.4202
15974TIP3   OH269412   0.547   2.144   5.970  0.2101  0.3910 -0.1246
15974TIP3    H169413   0.509   2.058   5.988  1.1532 -0.4317 -1.8524
15974TIP3    H269414   0.598   2.164   6.049 -1.2598  0.1104  0.9359
15975TIP3   OH269415   4.321   1.679   1.410  0.0564 -0.3175 -0.6895
15975TIP3    H169416   4.392   1.631   1.367 -0.9175 -1.5958 -0.9135
15975TIP3    H269417   4.270   1.717   1.338 -0.6695 -1.1463 -0.6297
15976TIP3   OH269418   4.646   4.255   2.612  0.8490 -0.7630 -0.3998
15976TIP3    H169419   4.736   4.275   2.636  1.4440 -1.1452 -2.1589
15976TIP3    H269420   4.646   4.254   2.516 -1.0084 -0.8673 -0.4420
15977TIP3   OH269421   4.931   5.979  14.611  0.2350 -0.2747  0.6880
15977TIP3    H169422   4.839   5.981  14.586  0.3613  0.2537  0.2448
15977TIP3    H269423   4.943   5.894  14.652 -0.5005 -0.2711  0.9346
15978TIP3   OH269424   4.714   1.769   2.403 -0.1121 -0.2073  0.0624
15978TIP3    H169425   4.764   1.776   2.484 -0.0191  0.4727 -0.0506
15978TIP3    H269426   4.747   1.689   2.362  0.5977  0.0113  0.1911
15979TIP3   OH269427   1.747   4.642   5.567 -0.0858  0.0562 -0.0087
15979TIP3    H169428   1.809   4.578   5.603  0.5894  0.8211  0.2016
15979TIP3    H269429   1.771   4.649   5.475 -0.5108 -0.3827 -0.1606
15980TIP3   OH269430   1.772   4.653  13.290 -0.7565  0.2118 -0.0126
15980TIP3    H169431   1.794   4.619  13.376  0.0978 -1.6152 -0.8980
15980TIP3    H269432   1.803   4.744  13.291  0.7133 -0.2696  1.0775
15981TIP3   OH269433   5.605   0.055  16.511 -0.0686 -0.1773  0.3946
15981TIP3    H169434   5.576   0.047  16.420 -2.0254 -0.4847  0.9920
15981TIP3    H269435   5.589   0.147  16.533  1.0529  0.0669  0.2461
15982TIP3   OH269436   3.228   0.583  14.184  0.0779  0.6447  0.0867
15982TIP3    H169437   3.216   0.490  14.165 -0.5242  0.7412 -0.0264
15982TIP3    H269438   3.202   0.628  14.104 -1.4610  0.9982  0.7460
15983TIP3   OH269439   4.862   0.835  11.892 -0.4123  0.0678  0.0486
15983TIP3    H169440   4.827   0.818  11.805  0.2059  0.1120 -0.2109
15983TIP3    H269441   4.891   0.750  11.924  3.2141  0.5640 -1.4790
15984TIP3   OH269442   5.772   3.282   3.933  0.5449 -0.1459  0.7406
15984TIP3    H169443   5.821   3.343   3.878 -0.0953 -0.7030 -0.4918
15984TIP3    H269444   5.685   3.321   3.939  1.0279  0.7706  2.8050
15985TIP3   OH269445   4.186   0.967   4.423 -0.2799 -0.3909  0.2136
15985TIP3    H169446   4.130   1.037   4.458  2.6472  1.6409  1.1797
15985TIP3    H269447   4.213   0.918   4.501  0.3288 -0.4968 -0.0608
15986TIP3   OH269448   0.352   0.761  12.618  0.6712  0.4575 -0.1345
15986TIP3    H169449   0.303   0.841  12.598  1.1876  0.7013 -0.4565
15986TIP3    H269450   0.292   0.690  12.597 -0.3155  0.7493  1.5087
15987TIP3   OH269451   2.856   1.578  11.689  0.2701 -0.1315 -0.1879
15987TIP3    H169452   2.941   1.539  11.705  0.7725  0.8593 -0.3670
15987TIP3    H269453   2.810   1.572  11.773  0.8412  0.1183  0.1443
15988TIP3   OH269454   4.417   1.201   4.355  0.1676 -0.2734  0.2265
15988TIP3    H169455   4.443   1.179   4.444 -1.4391 -0.6210  0.6507
15988TIP3    H269456   4.436   1.122   4.304 -1.3216 -1.0545  0.8166
15989TIP3   OH269457   0.743   3.253  11.620  0.5777  0.1321 -0.3122
15989TIP3    H169458   0.703   3.213  11.542 -0.6111  0.2886  0.1893
15989TIP3    H269459   0.811   3.311  11.585  0.7744 -0.5924 -1.1702
15990TIP3   OH269460   0.027   1.146  16.185 -0.1990  0.1097  0.0311
15990TIP3    H169461   0.019   1.225  16.133 -0.3148 -0.0332 -0.1703
15990TIP3    H269462   0.016   1.175  16.275  1.8435  0.6736  0.1612
15991TIP3   OH269463   3.283   6.694   2.608  0.5848  0.3430  0.1745
15991TIP3    H169464   3.369   6.693   2.649  1.1520 -1.3154 -0.9584
15991TIP3    H269465   3.264   6.603   2.589 -0.7311  0.8245 -1.0161
15992TIP3   OH269466   4.450   0.385  16.036  1.0441 -0.5942 -0.2662
15992TIP3    H169467   4.368   0.372  16.083 -0.9179 -1.5731 -3.6055
15992TIP3    H269468   4.492   0.459  16.080 -1.4256 -0.3120  1.8028
15993TIP3   OH269469   1.825   6.423  11.742  0.4770  0.3590  0.2586
15993TIP3    H169470   1.890   6.440  11.674  1.5930 -1.6445  0.7416
15993TIP3    H269471   1.873   6.435  11.824 -0.5886  1.7626  0.7192
15994TIP3   OH269472   4.295   2.545  11.296 -0.2742  0.3708 -0.0782
15994TIP3    H169473   4.275   2.558  11.389  0.1097  0.2824  0.0156
15994TIP3    H269474   4.390   2.558  11.290 -0.3833  1.0031 -0.5652
15995TIP3   OH269475   1.695   4.462  14.224  0.3945  0.1946 -0.5539
15995TIP3    H169476   1.745   4.540  14.200  1.0471  0.2109  0.7634
15995TIP3    H269477   1.759   4.404  14.265 -0.3601 -0.4597 -0.2790
15996TIP3   OH269478   4.724   6.665  14.685  0.2182 -0.0630 -0.0148
15996TIP3    H169479   4.759   6.667  14.596 -0.3653 -3.3839 -0.4462
15996TIP3    H269480   4.717   6.572  14.706 -2.0338  0.5519  2.5641
15997TIP3   OH269481   5.969   6.138   2.696  0.3846 -0.6071  0.1746
15997TIP3    H169482   5.931   6.147   2.783  0.7036  0.4368  0.2324
15997TIP3    H269483   6.044   6.080   2.708  0.2893 -0.6498  0.5589
15998TIP3   OH269484   6.598   5.624   2.349  0.3049 -0.0462 -0.2258
15998TIP3    H169485   6.652   5.646   2.425  2.8890 -0.7960 -1.7066
15998TIP3    H269486   6.590   5.529   2.352 -2.7279  0.1330  0.9909
15999TIP3   OH269487   4.145   2.287   5.189  0.4298 -0.1805 -0.0678
15999TIP3    H169488   4.061   2.255   5.155 -0.6397  2.1382  0.1611
15999TIP3    H269489   4.201   2.294   5.112 -0.0736 -0.3722 -0.4617
16000TIP3   OH269490   5.491   4.211   2.924  0.0940  0.6647  0.3148
16000TIP3    H169491   5.531   4.196   2.838 -1.8264 -1.8870 -0.2458
16000TIP3    H269492   5.535   4.148   2.981 -0.1973  0.7745  0.6566
16001TIP3   OH269493   0.856   5.737   3.132 -0.0367  0.2751 -0.7057
16001TIP3    H169494   0.931   5.794   3.148  0.0872  0.4893 -1.9686
16001TIP3    H269495   0.889   5.649   3.146  0.2825  0.4019 -0.6540
16002TIP3   OH269496   1.659   4.566   0.798  0.4381  0.4174  0.3141
16002TIP3    H169497   1.739   4.617   0.806  0.8151 -0.1521  0.2273
16002TIP3    H269498   1.599   4.604   0.862  0.0154  2.2398 -1.0663
16003TIP3   OH269499   2.967   3.237   0.857  0.8185  1.0372 -0.1264
16003TIP3    H169500   2.985   3.199   0.943  3.1875  1.7294 -0.2380
16003TIP3    H269501   3.036   3.302   0.844  2.2508 -0.8671 -3.6218
16004TIP3   OH269502   6.476   3.682   3.890 -1.1829  0.0648 -0.1025
16004TIP3    H169503   6.474   3.591   3.922  0.8760 -0.4295 -1.2463
16004TIP3    H269504   6.392   3.693   3.845 -2.8233 -0.2064  2.6229
16005TIP3   OH269505   0.239   2.289  15.784  0.4216 -0.7788 -0.0375
16005TIP3    H169506   0.312   2.309  15.725  0.5719 -0.0094  0.3886
16005TIP3    H269507   0.237   2.193  15.788  0.3434 -0.8440 -1.3501
16006TIP3   OH269508   5.742   6.288  10.565  0.4200  0.0282  0.3804
16006TIP3    H169509   5.816   6.331  10.607  0.7929 -0.0753 -0.1596
16006TIP3    H269510   5.768   6.196  10.558  0.5635  0.1256 -0.4890
16007TIP3   OH269511   4.400   4.051   4.842 -0.3650 -0.1717 -0.0129
16007TIP3    H169512   4.494   4.043   4.855 -0.2820  0.6845 -0.0412
16007TIP3    H269513   4.361   4.018   4.924  0.0131  1.0116  0.6630
16008TIP3   OH269514   3.238   5.194  15.456 -0.8097 -0.1545 -0.0846
16008TIP3    H169515   3.209   5.104  15.440 -0.3727 -0.3226  0.0559
16008TIP3    H269516   3.246   5.201  15.551 -3.0608  0.7376  0.1020
16009TIP3   OH269517   1.908   1.787   0.888 -0.0591  0.4828 -0.1644
16009TIP3    H169518   1.922   1.770   0.794  1.0007 -0.2082  0.1006
16009TIP3    H269519   1.988   1.833   0.915 -0.1480  0.2503  0.4998
16010TIP3   OH269520   5.418   4.581  12.474 -0.4282 -0.1939 -0.4177
16010TIP3    H169521   5.490   4.550  12.529 -0.0956  1.4885  0.1605
16010TIP3    H269522   5.417   4.521  12.399 -0.7831 -2.4385  1.2876
16011TIP3   OH269523   1.078   5.158   0.796 -0.2329  0.4150 -0.3837
16011TIP3    H169524   1.110   5.135   0.883 -0.7059  0.6976 -0.1304
16011TIP3    H269525   1.077   5.076   0.748 -0.3828  0.1859  0.0108
16012TIP3   OH269526   6.654   6.607   1.509  0.2509  0.3383  0.1147
16012TIP3    H169527   6.572   6.600   1.557  0.6803  0.2137  0.8339
16012TIP3    H269528   6.703   6.528   1.530  1.1834  1.0842  0.8903
16013TIP3   OH269529   0.576   4.490   1.295  0.8481  0.3632  0.3615
16013TIP3    H169530   0.649   4.538   1.333 -0.1226  2.0578  0.2020
16013TIP3    H269531   0.529   4.556   1.242 -0.4089 -0.8271 -0.0681
16014TIP3   OH269532   3.951   3.058   4.867 -0.2879 -0.7256  0.0189
16014TIP3    H169533   3.858   3.057   4.892 -0.4996 -0.5404 -0.7465
16014TIP3    H269534   3.965   3.145   4.830  1.1140  0.7242  3.4502
16015TIP3   OH269535   4.361   6.334  16.900  0.1798 -0.5685  0.0259
16015TIP3    H169536   4.358   6.243  16.870 -0.1414 -0.5461 -0.0195
16015TIP3    H269537   4.354   6.327  16.996 -1.8698 -0.5202 -0.0761
16016TIP3   OH269538   0.190   2.444   5.901  0.3057  0.3885 -0.2111
16016TIP3    H169539   0.224   2.479   5.983 -0.2182  0.8776 -0.1977
16016TIP3    H269540   0.162   2.355   5.923 -0.2600  0.6785  0.2504
16017TIP3   OH269541   0.065   3.370  15.630  0.1142  0.2030 -0.2602
16017TIP3    H169542   0.148   3.413  15.610  0.2389  0.6493  1.1790
16017TIP3    H269543   0.091   3.289  15.675 -0.2150  0.0342 -0.3740
16018TIP3   OH269544   4.035   0.129  17.066 -0.2462  0.0501 -0.0105
16018TIP3    H169545   3.998   0.216  17.051 -0.3183  0.0548  0.1870
16018TIP3    H269546   4.085   0.138  17.147 -1.5854 -0.4941  0.9006
16019TIP3   OH269547   3.542   3.966   0.881 -0.1025 -0.4111  0.4218
16019TIP3    H169548   3.630   3.977   0.846  0.2465  1.0335  1.6658
16019TIP3    H269549   3.488   3.943   0.805  1.2710 -1.0227 -0.4015
16020TIP3   OH269550   3.112   4.025  11.150 -0.3705 -0.0904  0.0875
16020TIP3    H169551   3.089   4.044  11.060 -1.7708  0.2280  0.4962
16020TIP3    H269552   3.029   4.005  11.193  0.1305  0.8753  1.5710
16021TIP3   OH269553   1.317   0.621   3.072 -0.5604 -0.2234 -0.0849
16021TIP3    H169554   1.254   0.689   3.051 -0.3846 -0.0251  0.0260
16021TIP3    H269555   1.389   0.667   3.116 -0.1023 -0.3669 -0.6731
16022TIP3   OH269556   3.209   5.186   4.639 -0.0664  0.2737 -0.5621
16022TIP3    H169557   3.268   5.241   4.587  0.1046  0.8448  0.2109
16022TIP3    H269558   3.176   5.121   4.577  1.1394  0.1275 -1.0828
16023TIP3   OH269559   6.672   6.222  15.263 -0.9849 -0.3350  0.4411
16023TIP3    H169560   6.700   6.186  15.347 -0.1174 -0.2267  0.2076
16023TIP3    H269561   6.730   6.181  15.198 -0.9468  0.3613  0.0129
16024TIP3   OH269562   0.305   0.185  13.932 -0.9559 -0.2026 -0.2296
16024TIP3    H169563   0.336   0.165  13.844  1.3675  1.5003  0.1137
16024TIP3    H269564   0.337   0.113  13.986  1.0183  0.6391 -0.1944
16025TIP3   OH269565   6.563   0.850   0.923  0.0081 -0.1367 -0.2288
16025TIP3    H169566   6.640   0.901   0.897 -0.7455  1.0345 -0.2320
16025TIP3    H269567   6.582   0.761   0.892  0.2034  0.6925 -2.7019
16026TIP3   OH269568   6.692   4.899   3.249  0.5826 -0.1692 -0.6977
16026TIP3    H169569   6.688   4.966   3.317  0.0763 -0.7780 -0.1145
16026TIP3    H269570   6.768   4.845   3.274 -0.6769 -1.4855  0.4468
16027TIP3   OH269571   3.618   1.917  14.715  0.0640 -0.1755 -0.7120
16027TIP3    H169572   3.705   1.897  14.679  0.7850  0.9176  0.3264
16027TIP3    H269573   3.621   1.882  14.805 -1.1894 -1.6017 -1.1802
16028TIP3   OH269574   5.272   1.933  11.810 -0.5922 -0.4026  0.2254
16028TIP3    H169575   5.339   1.965  11.870  0.0040 -0.0754 -0.5904
16028TIP3    H269576   5.316   1.864  11.761 -0.4402  0.6499 -1.1786
16029TIP3   OH269577   5.215   5.105   2.549 -0.2227 -0.0074  0.2849
16029TIP3    H169578   5.138   5.152   2.580 -0.1518 -0.9272  1.9535
16029TIP3    H269579   5.181   5.026   2.507 -0.3063  1.1275 -1.9788
16030TIP3   OH269580   4.172   6.588   1.607 -0.2283 -0.0338 -0.0687
16030TIP3    H169581   4.138   6.567   1.694 -1.2338  1.9916  0.0695
16030TIP3    H269582   4.186   6.682   1.608 -0.7634  0.1253 -2.2803
16031TIP3   OH269583   1.890   6.588  12.401  0.0333 -0.2261 -0.0955
16031TIP3    H169584   1.895   6.521  12.333 -2.2509 -0.1255 -0.4381
16031TIP3    H269585   1.802   6.624  12.393  0.2773  0.9602  1.8420
16032TIP3   OH269586   4.782   3.797  15.526  0.5389 -0.1617  0.1895
16032TIP3    H169587   4.698   3.828  15.561  0.2847  1.0501 -1.3741
16032TIP3    H269588   4.773   3.702  15.523 -1.8493  0.0199 -2.2770
16033TIP3   OH269589   3.334   0.228   5.591 -0.9901 -0.0640 -0.6123
16033TIP3    H169590   3.344   0.173   5.669 -0.8988  0.7146 -0.0662
16033TIP3    H269591   3.243   0.214   5.563 -0.8327 -0.8436 -0.7534
16034TIP3   OH269592   6.762   2.772  11.386 -0.5437  0.1570 -0.9508
16034TIP3    H169593   6.722   2.852  11.352 -1.8097 -0.0964 -0.0935
16034TIP3    H269594   6.825   2.802  11.451 -0.2577  0.5012 -1.3858
16035TIP3   OH269595   4.632   6.717   0.220  0.1545 -0.5246 -0.1770
16035TIP3    H169596   4.675   6.677   0.144  0.3684 -1.8776  0.6139
16035TIP3    H269597   4.703   6.736   0.281 -0.0511  0.1977 -0.1591
16036TIP3   OH269598   4.366   6.138  15.998 -0.7494 -0.1640  0.5620
16036TIP3    H169599   4.349   6.123  16.091  2.2829  0.2085  1.2819
16036TIP3    H269600   4.398   6.228  15.993  1.4013 -0.9106 -0.4119
16037TIP3   OH269601   3.341   0.851   5.756  0.4324  0.5630 -0.3537
16037TIP3    H169602   3.400   0.927   5.748  1.0695  0.0291 -0.8557
16037TIP3    H269603   3.253   0.889   5.753  0.7384  1.3931  0.5234
16038TIP3   OH269604   3.714   5.709   5.038  0.1610  0.5059 -0.0387
16038TIP3    H169605   3.717   5.615   5.024 -1.5014  0.5215 -0.7135
16038TIP3    H269606   3.650   5.722   5.108  2.0164  1.0405  1.6939
16039TIP3   OH269607   0.267   5.948   3.590  0.1715 -0.7206 -0.6070
16039TIP3    H169608   0.358   5.927   3.611  0.6918  2.0361  0.3063
16039TIP3    H269609   0.215   5.903   3.657  0.9153 -1.5517 -0.5764
16040TIP3   OH269610   1.897   6.798   5.018 -0.3816 -0.2639 -0.1330
16040TIP3    H169611   1.948   6.721   4.991 -0.5617 -0.1757 -0.7484
16040TIP3    H269612   1.916   6.808   5.111  0.5335 -0.3841 -0.2905
16041TIP3   OH269613   3.675   4.962   6.317  0.1673  0.3854  0.1467
16041TIP3    H169614   3.767   4.985   6.328  0.1735 -0.4757  2.3213
16041TIP3    H269615   3.633   4.993   6.397 -0.6813 -2.6518  1.0202
16042TIP3   OH269616   2.867   1.371   3.227 -0.1650 -0.4145  0.0989
16042TIP3    H169617   2.911   1.454   3.247 -0.8160 -0.0686  0.1151
16042TIP3    H269618   2.932   1.304   3.249  0.8189  0.1192 -1.0580
16043TIP3   OH269619   1.844   0.019  17.164 -0.4265 -0.6107  0.0269
16043TIP3    H169620   1.857  -0.075  17.152  1.5156 -0.2825 -0.7636
16043TIP3    H269621   1.804   0.048  17.082  0.2070 -0.5461 -0.2632
16044TIP3   OH269622   6.572   2.581   1.490  0.5927 -0.3035  0.0916
16044TIP3    H169623   6.523   2.579   1.572 -1.8882  2.0288 -1.1939
16044TIP3    H269624   6.562   2.670   1.457  1.6777 -1.0792 -2.6583
16045TIP3   OH269625   4.818   1.080  13.349  0.0324  0.1678 -0.3569
16045TIP3    H169626   4.912   1.091  13.363  0.0911 -1.1174  0.4157
16045TIP3    H269627   4.811   1.009  13.285 -0.4038 -0.1378  0.0158
16046TIP3   OH269628   2.653   4.878   4.225  0.7190  0.5227  0.0312
16046TIP3    H169629   2.693   4.838   4.148  0.6694  0.6516 -0.0614
16046TIP3    H269630   2.573   4.827   4.240  0.7408  0.4828  0.0122
16047TIP3   OH269631   6.504   5.493  12.481  0.5616 -0.4112 -0.4813
16047TIP3    H169632   6.542   5.405  12.475  0.6910 -0.5164  1.3500
16047TIP3    H269633   6.493   5.521  12.390  1.6068 -1.8511 -1.0812
16048TIP3   OH269634   4.459   1.251  14.634 -0.6026 -0.2105  0.3745
16048TIP3    H169635   4.516   1.250  14.558 -1.1548 -1.1315 -0.0583
16048TIP3    H269636   4.371   1.264  14.598 -1.0564 -2.1452  0.6712
16049TIP3   OH269637   5.048   3.826   3.981  0.5932 -0.7404  0.2449
16049TIP3    H169638   4.991   3.903   3.975  1.7744  0.1645  0.3953
16049TIP3    H269639   5.090   3.821   3.895 -0.5180 -2.0740 -0.2523
16050TIP3   OH269640   1.012   3.110  16.571  0.2099  0.3727 -0.1633
16050TIP3    H169641   0.936   3.153  16.610  0.8702  2.0857 -0.6865
16050TIP3    H269642   1.061   3.075  16.646 -0.6196  0.0290  0.2332
16051TIP3   OH269643   2.279   0.479   5.600  0.5934 -0.0230  0.7813
16051TIP3    H169644   2.363   0.443   5.573 -0.1585 -1.1959 -0.0865
16051TIP3    H269645   2.214   0.420   5.562 -0.6669  1.5636  0.3656
16052TIP3   OH269646   0.805   6.443   3.990  0.0927  0.1227  0.0320
16052TIP3    H169647   0.743   6.411   4.056  0.7992  0.6636  0.9819
16052TIP3    H269648   0.759   6.514   3.947 -0.0930  0.2760  0.4717
16053TIP3   OH269649   2.311   0.828  12.996  0.4496  0.1108  0.2700
16053TIP3    H169650   2.255   0.903  12.979 -0.0902 -0.9745 -3.5962
16053TIP3    H269651   2.253   0.764  13.038 -0.1929  0.4072 -0.1523
16054TIP3   OH269652   2.077   4.345  15.192  0.0886  0.4809  0.0968
16054TIP3    H169653   2.017   4.419  15.185 -0.8440 -0.0609  1.8877
16054TIP3    H269654   2.077   4.321  15.285 -1.0652 -2.8738 -0.6135
16055TIP3   OH269655   0.585   0.352   0.419 -0.2760  0.0360  0.4981
16055TIP3    H169656   0.586   0.446   0.401  0.7488  0.6728  3.3677
16055TIP3    H269657   0.672   0.322   0.392 -0.3058  0.0599  0.3716
16056TIP3   OH269658   4.421   6.140   1.284  0.6007  0.4869 -0.7547
16056TIP3    H169659   4.503   6.145   1.235  0.5933  2.3352 -0.6573
16056TIP3    H269660   4.353   6.133   1.217  0.6274  2.4786 -1.0623
16057TIP3   OH269661   2.372   2.109  14.175  0.2514  0.2186  0.6621
16057TIP3    H169662   2.279   2.092  14.157  0.6984 -1.7429  0.0758
16057TIP3    H269663   2.370   2.170  14.249 -1.5020 -0.1682  0.9923
16058TIP3   OH269664   3.343   0.628   5.086 -0.3090 -0.2663  0.2774
16058TIP3    H169665   3.290   0.689   5.138 -1.5502 -0.3015 -0.8738
16058TIP3    H269666   3.331   0.543   5.129 -1.4425 -0.3203 -0.0923
16059TIP3   OH269667   0.203   3.355   1.572  0.3385 -0.0105 -0.8524
16059TIP3    H169668   0.155   3.380   1.651  0.6212 -2.8063  0.3108
16059TIP3    H269669   0.250   3.434   1.547 -0.1144  1.0947  1.5162
16060TIP3   OH269670   6.778   4.615   6.172  0.3141 -0.2107 -0.2468
16060TIP3    H169671   6.800   4.531   6.211  0.1246  0.8929  2.4789
16060TIP3    H269672   6.835   4.622   6.095  2.4228 -1.5906  1.0907
16061TIP3   OH269673   1.435   6.081   2.592  0.3681 -0.4234 -1.0776
16061TIP3    H169674   1.438   6.109   2.501  3.2811  0.8820 -0.6817
16061TIP3    H269675   1.412   5.988   2.588 -0.3031 -0.2138 -3.0701
16062TIP3   OH269676   2.296   3.716   0.979 -0.4082  0.0077  0.8711
16062TIP3    H169677   2.293   3.720   0.883  1.4571  1.4060  0.8168
16062TIP3    H269678   2.346   3.637   0.998 -0.1286  0.1340  0.6648
16063TIP3   OH269679   4.856   6.327  12.267  0.2067  0.0135 -0.1755
16063TIP3    H169680   4.938   6.339  12.219 -0.3697  3.2252 -0.5879
16063TIP3    H269681   4.879   6.346  12.358  0.0952  0.0871 -0.1627
16064TIP3   OH269682   2.948   2.986  13.673 -0.1635  0.2080  0.2073
16064TIP3    H169683   2.854   2.999  13.659 -0.2913  0.3065  1.1029
16064TIP3    H269684   2.988   3.010  13.590 -0.9031  0.5531 -0.0556
16065TIP3   OH269685   3.913   3.421   3.916 -0.0471 -0.3301 -0.4310
16065TIP3    H169686   3.872   3.508   3.912 -0.8320 -0.6721 -0.0032
16065TIP3    H269687   3.860   3.373   3.979  1.4948 -0.5495  0.7430
16066TIP3   OH269688   5.712   3.100   1.528 -0.2881 -0.2996  0.1404
16066TIP3    H169689   5.781   3.034   1.531 -0.7766 -0.8506 -0.4845
16066TIP3    H269690   5.693   3.119   1.620  1.2569  0.4747  0.3317
16067TIP3   OH269691   1.034   0.172   1.005  0.0104 -0.3294  0.1536
16067TIP3    H169692   1.099   0.219   1.058 -0.9175 -0.5032  1.5126
16067TIP3    H269693   1.026   0.086   1.047 -0.5486 -0.5802 -0.4471
16068TIP3   OH269694   0.129   2.514  16.538 -0.5514 -0.8024  0.3862
16068TIP3    H169695   0.222   2.537  16.548 -0.6378  1.0839 -2.3590
16068TIP3    H269696   0.082   2.587  16.578 -0.8981 -1.2995  0.9099
16069TIP3   OH269697   4.526   0.423  11.799  0.2046  0.5005  0.2084
16069TIP3    H169698   4.511   0.479  11.723  0.4415  1.1524  0.6289
16069TIP3    H269699   4.617   0.394  11.790 -0.4191 -1.2311 -0.9076
16070TIP3   OH269700   0.072   4.035  15.070 -0.3834  0.4613  0.3254
16070TIP3    H169701   0.149   4.030  15.127 -0.5368 -1.9420  0.4006
16070TIP3    H269702   0.096   4.100  15.004  2.2494 -1.0784 -0.3661
16071TIP3   OH269703   4.070   6.324  12.031 -0.3891 -0.4660 -0.2583
16071TIP3    H169704   4.035   6.398  12.081 -0.8643 -0.5537 -0.4563
16071TIP3    H269705   4.051   6.248  12.086  1.6931 -0.2896  0.8004
16072TIP3   OH269706   5.944   1.468  16.654 -0.1570 -0.0005 -0.8714
16072TIP3    H169707   5.883   1.539  16.632  0.1404  0.3751 -0.4952
16072TIP3    H269708   5.964   1.481  16.746  1.8497  0.9285 -1.3768
16073TIP3   OH269709   1.753   5.311   5.239  0.2647  0.3860 -0.2354
16073TIP3    H169710   1.768   5.217   5.244  3.3316  0.7216 -1.2776
16073TIP3    H269711   1.786   5.336   5.153 -2.2438  2.2084 -0.7898
16074TIP3   OH269712   3.660   6.001   0.769 -0.5815  0.3320 -0.0074
16074TIP3    H169713   3.697   6.087   0.750 -1.5023  0.6635 -0.3456
16074TIP3    H269714   3.622   6.009   0.856 -1.0255  0.3954 -0.2032
16075TIP3   OH269715   4.757   2.940  13.427  0.0662  0.1083 -0.1106
16075TIP3    H169716   4.833   2.989  13.459  1.2916 -1.3426 -0.7073
16075TIP3    H269717   4.724   2.992  13.354 -1.7483  2.5882  2.2289
16076TIP3   OH269718   1.552   4.887   4.853 -0.4701 -0.3987  0.1870
16076TIP3    H169719   1.457   4.884   4.864 -0.4634  0.8896  0.7708
16076TIP3    H269720   1.586   4.832   4.924 -0.7816 -1.3147 -0.3583
16077TIP3   OH269721   6.637   3.037   0.384 -0.0543 -0.7279  0.0495
16077TIP3    H169722   6.551   3.027   0.424 -0.6372 -2.3453 -1.4653
16077TIP3    H269723   6.623   3.015   0.292  1.7657  0.1173 -0.4733
16078TIP3   OH269724   4.512   0.792   0.435 -0.2799 -0.1676  0.3943
16078TIP3    H169725   4.576   0.802   0.365 -0.1777 -2.1042  0.1427
16078TIP3    H269726   4.553   0.733   0.498 -1.2957 -0.4118  0.8638
16079TIP3   OH269727   6.286   4.046  11.610  0.1881 -0.1718  0.2022
16079TIP3    H169728   6.349   4.093  11.664  2.1342 -1.9999 -0.3801
16079TIP3    H269729   6.250   4.114  11.552  0.9374  1.0726  1.1383
16080TIP3   OH269730   6.401   5.588   2.806 -0.0608 -0.4253 -0.0277
16080TIP3    H169731   6.456   5.557   2.878  0.1740  0.2472  0.0818
16080TIP3    H269732   6.336   5.644   2.847  0.3878  0.3768 -0.3880
16081TIP3   OH269733   2.734   1.739   0.229  0.2688  0.5271  0.2942
16081TIP3    H169734   2.719   1.666   0.169 -0.2582 -1.0840  2.2583
16081TIP3    H269735   2.829   1.740   0.241  0.3525  0.6866 -0.3520
16082TIP3   OH269736   4.868   4.894  16.500 -0.1476  0.0218 -0.0983
16082TIP3    H169737   4.888   4.970  16.554  1.4919  0.4568 -1.2495
16082TIP3    H269738   4.916   4.822  16.541 -0.4676 -0.0660  0.1223
16083TIP3   OH269739   6.728   2.523  11.668  0.2778 -0.5154  0.4616
16083TIP3    H169740   6.642   2.481  11.666  0.4834 -0.9302  0.1488
16083TIP3    H269741   6.709   2.615  11.649 -0.1860 -0.4409  1.2625
16084TIP3   OH269742   4.858   4.451  14.431  0.1143 -0.4801 -0.3200
16084TIP3    H169743   4.912   4.436  14.354  2.0699 -0.5358  0.9885
16084TIP3    H269744   4.794   4.516  14.404  1.4974  0.3771 -1.6536
16085TIP3   OH269745   6.461   1.995  11.717 -0.3153  0.7442  0.5290
16085TIP3    H169746   6.387   2.011  11.659  1.4756 -1.2852 -2.5790
16085TIP3    H269747   6.445   1.907  11.752  0.6304  0.2352 -0.2712
16086TIP3   OH269748   5.475   5.460   2.618 -0.3849  0.4242  0.2384
16086TIP3    H169749   5.489   5.467   2.712  1.0227  1.6429 -0.0266
16086TIP3    H269750   5.487   5.367   2.599  2.0317  0.5299  0.9112
16087TIP3   OH269751   1.890   3.648   2.641 -0.2816  0.1789 -0.1836
16087TIP3    H169752   1.980   3.631   2.666 -0.2512  0.8141  0.1573
16087TIP3    H269753   1.855   3.562   2.617  0.4056 -0.0703 -0.3099
16088TIP3   OH269754   6.284   0.035  16.082  0.4405 -0.1292 -0.2658
16088TIP3    H169755   6.210   0.084  16.116  0.6435 -0.2777  0.4096
16088TIP3    H269756   6.312   0.084  16.005 -0.0823  0.1652 -0.2736
16089TIP3   OH269757   2.781   6.432   5.386 -0.3042  0.1481  0.4599
16089TIP3    H169758   2.707   6.436   5.324  0.3264  0.7093 -0.2714
16089TIP3    H269759   2.854   6.470   5.338  0.8403 -1.6928  0.6409
16090TIP3   OH269760   2.532   4.448  12.771 -0.2286  0.3173  0.0583
16090TIP3    H169761   2.488   4.434  12.688  0.9320 -3.9626 -0.0709
16090TIP3    H269762   2.461   4.456  12.835 -1.2099 -0.9091 -0.8287
16091TIP3   OH269763   3.143   4.925  16.450  0.0083  0.4268 -0.3564
16091TIP3    H169764   3.118   4.843  16.494  0.7971  0.5932  0.4466
16091TIP3    H269765   3.210   4.899  16.386 -0.3524  0.3312 -0.6946
16092TIP3   OH269766   4.425   4.929  15.969 -0.2447  0.1353  0.2616
16092TIP3    H169767   4.361   4.993  16.001  0.4960  0.7285  0.6072
16092TIP3    H269768   4.509   4.975  15.974  0.6419 -1.5414  2.6001
16093TIP3   OH269769   4.430   0.923  16.347  0.7668 -0.0998 -0.2685
16093TIP3    H169770   4.468   0.853  16.401 -0.1993 -0.0690  0.4638
16093TIP3    H269771   4.506   0.969  16.313  1.4272 -1.3639 -0.5852
16094TIP3   OH269772   2.595   1.691   6.335  0.6204 -0.0781  0.3168
16094TIP3    H169773   2.567   1.637   6.262  0.0634  0.2068  0.3142
16094TIP3    H269774   2.539   1.664   6.408 -1.1601  1.9412 -0.2137
16095TIP3   OH269775   0.071   2.519   5.524 -0.4827  0.1397  0.0570
16095TIP3    H169776   0.002   2.546   5.584  1.1357  2.5611  0.9772
16095TIP3    H269777   0.097   2.600   5.480  1.5189 -0.7623 -0.5116
16096TIP3   OH269778   4.421   5.620  12.034  0.0921 -0.5260 -0.1833
16096TIP3    H169779   4.402   5.694  11.976  1.9426 -0.6422 -1.0205
16096TIP3    H269780   4.413   5.543  11.978  3.6303 -0.5349 -0.9209
16097TIP3   OH269781   3.029   4.779   0.349 -0.0708 -0.1690  0.1394
16097TIP3    H169782   3.097   4.760   0.414 -0.1489  0.7162  0.4986
16097TIP3    H269783   3.032   4.705   0.288  0.3437 -0.7721  0.8682
16098TIP3   OH269784   1.359   2.236   2.842  0.1260  0.3143  0.3454
16098TIP3    H169785   1.274   2.195   2.856 -0.4145  0.6063 -1.7987
16098TIP3    H269786   1.341   2.330   2.840  0.7686  0.4781  1.4333
16099TIP3   OH269787   2.315   1.233   6.035  0.6730  0.4721 -0.7217
16099TIP3    H169788   2.347   1.278   5.956  1.2973 -1.8569 -1.8623
16099TIP3    H269789   2.232   1.194   6.008 -0.0497  1.1872  0.3702
16100TIP3   OH269790   3.784   0.378  16.525  0.1885  0.7569  0.2800
16100TIP3    H169791   3.861   0.375  16.469  1.0060  0.7684  1.3585
16100TIP3    H269792   3.811   0.432  16.600 -0.7222  0.3982  0.8923
16101TIP3   OH269793   2.638   2.586  10.925 -0.5164  0.1864 -0.2496
16101TIP3    H169794   2.705   2.547  10.869 -0.1064 -0.4825  0.6741
16101TIP3    H269795   2.555   2.563  10.883 -0.4168 -3.4812  1.2625
16102TIP3   OH269796   0.333   0.562   5.572  0.0115  0.2691 -0.1708
16102TIP3    H169797   0.297   0.571   5.660  1.1833 -0.8355  0.4636
16102TIP3    H269798   0.267   0.600   5.515 -1.7685 -0.9323  0.9863
16103TIP3   OH269799   3.428   5.661  12.941 -0.0753 -0.7520 -0.3052
16103TIP3    H169800   3.463   5.593  12.883 -1.5706 -2.2547  0.4812
16103TIP3    H269801   3.500   5.678  13.002  0.2488 -1.8373 -0.3478
16104TIP3   OH269802   5.353   4.437   2.669  0.1090  0.3831  0.5735
16104TIP3    H169803   5.288   4.479   2.613  0.2173  1.0644  0.9465
16104TIP3    H269804   5.352   4.345   2.643 -1.0269  0.3785  0.5988
16105TIP3   OH269805   6.737   6.705   3.215 -0.0464  0.3234 -0.7230
16105TIP3    H169806   6.683   6.783   3.224  0.0334  0.6032 -2.3282
16105TIP3    H269807   6.793   6.705   3.293 -1.3775  0.7713  0.2712
16106TIP3   OH269808   2.520   1.847   2.896  0.3911  0.1085  0.2225
16106TIP3    H169809   2.589   1.786   2.920  0.8608  1.0305  1.2969
16106TIP3    H269810   2.566   1.929   2.875 -0.3018  0.4546  0.0044
16107TIP3   OH269811   5.682   3.497  11.836 -0.6504  0.3149  0.2837
16107TIP3    H169812   5.724   3.471  11.753 -2.1715 -0.8873 -0.1638
16107TIP3    H269813   5.616   3.430  11.851  0.3558 -0.1845  3.1343
16108TIP3   OH269814   5.644   5.963   4.639  0.2611  0.0079 -0.0706
16108TIP3    H169815   5.735   5.940   4.620  0.8403  1.3736  0.8473
16108TIP3    H269816   5.650   6.041   4.694 -1.4208 -1.0096  1.6797
16109TIP3   OH269817   4.532   0.082  11.679  0.6393 -0.4553  0.4696
16109TIP3    H169818   4.565   0.018  11.741  3.2958  0.7057  0.3690
16109TIP3    H269819   4.487   0.031  11.612  1.4177 -2.0665  1.1481
16110TIP3   OH269820   5.926   0.337   4.821  0.2121  0.3675  0.2265
16110TIP3    H169821   5.893   0.296   4.741 -0.0614  2.5500 -0.8388
16110TIP3    H269822   5.856   0.323   4.885 -1.7871  2.7277 -1.2991
16111TIP3   OH269823   4.716   4.570  13.039 -0.2338  0.0938  0.0940
16111TIP3    H169824   4.652   4.569  12.969  0.3956 -0.0137 -0.4923
16111TIP3    H269825   4.786   4.513  13.009 -1.1434 -2.1932  1.9723
16112TIP3   OH269826   5.960   2.486   2.216  0.0665  0.2655  0.3515
16112TIP3    H169827   6.026   2.519   2.155  0.8784  1.6370  1.9007
16112TIP3    H269828   5.879   2.531   2.190  0.4792  1.0942  0.4488
16113TIP3   OH269829   4.001   0.786   6.059  0.3903 -0.1751  0.4878
16113TIP3    H169830   3.917   0.751   6.089 -0.8520  1.5545 -0.7489
16113TIP3    H269831   4.059   0.710   6.055 -1.5356 -1.6969 -0.0152
16114TIP3   OH269832   2.478   6.357  11.591  0.3821  0.4028  0.1797
16114TIP3    H169833   2.493   6.284  11.652 -0.1868  1.4593  1.6453
16114TIP3    H269834   2.471   6.315  11.505  4.7048 -0.8426  0.2160
16115TIP3   OH269835   4.504   1.980  14.245  0.2555  0.2196 -0.4401
16115TIP3    H169836   4.539   1.948  14.328  1.0404  0.0357 -0.8364
16115TIP3    H269837   4.577   2.025  14.204  0.4571 -1.3641 -1.9161
16116TIP3   OH269838   6.532   2.564   4.686 -0.4339  0.1174  0.0978
16116TIP3    H169839   6.616   2.610   4.684  0.1119 -0.7953  1.2394
16116TIP3    H269840   6.514   2.544   4.594 -0.6666  2.5155 -0.4432
16117TIP3   OH269841   6.610   2.451   3.945 -0.6838 -0.8863 -0.1224
16117TIP3    H169842   6.686   2.509   3.947  0.0926 -1.8281 -0.9245
16117TIP3    H269843   6.635   2.377   4.002 -1.9331 -0.1560  1.4528
16118TIP3   OH269844   1.034   6.562   1.721  0.3827  0.2342 -0.5292
16118TIP3    H169845   0.961   6.620   1.698 -0.9872 -0.9557  0.5960
16118TIP3    H269846   0.996   6.499   1.782  2.4758 -0.1838  0.4401
16119TIP3   OH269847   1.668   2.978   2.922 -0.4645  0.3650  0.0807
16119TIP3    H169848   1.575   2.959   2.912 -0.3003  0.1574 -1.3315
16119TIP3    H269849   1.692   2.940   3.007 -0.9516 -2.6557 -0.9931
16120TIP3   OH269850   5.507   1.711   2.502 -0.7490 -0.0177 -0.1087
16120TIP3    H169851   5.515   1.748   2.590  0.7849 -0.2533 -0.1206
16120TIP3    H269852   5.503   1.616   2.517  2.5837 -0.3063 -0.3581
16121TIP3   OH269853   2.054   4.812   5.812 -0.9587 -0.1175  0.4137
16121TIP3    H169854   1.963   4.829   5.788 -0.1558  2.0692 -1.4636
16121TIP3    H269855   2.096   4.782   5.731  0.6309  2.0036  0.3578
16122TIP3   OH269856   4.881   3.540   1.005  0.2824 -0.4049 -0.8354
16122TIP3    H169857   4.833   3.591   0.940 -0.5659  0.4069  0.3941
16122TIP3    H269858   4.973   3.561   0.989 -0.0456  1.8045 -0.1757
16123TIP3   OH269859   4.917   1.989  10.629 -0.6978  0.4288  0.4088
16123TIP3    H169860   4.866   1.922  10.584 -2.3908  1.4901  0.6460
16123TIP3    H269861   4.924   1.958  10.719  0.0942 -0.2605  0.1224
16124TIP3   OH269862   6.710   5.561   0.135 -0.6365 -0.5147  0.1863
16124TIP3    H169863   6.788   5.533   0.087 -1.1854  0.4432 -1.3646
16124TIP3    H269864   6.665   5.479   0.156  0.3186 -1.0331  0.3027
16125TIP3   OH269865   6.648   0.448   3.943  0.3198  0.2692 -0.4492
16125TIP3    H169866   6.714   0.451   4.013  0.4738 -1.1411 -0.5045
16125TIP3    H269867   6.571   0.411   3.985 -0.0465  0.7529 -0.6896
16126TIP3   OH269868   4.474   2.289  16.158  0.3803  0.3056 -0.2060
16126TIP3    H169869   4.488   2.278  16.064 -0.4497 -0.0938 -0.2965
16126TIP3    H269870   4.388   2.249  16.174 -0.0694  1.4940  0.4920
16127TIP3   OH269871   1.787   0.118   2.658 -0.1135 -0.0527 -0.5482
16127TIP3    H169872   1.857   0.089   2.717 -0.5844 -0.2417 -0.0732
16127TIP3    H269873   1.707   0.107   2.709 -0.4158  0.9378 -0.7981
16128TIP3   OH269874   1.179   2.095  11.987  0.3428 -0.2612  0.1121
16128TIP3    H169875   1.238   2.157  12.030  1.6583 -0.4491 -1.3649
16128TIP3    H269876   1.121   2.065  12.057  1.7048  0.2650  1.5123
16129TIP3   OH269877   3.167   3.303   1.636  0.5448  0.4092 -0.4979
16129TIP3    H169878   3.142   3.244   1.566 -0.4769 -0.2950  0.4323
16129TIP3    H269879   3.085   3.342   1.666  0.5879 -1.1450  1.9144
16130TIP3   OH269880   0.352   0.243   0.534  0.3225  0.3444  0.3234
16130TIP3    H169881   0.381   0.206   0.617  1.0544 -3.3794 -1.4025
16130TIP3    H269882   0.432   0.276   0.493  0.3352  0.1519  0.1904
16131TIP3   OH269883   4.797   4.845  11.944 -0.3297 -0.0241 -0.3265
16131TIP3    H169884   4.861   4.796  11.892 -0.4889  0.2401 -0.7801
16131TIP3    H269885   4.826   4.936  11.938  1.7331 -0.3059  2.9951
16132TIP3   OH269886   6.136   0.338   3.048 -0.4409  0.4649 -0.3764
16132TIP3    H169887   6.042   0.329   3.033 -0.5933 -0.7996  1.1429
16132TIP3    H269888   6.159   0.419   3.001 -1.9420 -0.0319 -2.1132
16133TIP3   OH269889   2.932   5.002   2.818  1.1290  0.3536  0.2022
16133TIP3    H169890   3.021   5.008   2.851  2.1568 -1.8434 -1.8305
16133TIP3    H269891   2.919   4.909   2.801 -2.2082  0.3484  1.9392
16134TIP3   OH269892   2.768   0.179   3.043  0.0777  0.1301  0.2301
16134TIP3    H169893   2.829   0.250   3.026  0.6160  0.8486  4.1066
16134TIP3    H269894   2.824   0.101   3.051 -0.3003 -0.4462 -2.1110
16135TIP3   OH269895   5.037   4.917  15.855 -0.3512 -0.1962  0.0993
16135TIP3    H169896   5.035   4.990  15.793 -1.5800  0.1610  0.5268
16135TIP3    H269897   5.099   4.855  15.817 -0.0106  0.6450 -0.7568
16136TIP3   OH269898   4.046   5.175  10.302  0.4041 -0.0459 -0.4293
16136TIP3    H169899   3.972   5.200  10.248 -0.4002 -2.1726 -0.3901
16136TIP3    H269900   4.012   5.174  10.391  0.7403 -0.1277 -0.2965
16137TIP3   OH269901   1.498   0.620   0.160  0.2230 -0.1768  0.2639
16137TIP3    H169902   1.569   0.661   0.210  0.5968 -0.5498  0.0414
16137TIP3    H269903   1.457   0.559   0.223  0.5100 -0.4334  0.2053
16138TIP3   OH269904   5.340   3.540   4.457 -0.3535 -0.1769  0.0336
16138TIP3    H169905   5.278   3.475   4.489 -2.4959  1.4826 -0.4692
16138TIP3    H269906   5.354   3.517   4.365 -2.7584  1.1758 -0.7362
16139TIP3   OH269907   4.952   4.421   5.669 -0.6257 -0.4455 -0.0439
16139TIP3    H169908   4.857   4.409   5.661 -0.8246  0.1300  1.2163
16139TIP3    H269909   4.970   4.406   5.762  0.2696  1.0315  0.0442
16140TIP3   OH269910   3.061   0.449   5.820  0.3653  0.5760 -0.4817
16140TIP3    H169911   3.042   0.421   5.730  0.2461  0.7029 -0.4951
16140TIP3    H269912   3.092   0.369   5.863 -1.0334  0.1506 -0.2111
16141TIP3   OH269913   1.889   4.783  14.491 -0.8009 -0.2819 -0.7849
16141TIP3    H169914   1.975   4.781  14.533 -0.1482 -0.1956 -2.0474
16141TIP3    H269915   1.834   4.834  14.550 -0.8625 -2.9087  1.5817
16142TIP3   OH269916   1.182   1.689   6.219  0.6541 -0.3679 -0.7488
16142TIP3    H169917   1.239   1.754   6.261 -0.6056  0.0551  0.3685
16142TIP3    H269918   1.112   1.674   6.282 -1.3671  0.3386 -2.6756
16143TIP3   OH269919   2.587   1.269   2.665 -0.0047 -0.4940  0.6073
16143TIP3    H169920   2.535   1.316   2.730  0.6308  0.5522  0.3934
16143TIP3    H269921   2.523   1.241   2.599 -0.2095  2.0501 -0.4131
16144TIP3   OH269922   2.780   4.905   0.692 -0.2525 -0.1275 -0.3482
16144TIP3    H169923   2.731   4.983   0.669 -2.1667 -0.2807  2.6292
16144TIP3    H269924   2.837   4.933   0.764  0.2519 -1.1202 -0.3452
16145TIP3   OH269925   6.398   0.220   3.000 -0.1191 -0.2538 -0.0988
16145TIP3    H169926   6.359   0.148   2.951  1.0665  0.2519 -1.8855
16145TIP3    H269927   6.328   0.285   3.007 -1.4238 -1.7688  2.1512
16146TIP3   OH269928   4.906   4.068  15.744 -0.4155 -0.2256  0.1167
16146TIP3    H169929   4.851   4.146  15.744 -2.7122 -1.7187  1.4472
16146TIP3    H269930   4.974   4.085  15.809 -1.0305  0.5671  0.5655
16147TIP3   OH269931   5.867   2.298   0.488 -0.1777 -0.3608  0.7444
16147TIP3    H169932   5.915   2.359   0.432  0.0933 -2.3338 -1.2749
16147TIP3    H269933   5.793   2.350   0.521  1.3677  1.7321  1.1222
16148TIP3   OH269934   3.795   6.387  16.797  0.1385 -0.1169  0.1841
16148TIP3    H169935   3.879   6.343  16.791  0.8043  1.1867 -0.3514
16148TIP3    H269936   3.759   6.385  16.708 -0.4607 -0.7669  0.4292
16149TIP3   OH269937   1.939   6.415  10.828 -0.2049  0.5852 -0.3946
16149TIP3    H169938   1.863   6.457  10.869  0.6823  2.1079 -0.2406
16149TIP3    H269939   1.902   6.344  10.775 -1.6363  0.6360  0.4809
16150TIP3   OH269940   3.294   6.208  11.043  0.1493 -0.2493 -0.3478
16150TIP3    H169941   3.387   6.203  11.064  0.7302  0.0583 -2.6330
16150TIP3    H269942   3.280   6.299  11.017 -1.2232  0.1671  1.6491
16151TIP3   OH269943   6.145   0.218   3.305 -0.1219  0.5809  0.4110
16151TIP3    H169944   6.120   0.266   3.226  0.8278  0.6865  0.1575
16151TIP3    H269945   6.164   0.129   3.273 -0.8435  0.3161  0.7084
16152TIP3   OH269946   6.140   3.384   2.859 -0.0677 -0.0496 -0.0629
16152TIP3    H169947   6.129   3.441   2.935 -2.3209  0.8546 -0.9948
16152TIP3    H269948   6.088   3.425   2.790  1.4419 -1.1628 -1.9519
16153TIP3   OH269949   5.725   1.464   0.487  0.1980  0.4715  0.2041
16153TIP3    H169950   5.750   1.529   0.552 -1.8809 -0.4926  2.0866
16153TIP3    H269951   5.753   1.380   0.525  0.8579  0.0358 -1.1660
16154TIP3   OH269952   1.300   4.209  10.808  0.7839  0.2198 -0.2265
16154TIP3    H169953   1.274   4.291  10.851 -0.3624 -0.3010  0.1165
16154TIP3    H269954   1.241   4.201  10.733  1.2742 -0.0108 -0.5927
16155TIP3   OH269955   6.476   3.354  15.452 -0.6947 -0.2913 -0.0541
16155TIP3    H169956   6.527   3.273  15.444  0.6422  0.5476 -0.4200
16155TIP3    H269957   6.433   3.347  15.537  0.3646 -0.8623  0.4598
16156TIP3   OH269958   2.998   0.209  16.109  0.4784  0.1390 -0.1213
16156TIP3    H169959   3.015   0.183  16.018  0.2248  0.6137 -0.3087
16156TIP3    H269960   2.903   0.212  16.115  0.4988  1.0450 -0.1178
16157TIP3   OH269961   6.417   5.825   1.548  0.1188  0.0706  0.2262
16157TIP3    H169962   6.418   5.908   1.501 -1.2399 -0.0992 -0.1589
16157TIP3    H269963   6.423   5.850   1.641 -2.6194  0.8339  0.2975
16158TIP3   OH269964   4.441   4.120   2.697 -0.0506  0.3351 -0.2634
16158TIP3    H169965   4.422   4.093   2.607  1.0895 -1.4301 -0.0224
16158TIP3    H269966   4.522   4.172   2.689 -1.0788  1.9790 -0.4647
16159TIP3   OH269967   4.992   5.230  15.433 -0.0919 -0.0153  0.6334
16159TIP3    H169968   5.005   5.319  15.466  0.8369 -0.2884  1.0282
16159TIP3    H269969   4.898   5.224  15.415 -0.0165  1.3913 -0.3957
16160TIP3   OH269970   4.600   3.525  14.730 -0.4193  0.1702 -0.3071
16160TIP3    H169971   4.523   3.469  14.724 -0.5520  0.2960  0.1154
16160TIP3    H269972   4.659   3.479  14.790 -0.9370  0.9128  0.8331
16161TIP3   OH269973   1.292   1.872   3.561  0.4066 -0.8397 -1.0363
16161TIP3    H169974   1.204   1.858   3.596 -0.2519 -0.3579 -2.4037
16161TIP3    H269975   1.335   1.928   3.625  0.2803 -2.3041  0.4164
16162TIP3   OH269976   4.182   3.852   3.632 -0.8408 -0.2378  0.3103
16162TIP3    H169977   4.254   3.860   3.570 -2.2398 -2.1109 -1.7035
16162TIP3    H269978   4.117   3.915   3.602 -0.8051  0.1257  0.9817
16163TIP3   OH269979   4.255   4.692  12.275  0.0961  0.0145 -0.5940
16163TIP3    H169980   4.257   4.596  12.277  1.5546  0.0272  0.7756
16163TIP3    H269981   4.331   4.717  12.223 -0.5881  0.4431 -1.4098
16164TIP3   OH269982   4.738   2.458  13.133 -0.8704  0.4863  0.1068
16164TIP3    H169983   4.829   2.481  13.153 -0.8635  0.0041  0.6478
16164TIP3    H269984   4.740   2.364  13.117 -1.6150  0.0304  2.3265
16165TIP3   OH269985   1.085   0.226  16.373 -0.3914  0.1584 -0.1000
16165TIP3    H169986   1.004   0.278  16.375 -0.4317  0.0920  0.0480
16165TIP3    H269987   1.155   0.291  16.362 -0.3777  0.3247  0.8737
16166TIP3   OH269988   2.855   0.926  15.246 -0.4552 -0.7017 -0.8683
16166TIP3    H169989   2.899   0.850  15.284  1.7949  1.2891  0.8893
16166TIP3    H269990   2.925   0.990  15.234 -2.5355  1.9597  0.1239
16167TIP3   OH269991   0.200   3.859  11.568 -0.1192  0.0681 -0.4224
16167TIP3    H169992   0.189   3.904  11.652  1.1910  1.3279 -0.8940
16167TIP3    H269993   0.152   3.914  11.505  0.3620  0.0886 -0.7790
16168TIP3   OH269994   5.543   4.820  12.540 -0.3897 -0.1306  0.2803
16168TIP3    H169995   5.619   4.824  12.481 -1.0553 -0.3245 -0.6250
16168TIP3    H269996   5.534   4.727  12.561 -0.3165 -0.0953  0.4677
16169TIP3   OH269997   1.380   4.725  13.853  0.4150 -0.0249 -0.1616
16169TIP3    H169998   1.353   4.815  13.838 -0.9490 -0.1237  1.3437
16169TIP3    H269999   1.405   4.723  13.945 -0.7882 -1.4124  0.1816
16170TIP3   OH270000   2.613   3.019   3.625 -0.3955  0.2869 -0.1024
16170TIP3    H170001   2.556   2.957   3.671  1.1276 -0.7370  0.4912
16170TIP3    H270002   2.589   3.009   3.533 -0.7349 -0.6057  0.0675
16171TIP3   OH270003   5.617   0.932   2.766  0.0274 -0.0529  0.3675
16171TIP3    H170004   5.696   0.881   2.746  0.1291 -0.5237  1.8942
16171TIP3    H270005   5.554   0.868   2.797 -1.1528  0.2572 -1.2418
16172TIP3   OH270006   1.369   1.368  14.005 -0.2022 -0.0865  0.1621
16172TIP3    H170007   1.324   1.395  14.085  0.3136  0.7307  0.1772
16172TIP3    H270008   1.452   1.331  14.036 -1.1133 -2.2916  0.1960
16173TIP3   OH270009   5.553   5.823  12.885 -0.2006  0.6491 -0.0896
16173TIP3    H170010   5.510   5.828  12.970 -0.0395  2.1433 -0.0763
16173TIP3    H270011   5.634   5.775  12.901 -0.4714  0.3759  0.4742
16174TIP3   OH270012   5.477   5.189   2.474 -0.7584  0.1484 -0.0855
16174TIP3    H170013   5.496   5.256   2.408  0.9885  1.0407  1.2315
16174TIP3    H270014   5.384   5.201   2.493 -0.4230  2.5681  0.4259
16175TIP3   OH270015   6.388   0.136   5.575 -0.2191  0.3861  0.0276
16175TIP3    H170016   6.304   0.113   5.613  0.1475 -0.0178  0.6125
16175TIP3    H270017   6.366   0.184   5.495 -1.0448 -2.4321 -1.5600
16176TIP3   OH270018   0.541   3.630   4.455  0.2541 -0.2358 -0.2238
16176TIP3    H170019   0.630   3.660   4.475  0.3064  0.5728 -1.5636
16176TIP3    H270020   0.540   3.622   4.360 -1.0440 -0.4797 -0.1971
16177TIP3   OH270021   1.563   3.642  15.776 -0.0564 -0.8344  0.0139
16177TIP3    H170022   1.472   3.674  15.769 -0.5495 -1.8017  1.6641
16177TIP3    H270023   1.610   3.691  15.708 -1.4309  1.0512  0.3304
16178TIP3   OH270024   4.505   3.318   2.433 -0.3307  0.0079 -0.2477
16178TIP3    H170025   4.533   3.336   2.523 -0.0893  0.2598 -0.3693
16178TIP3    H270026   4.475   3.227   2.434  0.7794 -0.3751 -0.1661
16179TIP3   OH270027   0.561   1.157  11.733 -0.4693  0.3843  0.1572
16179TIP3    H170028   0.556   1.194  11.822  3.5069  2.4352 -0.2243
16179TIP3    H270029   0.492   1.202  11.684 -0.0899  2.3632  1.3230
16180TIP3   OH270030   1.889   1.563   1.622  0.0708 -0.1174  0.3193
16180TIP3    H170031   1.942   1.602   1.691  1.2700 -1.3626  0.1193
16180TIP3    H270032   1.830   1.503   1.668  0.7063 -0.7684  0.2917
16181TIP3   OH270033   0.007   5.291  14.833  0.3938  0.5792  0.6949
16181TIP3    H170034   0.022   5.362  14.770 -2.1220 -0.4112 -1.1661
16181TIP3    H270035  -0.031   5.335  14.909  1.8235  1.5643  0.8998
16182TIP3   OH270036   6.135   1.105   5.073 -0.3765  0.1164  0.0228
16182TIP3    H170037   6.179   1.024   5.099  0.7579  0.4885 -0.6721
16182TIP3    H270038   6.202   1.173   5.083 -1.6616  1.2126  1.8374
16183TIP3   OH270039   5.527   0.384  16.965  0.1842 -0.1300 -0.1347
16183TIP3    H170040   5.547   0.460  16.909 -1.0220  0.6694  0.4736
16183TIP3    H270041   5.439   0.357  16.938  0.7853 -1.6344 -0.6649
16184TIP3   OH270042   0.989   5.916   6.501  0.1873  0.4767  0.4291
16184TIP3    H170043   0.918   5.915   6.565  1.5968  0.8702  2.0910
16184TIP3    H270044   1.042   5.993   6.526  2.8830 -1.4835  1.2702
16185TIP3   OH270045   4.037   5.824  16.518  0.2520  0.5270 -0.4507
16185TIP3    H170046   4.092   5.797  16.592 -1.1941 -1.2350  0.0565
16185TIP3    H270047   4.038   5.919  16.520 -0.6920  0.5745  2.5991
16186TIP3   OH270048   3.061   4.346   2.107  0.5224 -0.5221 -0.5411
16186TIP3    H170049   3.133   4.391   2.063  0.6574  0.6190  0.7719
16186TIP3    H270050   3.011   4.415   2.149 -1.2631 -1.3121 -1.2539
16187TIP3   OH270051   5.816   5.811  16.141  0.3309 -0.8296  0.2042
16187TIP3    H170052   5.759   5.739  16.168 -1.9081  0.7932  0.1251
16187TIP3    H270053   5.841   5.854  16.222  2.2033 -1.9815  0.3035
16188TIP3   OH270054   0.476   0.884   3.943 -0.4322 -0.0759 -0.1393
16188TIP3    H170055   0.493   0.976   3.963 -0.4948  0.4003 -2.0494
16188TIP3    H270056   0.451   0.845   4.027 -0.3641  1.6372  0.7172
16189TIP3   OH270057   2.092   5.579  12.943 -0.7578 -0.1588  0.3140
16189TIP3    H170058   2.067   5.620  13.026 -2.2777 -1.1330  0.3770
16189TIP3    H270059   2.124   5.651  12.889 -2.6560  1.0171  0.6786
16190TIP3   OH270060   2.403   1.500   1.928  0.0382  0.2484  0.2962
16190TIP3    H170061   2.489   1.541   1.923 -1.0027  2.5478  0.0121
16190TIP3    H270062   2.374   1.491   1.837  0.3066 -1.3884  0.3305
16191TIP3   OH270063   0.419   5.838   0.326 -0.4506  0.6258 -0.8923
16191TIP3    H170064   0.494   5.850   0.267  1.7858 -0.8232  1.4691
16191TIP3    H270065   0.391   5.748   0.311 -0.4697  0.5502 -0.4152
16192TIP3   OH270066   2.512   3.487   1.594  0.1468  0.5235  0.6162
16192TIP3    H170067   2.428   3.469   1.552 -0.9330 -0.2831  2.9587
16192TIP3    H270068   2.491   3.549   1.664  1.0943 -1.1172  2.4517
16193TIP3   OH270069   4.378   5.803  14.185  0.1186 -0.5748 -0.0403
16193TIP3    H170070   4.397   5.816  14.092  0.8847 -0.6852  0.0986
16193TIP3    H270071   4.460   5.825  14.229 -0.5900  0.6949  0.7076
16194TIP3   OH270072   1.589   0.393  15.164  0.0675  0.6896 -0.5427
16194TIP3    H170073   1.679   0.392  15.196  0.0918  0.3474 -0.6260
16194TIP3    H270074   1.539   0.434  15.235  0.1716  0.2187 -0.1995
16195TIP3   OH270075   0.820   2.462  12.675 -0.0879  0.4242 -0.1815
16195TIP3    H170076   0.899   2.515  12.680  0.5248 -0.3237 -1.4420
16195TIP3    H270077   0.756   2.508  12.729  0.5287  2.2371 -0.9415
16196TIP3   OH270078   3.620   2.722   2.089 -0.0975  0.3705 -0.4571
16196TIP3    H170079   3.690   2.658   2.076  0.4575  0.4066  1.8141
16196TIP3    H270080   3.643   2.795   2.032  2.2926  0.7555  0.8250
16197TIP3   OH270081   4.069   4.246  16.495 -0.3906 -0.0933  0.1395
16197TIP3    H170082   3.995   4.289  16.452  0.0792  0.7960  0.1882
16197TIP3    H270083   4.141   4.308  16.484  0.1583 -0.6190  0.7390
16198TIP3   OH270084   0.739   5.096  14.140 -0.2369  0.1767 -0.0433
16198TIP3    H170085   0.657   5.140  14.162  0.4144  1.0701  0.6800
16198TIP3    H270086   0.800   5.168  14.121  0.8718 -0.3931  1.2098
16199TIP3   OH270087   3.326   3.781   5.595 -0.1364  0.0632 -0.4334
16199TIP3    H170088   3.271   3.859   5.584  1.4667  1.4175  0.5704
16199TIP3    H270089   3.334   3.771   5.690 -0.4731 -1.4878 -0.5389
16200TIP3   OH270090   2.228   0.960  16.515 -1.3946  0.3038  0.4539
16200TIP3    H170091   2.208   0.943  16.423  0.5424  1.0480 -0.1493
16200TIP3    H270092   2.158   1.017  16.545 -0.7306  2.1493 -1.3083
16201TIP3   OH270093   4.669   2.291   1.012  0.1140 -0.4926  0.0803
16201TIP3    H170094   4.623   2.250   1.086 -1.1048 -0.8901 -0.8533
16201TIP3    H270095   4.600   2.308   0.948  0.2863  4.1208  0.8067
16202TIP3   OH270096   0.065   6.491   5.733  0.4832  0.8286 -0.3248
16202TIP3    H170097   0.141   6.532   5.775  0.0182  0.9218  0.4461
16202TIP3    H270098   0.061   6.403   5.771 -1.0994  1.5712  1.3736
16203TIP3   OH270099   6.175   2.037   0.082 -0.0442 -0.3301  0.1356
16203TIP3    H170100   6.229   1.959   0.069  0.4991  0.2360 -1.2642
16203TIP3    H270101   6.204   2.097   0.013 -2.7260 -0.1342 -0.9332
16204TIP3   OH270102   6.801   6.610   1.825 -0.1732  0.4953 -0.4404
16204TIP3    H170103   6.788   6.553   1.901 -2.4211 -1.2033 -1.9632
16204TIP3    H270104   6.885   6.581   1.788 -0.7114 -1.0876 -0.5186
16205TIP3   OH270105   4.832   1.091  15.427 -0.5875  0.3630  0.2529
16205TIP3    H170106   4.776   1.046  15.363  0.1969 -2.7455  1.5759
16205TIP3    H270107   4.881   1.021  15.469  2.0276  2.6856  1.3595
16206TIP3   OH270108   0.675   0.439  17.016  0.3588 -0.6329  0.0234
16206TIP3    H170109   0.592   0.460  16.972  0.8804  1.1583 -0.1918
16206TIP3    H270110   0.650   0.418  17.106 -0.3680 -0.6666 -0.1782
16207TIP3   OH270111   6.053   3.220   4.508  0.6666 -0.3746 -0.2486
16207TIP3    H170112   6.144   3.194   4.494  1.5090  1.3896  1.4489
16207TIP3    H270113   6.006   3.138   4.523  1.9093 -1.3316 -1.3418
16208TIP3   OH270114   5.487   3.858   5.552 -0.0918  0.2921 -0.1296
16208TIP3    H170115   5.554   3.808   5.598 -0.1026 -0.1643 -0.6058
16208TIP3    H270116   5.447   3.796   5.491  0.2842  1.0109 -1.1404
16209TIP3   OH270117   6.448   3.083  11.015 -0.7950 -0.0648  0.1130
16209TIP3    H170118   6.402   3.112  11.094  1.0423  2.1717  0.4591
16209TIP3    H270119   6.382   3.086  10.946 -1.1124  4.1784  0.3311
16210TIP3   OH270120   5.147   0.751   0.668  0.0228 -0.0074  0.0196
16210TIP3    H170121   5.054   0.774   0.661 -0.0717 -0.5088 -0.4536
16210TIP3    H270122   5.146   0.657   0.687  0.4441 -0.1160 -0.5010
16211TIP3   OH270123   0.349   6.308  12.691 -0.1216 -0.1581  0.1121
16211TIP3    H170124   0.347   6.358  12.772  0.7899 -0.5662  0.3964
16211TIP3    H270125   0.288   6.354  12.633 -1.7479 -0.5576  1.4193
16212TIP3   OH270126   0.007   5.224   2.593 -0.4978  0.1821 -0.2009
16212TIP3    H170127  -0.033   5.286   2.533  2.7594  1.0079 -1.6962
16212TIP3    H270128   0.033   5.150   2.538  0.1877 -0.2416  0.6632
16213TIP3   OH270129   5.528   4.959   1.843 -0.4224  0.2436 -0.1403
16213TIP3    H170130   5.568   5.046   1.854  1.9611 -0.8850  0.8251
16213TIP3    H270131   5.527   4.923   1.932 -0.7163 -0.9781 -0.6334
16214TIP3   OH270132   5.836   0.655   3.786 -0.2964  0.2913  0.5782
16214TIP3    H170133   5.741   0.652   3.778 -0.2083  0.1021 -0.5042
16214TIP3    H270134   5.852   0.716   3.859 -1.2563 -0.5068  1.4812
16215TIP3   OH270135   1.590   6.419  15.652  0.9026 -0.0233 -0.2154
16215TIP3    H170136   1.680   6.402  15.626  1.1459  2.2601 -1.0981
16215TIP3    H270137   1.555   6.475  15.583 -0.9443 -0.1629  0.5416
16216TIP3   OH270138   5.008   3.671   2.174 -0.1401  0.5759 -0.7162
16216TIP3    H170139   5.044   3.612   2.108  1.6063  1.3361 -0.5104
16216TIP3    H270140   5.056   3.753   2.161 -1.1766  1.3596  0.2223
16217TIP3   OH270141   3.427   5.863  12.145 -0.4901  0.2447  0.5906
16217TIP3    H170142   3.463   5.853  12.233 -2.7067 -0.3993  1.4666
16217TIP3    H270143   3.373   5.942  12.150  0.1008  0.7421 -0.4812
16218TIP3   OH270144   5.870   1.995  16.500  0.2065  0.2799  0.0070
16218TIP3    H170145   5.943   1.947  16.540 -1.3311 -1.5614  0.8123
16218TIP3    H270146   5.909   2.042  16.427  1.9673 -1.8295 -0.5252
16219TIP3   OH270147   2.848   6.713   0.334 -0.3245 -0.1416  0.1137
16219TIP3    H170148   2.862   6.643   0.270 -0.5947 -1.2229  1.1926
16219TIP3    H270149   2.896   6.684   0.412 -1.8685  0.0178  1.1713
16220TIP3   OH270150   0.296   3.789  13.878 -0.3554  0.3105  0.3395
16220TIP3    H170151   0.303   3.882  13.857 -0.8156  0.0311 -1.1884
16220TIP3    H270152   0.207   3.765  13.854 -0.2418 -0.5300  0.7040
16221TIP3   OH270153   4.309   1.755   2.810 -0.1565  0.2765 -0.2496
16221TIP3    H170154   4.226   1.802   2.803  0.8520  2.3158  0.6459
16221TIP3    H270155   4.285   1.662   2.806 -2.3527  0.8302 -0.9611
16222TIP3   OH270156   5.194   0.441  16.198 -0.7336 -0.0881  0.7994
16222TIP3    H170157   5.169   0.349  16.192 -1.6983  0.1249  1.3108
16222TIP3    H270158   5.215   0.467  16.109 -1.5072 -0.5294  0.4846
16223TIP3   OH270159   0.547   1.264   4.695 -0.1740  0.0599  0.2415
16223TIP3    H170160   0.516   1.266   4.604  1.5596 -0.6484 -0.4207
16223TIP3    H270161   0.514   1.181   4.730 -3.0104  1.4563  1.1566
16224TIP3   OH270162   1.537   3.039   2.310 -0.0866 -0.1466 -0.0467
16224TIP3    H170163   1.443   3.054   2.303 -0.5328 -0.8330  3.0500
16224TIP3    H270164   1.572   3.123   2.342  0.2619 -0.0848 -0.5870
16225TIP3   OH270165   5.527   6.246  12.846 -0.3332 -0.3177 -0.5948
16225TIP3    H170166   5.513   6.336  12.817  1.1779 -0.1163 -0.7972
16225TIP3    H270167   5.613   6.222  12.809  0.0036 -1.2985  0.7406
16226TIP3   OH270168   6.495   1.607   2.362  0.7989 -0.3347  0.4850
16226TIP3    H170169   6.464   1.598   2.452  0.0675 -1.4056  0.1490
16226TIP3    H270170   6.417   1.589   2.309  1.0989  0.7658 -0.3646
16227TIP3   OH270171   1.976   2.260   1.354 -0.6032 -0.3954 -0.0923
16227TIP3    H170172   2.005   2.282   1.442 -1.1698  0.3163 -0.0787
16227TIP3    H270173   1.984   2.165   1.349 -0.2797 -0.4095  0.6197
16228TIP3   OH270174   4.426   2.207   4.180 -0.5158  0.2778 -0.3260
16228TIP3    H170175   4.375   2.152   4.121 -0.8980  0.4346 -0.1420
16228TIP3    H270176   4.363   2.269   4.216 -0.7590 -1.1115  1.8327
16229TIP3   OH270177   3.458   2.791   1.832  0.7872  0.6533  0.1246
16229TIP3    H170178   3.549   2.793   1.862  1.7906  0.0789 -2.5947
16229TIP3    H270179   3.444   2.701   1.804  0.5973  1.4916 -2.7297
16230TIP3   OH270180   1.553   0.491  12.722  0.0832 -0.8886 -0.1633
16230TIP3    H170181   1.496   0.502  12.646  0.0633 -0.7879 -0.1348
16230TIP3    H270182   1.508   0.427  12.777  1.3157 -2.9111 -1.4195
16231TIP3   OH270183   6.366   6.529  15.979 -0.2791 -0.2957  0.1980
16231TIP3    H170184   6.355   6.442  15.941  0.1159  0.5468 -2.0004
16231TIP3    H270185   6.288   6.577  15.952  0.3694  0.5518 -0.2306
16232TIP3   OH270186   2.302   3.214   0.607 -0.3111 -0.7348 -0.2362
16232TIP3    H170187   2.208   3.201   0.594 -0.5959 -2.0659  2.4833
16232TIP3    H270188   2.311   3.308   0.623 -1.5407 -0.8928  1.6293
16233TIP3   OH270189   3.262   3.881  12.076  0.1848  0.2148 -0.8268
16233TIP3    H170190   3.324   3.810  12.061 -0.2490 -0.2280 -0.5591
16233TIP3    H270191   3.176   3.838  12.081 -0.2342  0.8894 -1.8418
16234TIP3   OH270192   3.500   0.188   5.365  0.0084  1.0070 -0.6495
16234TIP3    H170193   3.428   0.221   5.312 -2.2885 -0.7657  1.1477
16234TIP3    H270194   3.467   0.191   5.455  2.0345 -0.2659  0.2137
16235TIP3   OH270195   4.452   1.630  15.374  0.2722  0.0719  0.1052
16235TIP3    H170196   4.503   1.636  15.454 -2.0805  0.8576  1.6579
16235TIP3    H270197   4.460   1.717  15.333  0.2719  0.1639  0.2996
16236TIP3   OH270198   0.461   4.541  12.506 -0.0715 -0.2611 -0.1387
16236TIP3    H170199   0.512   4.611  12.547  0.4317 -0.9485  0.4102
16236TIP3    H270200   0.371   4.556  12.536 -0.1333  0.6667 -0.7281
16237TIP3   OH270201   1.621   1.074   2.420 -0.4958  0.3703 -0.0858
16237TIP3    H170202   1.710   1.081   2.454 -1.5748  0.6205  3.0016
16237TIP3    H270203   1.568   1.129   2.479 -3.0655 -1.8439 -0.1283
16238TIP3   OH270204   2.042   0.089  15.154  0.8486  0.2584 -0.3985
16238TIP3    H170205   1.982   0.094  15.228  0.7175  0.9015 -0.5370
16238TIP3    H270206   2.060  -0.004  15.143 -0.0400  0.0672 -0.2859
16239TIP3   OH270207   5.002   6.506  12.907 -0.1174  0.3700  0.2954
16239TIP3    H170208   4.988   6.532  12.998 -0.2713 -0.5221  0.5362
16239TIP3    H270209   4.986   6.411  12.907 -1.7202  0.6102 -0.9752
16240TIP3   OH270210   3.603   4.957  11.970 -0.4776  0.4494 -0.1137
16240TIP3    H170211   3.626   4.941  11.879 -1.4961 -1.1639 -0.1223
16240TIP3    H270212   3.561   5.043  11.969  1.4147  1.4198 -0.7830
16241TIP3   OH270213   0.345   3.258  15.332 -0.6087 -0.1934  0.5965
16241TIP3    H170214   0.320   3.203  15.406 -0.1063  0.3519  1.1864
16241TIP3    H270215   0.344   3.199  15.257 -1.7814 -0.6017  0.9173
16242TIP3   OH270216   1.119   6.160   4.436 -0.6091  0.1467 -0.5509
16242TIP3    H170217   1.138   6.102   4.363 -1.5723  0.3773 -1.0031
16242TIP3    H270218   1.072   6.234   4.397 -1.8920 -0.1277  0.3939
16243TIP3   OH270219   2.286   0.445   2.326 -0.0414  0.1730  0.1380
16243TIP3    H170220   2.272   0.488   2.242  2.5891 -1.5497 -1.3466
16243TIP3    H270221   2.375   0.471   2.352  0.0994 -1.1846  1.1600
16244TIP3   OH270222   5.245   1.947   2.924  0.2910  0.5336  0.1464
16244TIP3    H170223   5.194   1.866   2.922  0.9704  0.1084 -0.7264
16244TIP3    H270224   5.195   2.009   2.871  0.1997  0.4210  0.1008
16245TIP3   OH270225   5.095   2.865  11.043  0.0536  0.5001  0.6087
16245TIP3    H170226   5.002   2.845  11.047 -0.0099  0.6928  0.1697
16245TIP3    H270227   5.109   2.896  10.954  0.7663 -0.6404  0.3116
16246TIP3   OH270228   6.211   3.693   3.694 -0.1137  0.1353 -0.3059
16246TIP3    H170229   6.200   3.757   3.764  0.6641  1.2406 -1.1716
16246TIP3    H270230   6.124   3.654   3.684 -0.1372 -0.3732  1.5518
16247TIP3   OH270231   1.884   1.593  17.145  0.0893 -0.3684  0.6158
16247TIP3    H170232   1.886   1.500  17.167 -1.0390 -0.1042  2.0243
16247TIP3    H270233   1.819   1.630  17.206  1.6375  1.5866  1.1785
16248TIP3   OH270234   4.547   1.319  11.937 -0.3301 -0.2340 -0.8260
16248TIP3    H170235   4.508   1.268  11.866 -1.2187  0.8348 -1.1442
16248TIP3    H270236   4.640   1.300  11.931 -0.5130 -0.9743 -1.6124
16249TIP3   OH270237   3.401   2.621   2.216  0.0297  0.1019 -0.1555
16249TIP3    H170238   3.450   2.589   2.291 -0.4340  2.4570  1.2444
16249TIP3    H270239   3.466   2.670   2.164 -0.6875  3.4808  1.8550
16250TIP3   OH270240   0.963   2.662   2.407 -0.1247 -0.3256  0.2795
16250TIP3    H170241   0.871   2.638   2.416 -0.0424 -0.3933  0.9603
16250TIP3    H270242   0.984   2.712   2.485  0.2200  0.3513 -0.2307
16251TIP3   OH270243   2.233   5.765   3.663  0.4009  1.0446 -0.4523
16251TIP3    H170244   2.284   5.745   3.742  0.4863  0.0495 -0.7396
16251TIP3    H270245   2.295   5.751   3.591  0.0254  0.8928 -0.7493
16252TIP3   OH270246   5.219   0.159   3.649  0.2570 -0.0125  0.1355
16252TIP3    H170247   5.243   0.152   3.742 -0.7958  0.6116  0.4684
16252TIP3    H270248   5.139   0.107   3.641  0.4857 -0.2773 -0.4882
16253TIP3   OH270249   1.509   3.940   2.467 -0.0520 -0.4043 -0.1453
16253TIP3    H170250   1.521   4.030   2.436 -1.6741 -0.5824 -1.4947
16253TIP3    H270251   1.571   3.889   2.415  0.4508 -0.1534  0.1969
16254TIP3   OH270252   3.075   5.589  10.898 -0.7111 -0.0245 -0.3447
16254TIP3    H170253   3.011   5.660  10.899 -0.9645 -0.2433  1.6132
16254TIP3    H270254   3.117   5.597  10.812 -1.7989  1.5126 -0.7838
16255TIP3   OH270255   1.759   5.318   3.010 -0.0391  0.2518  0.8697
16255TIP3    H170256   1.809   5.312   2.929 -0.6937 -0.6733  0.5090
16255TIP3    H270257   1.782   5.403   3.047  2.2988 -0.3956  1.0652
16256TIP3   OH270258   0.083   6.284   0.042  0.3635 -0.3150  0.5479
16256TIP3    H170259   0.002   6.273   0.093  0.4884  0.9272  1.0652
16256TIP3    H270260   0.067   6.361  -0.011  1.3149  0.1344  0.8887
16257TIP3   OH270261   5.661   5.378   6.674 -0.4033 -0.4261 -0.5083
16257TIP3    H170262   5.723   5.445   6.702  0.0319 -1.3723  0.9194
16257TIP3    H270263   5.578   5.404   6.714 -0.3987 -0.3580 -0.5431
16258TIP3   OH270264   6.762   5.047   0.171  0.4010 -0.6126  0.3723
16258TIP3    H170265   6.734   4.996   0.094  0.6334 -1.2831  0.7314
16258TIP3    H270266   6.786   4.982   0.236  1.3360 -0.0371  0.6134
16259TIP3   OH270267   0.670   0.279   1.437 -0.2383  0.1046  0.3017
16259TIP3    H170268   0.670   0.343   1.508  2.5963  2.1212 -1.2855
16259TIP3    H270269   0.621   0.321   1.367  2.6202  1.2716 -1.1683
16260TIP3   OH270270   3.148   5.528   4.353 -0.1196  0.2502  0.3715
16260TIP3    H170271   3.152   5.438   4.321 -1.0011  0.2148  0.3507
16260TIP3    H270272   3.215   5.532   4.422 -0.3552 -0.5282  0.6534
16261TIP3   OH270273   0.423   0.408  12.645  0.0265  0.3404  0.2909
16261TIP3    H170274   0.389   0.460  12.717 -1.2888  2.6541 -1.8553
16261TIP3    H270275   0.382   0.444  12.566  1.0340 -2.3173 -1.6400
16262TIP3   OH270276   6.276   0.521  15.367  0.0856  0.5003  0.1379
16262TIP3    H170277   6.325   0.507  15.448  0.7740  0.9485 -0.1943
16262TIP3    H270278   6.297   0.445  15.313 -1.6091 -0.6074  0.9516
16263TIP3   OH270279   1.600   6.219  11.836 -0.3089 -0.1048  0.1683
16263TIP3    H170280   1.674   6.229  11.776 -0.2589 -0.4614  0.1674
16263TIP3    H270281   1.591   6.305  11.877  2.6741 -0.9667  3.1024
16264TIP3   OH270282   6.782   5.401  15.077  0.2044  0.0461  0.6252
16264TIP3    H170283   6.795   5.345  15.154 -2.3351  2.0337  2.7041
16264TIP3    H270284   6.842   5.475  15.091 -0.5470  0.6077  0.9435
16265TIP3   OH270285   0.273   3.434  13.149 -0.0527  0.6978 -0.2148
16265TIP3    H170286   0.258   3.428  13.243  1.6898 -1.4779  0.0081
16265TIP3    H270287   0.194   3.396  13.109 -1.5212  3.0880  0.2138
16266TIP3   OH270288   1.418   4.481   1.480 -0.1091 -0.3624 -0.2881
16266TIP3    H170289   1.446   4.403   1.527  0.0782 -0.9571 -1.3431
16266TIP3    H270290   1.414   4.454   1.388 -1.9257  0.3215 -0.4664
16267TIP3   OH270291   0.152   4.147   6.037  0.2036  0.1453  0.0782
16267TIP3    H170292   0.153   4.179   6.128 -0.0375 -1.0650  0.5231
16267TIP3    H270293   0.244   4.146   6.011  0.4409 -0.9532  0.8583
16268TIP3   OH270294   6.298   2.483   3.663  0.6800 -0.4002 -0.1725
16268TIP3    H170295   6.212   2.443   3.657  0.8960 -0.7886 -0.8945
16268TIP3    H270296   6.359   2.409   3.661  1.0498 -0.0942 -0.4582
16269TIP3   OH270297   4.250   4.100   3.349 -0.3695 -0.0529 -0.2588
16269TIP3    H170298   4.198   4.142   3.418 -0.3216  1.5742 -1.1599
16269TIP3    H270299   4.332   4.149   3.348  0.1124 -0.8499 -0.6748
16270TIP3   OH270300   1.498   4.053  10.299 -0.6422  0.2427  0.3080
16270TIP3    H170301   1.514   4.001  10.220 -0.4686 -0.1436  0.5885
16270TIP3    H270302   1.584   4.091  10.320 -0.9122  1.1889 -0.2713
16271TIP3   OH270303   3.807   6.335  13.652  0.2977  0.3100 -0.4501
16271TIP3    H170304   3.859   6.271  13.603  0.4304  1.3721 -1.7594
16271TIP3    H270305   3.868   6.374  13.714  0.5787  0.1764 -0.6442
16272TIP3   OH270306   6.327   4.991   5.877 -0.3016 -0.2291 -0.6419
16272TIP3    H170307   6.378   4.997   5.957  2.1588 -0.7192 -2.0549
16272TIP3    H270308   6.347   5.072   5.830 -0.0061 -0.8612 -1.6435
16273TIP3   OH270309   5.356   4.024  14.712 -0.3528  0.4157 -0.2157
16273TIP3    H170310   5.308   3.985  14.785 -0.4114  0.3828 -0.2718
16273TIP3    H270311   5.407   3.952  14.675  0.5583  0.6780  0.4994
16274TIP3   OH270312   1.795   5.378  14.971 -0.0806 -0.0398 -0.8520
16274TIP3    H170313   1.816   5.465  15.005  1.2763 -0.5080 -0.4241
16274TIP3    H270314   1.813   5.384  14.877  0.4095  0.0294 -0.7569
16275TIP3   OH270315   5.863   0.888   2.357  0.3286  0.1836  0.1603
16275TIP3    H170316   5.925   0.829   2.312  0.0294  0.6295 -0.8721
16275TIP3    H270317   5.880   0.974   2.318 -0.3142  0.4779  0.5291
16276TIP3   OH270318   0.044   6.412   1.980  0.0691 -0.0467  0.0935
16276TIP3    H170319   0.112   6.404   1.913 -0.8130 -1.3898 -0.6747
16276TIP3    H270320   0.065   6.344   2.044  1.0009  1.3262  1.3517
16277TIP3   OH270321   3.984   2.780  16.263 -0.1896 -0.0769  0.0375
16277TIP3    H170322   3.893   2.801  16.242 -0.7457 -2.3713 -0.1323
16277TIP3    H270323   3.978   2.707  16.324  1.5563 -0.3249 -0.0417
16278TIP3   OH270324   5.670   6.732   3.663  0.2114 -0.0771 -0.8043
16278TIP3    H170325   5.708   6.777   3.738  0.2455 -1.3809 -0.0117
16278TIP3    H270326   5.657   6.801   3.598 -1.3386  1.3932  0.9563
16279TIP3   OH270327   3.554   5.905  13.825  0.2602 -0.0480 -0.0035
16279TIP3    H170328   3.473   5.860  13.849 -0.2074  0.4997 -0.5206
16279TIP3    H270329   3.603   5.840  13.773  0.2450 -0.4421  0.4699
16280TIP3   OH270330   2.041   2.764   1.141 -0.1416  0.1777  0.1421
16280TIP3    H170331   2.001   2.722   1.064  0.3510  0.7306 -0.4272
16280TIP3    H270332   1.979   2.746   1.212 -0.8586  0.0773 -0.4845
16281TIP3   OH270333   5.035   3.096  16.248 -0.6745  0.0802  0.2501
16281TIP3    H170334   4.991   3.017  16.280 -0.8469 -0.0185 -0.2096
16281TIP3    H270335   5.095   3.120  16.318  0.4985 -1.3595 -0.2089
16282TIP3   OH270336   2.822   6.215   3.756  0.1315 -0.5517  0.6880
16282TIP3    H170337   2.870   6.297   3.765 -1.7901  0.5450  1.4474
16282TIP3    H270338   2.789   6.196   3.844 -0.1709 -1.6849  0.3501
16283TIP3   OH270339   4.662   0.561   5.319 -0.4028 -0.4045 -0.1122
16283TIP3    H170340   4.723   0.496   5.354 -1.7098 -2.3757 -1.3175
16283TIP3    H270341   4.628   0.607   5.396  0.0255 -1.6344  0.8389
16284TIP3   OH270342   4.443   0.393   6.172 -0.2346  0.4445  0.3460
16284TIP3    H170343   4.493   0.337   6.231  0.3831  0.1664 -0.4254
16284TIP3    H270344   4.440   0.478   6.217  0.5148  0.3309  0.6228
16285TIP3   OH270345   5.232   6.055   0.019  0.1214  0.3614 -0.5062
16285TIP3    H170346   5.300   6.026   0.079  1.2185  1.6687 -1.0735
16285TIP3    H270347   5.263   6.031  -0.068 -1.5022 -1.5978 -0.6188
16286TIP3   OH270348   6.792   5.140   1.347  0.3588 -0.9389 -0.0204
16286TIP3    H170349   6.768   5.231   1.366 -1.2558 -1.0165 -1.4384
16286TIP3    H270350   6.809   5.101   1.433 -0.9207  0.1680  0.7702
16287TIP3   OH270351   1.936   0.693  16.312 -0.6454  0.7498  0.3054
16287TIP3    H170352   1.883   0.706  16.391  0.3785  0.1380  1.1205
16287TIP3    H270353   1.976   0.607  16.323 -0.5369  0.6161 -0.9283
16288TIP3   OH270354   0.541   3.054  14.587  0.1882  0.6170 -0.1703
16288TIP3    H170355   0.549   3.149  14.579 -0.3314  0.7329  0.5993
16288TIP3    H270356   0.631   3.022  14.584  0.5709  1.3463  1.9205
16289TIP3   OH270357   5.891   4.824   3.838  0.1577  0.2341 -0.4026
16289TIP3    H170358   5.933   4.866   3.913  1.4327  0.8728 -1.4416
16289TIP3    H270359   5.809   4.872   3.828 -0.1261  0.0179  0.6782
16290TIP3   OH270360   0.416   6.654  15.016  0.6043 -0.2601 -0.0947
16290TIP3    H170361   0.432   6.566  15.051 -0.5785 -0.5332 -0.2078
16290TIP3    H270362   0.500   6.680  14.978  0.2483 -2.5117 -2.6860
16291TIP3   OH270363   2.650   0.047   5.436  0.1308  0.0040 -0.2485
16291TIP3    H170364   2.557   0.072   5.430  0.3473  0.4914 -2.6482
16291TIP3    H270365   2.689   0.112   5.494 -0.6154  1.2008 -1.0361
16292TIP3   OH270366   0.674   0.111   2.559 -0.4576  0.6889  0.1110
16292TIP3    H170367   0.700   0.110   2.467  1.1532  2.2426  0.5101
16292TIP3    H270368   0.721   0.184   2.597  0.8918 -1.3789  2.7525
16293TIP3   OH270369   1.924   3.023  13.556 -0.0171 -0.2742  0.3078
16293TIP3    H170370   1.875   2.959  13.503 -0.9412 -0.6410  1.5710
16293TIP3    H270371   1.866   3.043  13.630  1.5158 -0.2789  1.5530
16294TIP3   OH270372   3.155   5.146   6.268 -0.7675  0.2642  0.4528
16294TIP3    H170373   3.088   5.162   6.202  0.2285 -1.1031 -0.9697
16294TIP3    H270374   3.208   5.225   6.270  0.6978 -0.5286 -2.2934
16295TIP3   OH270375   3.932   0.309   5.372 -0.0146  0.3768 -0.6324
16295TIP3    H170376   3.857   0.324   5.430 -0.9091  0.3435 -1.7388
16295TIP3    H270377   4.009   0.316   5.429 -0.9085 -1.0222  0.8357
16296TIP3   OH270378   6.741   4.063  16.203  0.3777  0.1161  0.5118
16296TIP3    H170379   6.799   4.111  16.262  0.4643  1.4559 -0.6222
16296TIP3    H270380   6.795   4.046  16.126  0.3341 -1.8050  0.8661
16297TIP3   OH270381   4.251   5.658   1.896 -0.1576 -0.0884 -0.3533
16297TIP3    H170382   4.337   5.628   1.928 -0.2999  1.2888  1.4968
16297TIP3    H270383   4.271   5.704   1.814  0.6449 -1.1796 -0.7923
16298TIP3   OH270384   5.018   4.108  17.077  0.0354 -0.3075 -0.1985
16298TIP3    H170385   5.086   4.119  17.144  1.3965 -3.4722 -0.8400
16298TIP3    H270386   4.964   4.036  17.109  1.4704 -2.8098 -2.8301
16299TIP3   OH270387   2.849   0.244   4.966  0.4489  0.4899  0.4522
16299TIP3    H170388   2.906   0.306   4.921  1.6944 -1.7624 -1.2544
16299TIP3    H270389   2.908   0.174   4.995 -1.1738 -0.9650  0.3798
16300TIP3   OH270390   5.714   2.398  16.894 -0.1306 -0.7325 -0.6213
16300TIP3    H170391   5.760   2.471  16.935 -0.7525 -0.5523 -0.2163
16300TIP3    H270392   5.765   2.377  16.817  0.3863 -0.2577 -0.4141
16301TIP3   OH270393   3.410   1.977  14.339 -0.0432 -0.0742 -0.1402
16301TIP3    H170394   3.390   1.947  14.250  0.4210  0.2540 -0.3637
16301TIP3    H270395   3.450   1.901  14.381 -0.5807 -0.3387 -0.0983
16302TIP3   OH270396   4.345   2.737  11.076 -0.0637 -0.9759  0.0297
16302TIP3    H170397   4.284   2.732  11.002 -1.3725 -0.8926  1.0615
16302TIP3    H270398   4.296   2.701  11.150  1.0869 -0.7418  0.9409
16303TIP3   OH270399   0.682   2.986   6.794 -0.4816 -0.1846 -0.0974
16303TIP3    H170400   0.741   2.913   6.776 -3.0652 -2.5715  0.4107
16303TIP3    H270401   0.677   3.033   6.711  2.0175  0.1164 -0.1694
16304TIP3   OH270402   0.109   1.902   1.093 -0.1417 -0.2311 -0.4265
16304TIP3    H170403   0.112   1.993   1.122  0.8277 -0.3575 -0.1239
16304TIP3    H270404   0.023   1.871   1.123  1.0713 -0.5904  3.0679
16305TIP3   OH270405   1.892   1.292  17.170 -0.4841  0.2908 -0.3715
16305TIP3    H170406   1.864   1.248  17.090 -0.2087  0.8043 -0.7620
16305TIP3    H270407   1.835   1.258  17.238 -0.2351 -0.7132 -0.6442
16306TIP3   OH270408   3.285   5.381  10.716  0.3767  0.4352 -0.2477
16306TIP3    H170409   3.281   5.433  10.636  3.1769  0.4176 -0.4990
16306TIP3    H270410   3.244   5.298  10.693 -2.9753  1.9433 -0.2196
16307TIP3   OH270411   2.685   3.211   2.781 -0.4850  0.2039  0.3705
16307TIP3    H170412   2.726   3.187   2.698 -0.3552  2.6455 -0.3404
16307TIP3    H270413   2.745   3.179   2.848  0.2995 -0.2362 -0.5205
16308TIP3   OH270414   4.148   5.948  12.898  0.0045  0.8380 -0.6182
16308TIP3    H170415   4.196   5.866  12.883 -2.7317 -1.1442  0.5212
16308TIP3    H270416   4.115   5.940  12.988  1.6415  4.4105  0.4877
16309TIP3   OH270417   3.438   4.256   4.692  0.1015 -0.1864 -0.3478
16309TIP3    H170418   3.347   4.227   4.687 -1.1439  2.4650  3.1158
16309TIP3    H270419   3.477   4.201   4.760  0.4248  0.1806 -0.2347
16310TIP3   OH270420   2.685   4.069   0.279 -0.4199 -0.5941 -0.4185
16310TIP3    H170421   2.636   4.078   0.361  1.6802  2.4639  0.6655
16310TIP3    H270422   2.755   4.007   0.299 -0.6775 -0.8579 -0.3255
16311TIP3   OH270423   3.583   4.001  12.643 -0.1643 -0.3838  0.6335
16311TIP3    H170424   3.566   4.094  12.656 -0.6203 -0.1988 -1.0412
16311TIP3    H270425   3.497   3.962  12.631  0.1204 -0.2912 -2.7658
16312TIP3   OH270426   5.303   3.821  12.266 -0.8572 -0.2638  0.2418
16312TIP3    H170427   5.220   3.804  12.311 -1.3581 -1.6732 -1.1001
16312TIP3    H270428   5.279   3.828  12.173  0.0850  2.8985  0.1420
16313TIP3   OH270429   4.454   5.595  14.861  0.1892 -0.4121 -0.0613
16313TIP3    H170430   4.367   5.632  14.879  0.6140  0.7496 -0.3038
16313TIP3    H270431   4.515   5.664  14.887  1.0248 -1.0213 -0.3710
16314TIP3   OH270432   3.306   3.451  16.465  0.6610 -0.1645  0.2537
16314TIP3    H170433   3.314   3.356  16.468 -0.5910 -0.2837  0.3474
16314TIP3    H270434   3.247   3.467  16.391  0.9202  0.5360  0.1977
16315TIP3   OH270435   3.821   0.730  17.188  0.0508 -0.0843 -0.2539
16315TIP3    H170436   3.793   0.795  17.253  1.0259  0.4023 -0.3151
16315TIP3    H270437   3.800   0.645  17.229 -2.1026  0.2314 -0.5635
16316TIP3   OH270438   1.961   3.828  12.675 -0.5661  0.0185  0.0162
16316TIP3    H170439   2.023   3.755  12.683 -1.2366 -0.5038  0.6506
16316TIP3    H270440   1.934   3.827  12.583  2.2330  1.8617 -0.9436
16317TIP3   OH270441   6.050   0.686   0.092  0.0294  0.4344  0.0400
16317TIP3    H170442   6.032   0.653   0.180 -1.4463  2.6148  0.6259
16317TIP3    H270443   5.988   0.640   0.035 -0.0792  0.1730  0.3693
16318TIP3   OH270444   2.263   4.141   1.623  0.4911 -0.0690  0.0732
16318TIP3    H170445   2.356   4.136   1.643  0.2829 -0.8062  0.9115
16318TIP3    H270446   2.243   4.059   1.577 -0.0247 -0.5775  1.1659
16319TIP3   OH270447   6.642   3.316   5.375  0.1758 -0.3724  0.2398
16319TIP3    H170448   6.696   3.358   5.442  1.6842 -0.1644 -1.0326
16319TIP3    H270449   6.691   3.237   5.352 -0.1612 -0.2875 -0.7941
16320TIP3   OH270450   1.554   2.400  15.716  0.0607 -0.1607 -1.0548
16320TIP3    H170451   1.531   2.316  15.678 -1.0509  0.6254 -2.1939
16320TIP3    H270452   1.578   2.380  15.807 -4.1621 -1.2301  0.0283
16321TIP3   OH270453   2.556   4.254   2.672  0.7044  0.9784  0.5255
16321TIP3    H170454   2.576   4.177   2.618  0.5190  1.7196 -0.6326
16321TIP3    H270455   2.626   4.316   2.652  0.4636  1.3836  0.9109
16322TIP3   OH270456   6.627   2.028   7.052 -0.3688  0.5333  0.2200
16322TIP3    H170457   6.564   2.020   7.124 -0.4109 -0.1517  0.1151
16322TIP3    H270458   6.573   2.037   6.974 -0.3213  2.1580  0.3516
16323TIP3   OH270459   4.106   4.711  13.170 -0.2113 -0.2800  0.0907
16323TIP3    H170460   4.062   4.626  13.162  0.2978 -0.7403  1.6945
16323TIP3    H270461   4.048   4.772  13.125 -1.3634 -1.2382  0.2154
16324TIP3   OH270462   2.839   3.568  15.248 -0.3894 -0.0803 -0.4276
16324TIP3    H170463   2.752   3.546  15.214  0.0976 -0.8736 -1.2002
16324TIP3    H270464   2.871   3.487  15.287 -0.6488  0.6344  1.3436
16325TIP3   OH270465   4.579   3.067  10.789  0.6084 -0.1915 -0.2656
16325TIP3    H170466   4.635   3.115  10.727 -0.7482  2.2214  0.2276
16325TIP3    H270467   4.522   3.014  10.735  1.2559 -0.2148 -0.9372
16326TIP3   OH270468   1.488   0.516  13.208  0.1317  0.0857  0.1769
16326TIP3    H170469   1.573   0.549  13.179  0.0890 -1.1901 -1.5031
16326TIP3    H270470   1.505   0.426  13.236 -0.6349 -0.1241 -0.0136
16327TIP3   OH270471   2.879   2.342  14.489  0.0922  0.3614 -0.5893
16327TIP3    H170472   2.942   2.323  14.420  0.6168  1.1309 -0.3376
16327TIP3    H270473   2.929   2.339  14.570 -0.6295 -1.0625 -0.1629
16328TIP3   OH270474   0.393   2.543   3.856 -0.7475 -0.2093 -0.4436
16328TIP3    H170475   0.354   2.470   3.808 -0.7865 -1.0063  0.7313
16328TIP3    H270476   0.462   2.502   3.908  0.5340  0.9164 -1.2072
16329TIP3   OH270477   5.701   5.728   3.676 -0.7249 -0.1348  0.3625
16329TIP3    H170478   5.741   5.642   3.689  0.9111  0.6735  0.9758
16329TIP3    H270479   5.666   5.725   3.587  1.0882 -0.7856 -0.3899
16330TIP3   OH270480   5.756   1.607  12.289 -0.4457  0.6322  0.7204
16330TIP3    H170481   5.836   1.583  12.242 -1.2743  1.6024 -1.2913
16330TIP3    H270482   5.762   1.701  12.301 -1.7068  0.8738 -0.3348
16331TIP3   OH270483   6.187   0.193   5.385  0.3083  0.2940  0.1777
16331TIP3    H170484   6.109   0.209   5.438  0.7863  0.1216  0.9489
16331TIP3    H270485   6.185   0.261   5.319 -0.7408  0.0234 -0.0997
16332TIP3   OH270486   4.188   2.956   4.753  0.0144  0.3118  0.0548
16332TIP3    H170487   4.118   3.016   4.778  0.2961  0.1182  1.3751
16332TIP3    H270488   4.262   3.013   4.731  0.1526  0.4778  0.9107
16333TIP3   OH270489   5.199   3.597  11.337  0.6295 -0.2815 -0.2569
16333TIP3    H170490   5.127   3.559  11.287 -0.2340 -1.1864  1.5772
16333TIP3    H270491   5.228   3.526  11.395  2.3039  0.3862 -0.2271
16334TIP3   OH270492   1.702   3.916   1.577 -0.0423  0.2427  0.2893
16334TIP3    H170493   1.688   3.833   1.531 -1.6814  0.9888 -0.6205
16334TIP3    H270494   1.701   3.982   1.508  0.9890  1.0675  1.0381
16335TIP3   OH270495   6.743   3.058   4.768  0.1127 -0.1062  0.0832
16335TIP3    H170496   6.780   2.987   4.715  0.6187 -0.9167  1.4746
16335TIP3    H270497   6.707   3.119   4.703  0.7648 -1.0128 -1.1954
16336TIP3   OH270498   5.960   3.437  16.648  0.3378  0.1840 -1.0471
16336TIP3    H170499   5.963   3.450  16.742 -2.0782 -2.4448 -0.4703
16336TIP3    H270500   6.012   3.358  16.633 -1.7921 -1.2496 -1.3699
16337TIP3   OH270501   4.292   2.579  13.933 -0.4998  0.0591 -0.2769
16337TIP3    H170502   4.349   2.651  13.960  0.2318 -0.0328 -1.4807
16337TIP3    H270503   4.347   2.501  13.943 -0.3590 -0.0240 -1.5147
16338TIP3   OH270504   1.972   4.647   1.568  0.0455 -0.0888  0.1024
16338TIP3    H170505   1.921   4.636   1.488 -1.3185 -0.4079  0.9896
16338TIP3    H270506   2.032   4.572   1.569 -0.0856 -0.2065 -0.4862
16339TIP3   OH270507   5.907   1.829  13.817 -0.2287  0.7902 -0.1754
16339TIP3    H170508   5.829   1.813  13.764  1.1792 -2.8433 -1.4267
16339TIP3    H270509   5.978   1.836  13.754  1.1269 -1.0501  1.0659
16340TIP3   OH270510   2.446   6.370  16.313 -0.3538 -0.7117 -0.0531
16340TIP3    H170511   2.455   6.334  16.225  2.3246  0.8130 -0.4975
16340TIP3    H270512   2.442   6.465  16.300 -1.4029 -0.5193  1.4101
16341TIP3   OH270513   0.454   2.388  14.440  0.2263  0.1580 -0.1354
16341TIP3    H170514   0.361   2.368  14.436  0.2616  0.1250 -1.7646
16341TIP3    H270515   0.490   2.345  14.362  1.6646 -0.1223  0.6503
16342TIP3   OH270516   4.065   3.608  13.445 -0.3912 -0.2813 -0.5065
16342TIP3    H170517   4.120   3.669  13.395 -1.1867 -0.0027 -1.0621
16342TIP3    H270518   4.122   3.576  13.514  0.8815 -0.9910 -1.8222
16343TIP3   OH270519   1.388   6.077   2.991 -0.0108  0.1744 -0.0156
16343TIP3    H170520   1.371   5.993   2.949 -1.1115  0.2918  0.1665
16343TIP3    H270521   1.330   6.079   3.067 -1.9429  2.1385 -1.4136
16344TIP3   OH270522   0.864   1.545  16.372  0.0167  0.6286 -0.0160
16344TIP3    H170523   0.780   1.590  16.362 -1.4279 -1.6765  1.0412
16344TIP3    H270524   0.915   1.602  16.431 -0.7678  2.0411 -0.6574
16345TIP3   OH270525   5.491   5.541  14.616 -0.2541 -0.0061 -0.6490
16345TIP3    H170526   5.554   5.533  14.687 -0.6653 -0.3149 -0.3091
16345TIP3    H270527   5.507   5.627  14.578  2.1345 -1.0675 -2.2745
16346TIP3   OH270528   2.794   2.203   2.594 -0.1871 -0.2928 -0.0605
16346TIP3    H170529   2.739   2.173   2.666 -0.2818 -1.7309 -0.7060
16346TIP3    H270530   2.770   2.147   2.520  1.8996 -0.7608 -0.4474
16347TIP3   OH270531   1.481   3.616  10.907 -0.1458  0.1542 -0.2657
16347TIP3    H170532   1.529   3.673  10.848  1.5842 -0.8289  0.1296
16347TIP3    H270533   1.484   3.530  10.866  0.1035 -0.3083  0.6794
16348TIP3   OH270534   6.324   0.511   0.159  0.4641  0.1301 -0.0077
16348TIP3    H170535   6.335   0.595   0.113  2.3785  0.1207  0.3559
16348TIP3    H270536   6.413   0.476   0.167 -0.2620 -1.7979  0.1467
16349TIP3   OH270537   1.435   1.756   5.339  0.3047  0.3821 -0.0317
16349TIP3    H170538   1.499   1.817   5.377 -1.1723  0.4054  2.6671
16349TIP3    H270539   1.376   1.736   5.411  0.2586 -3.7246 -0.9963
16350TIP3   OH270540   5.528   4.750  13.356 -0.7441  0.0128  0.3974
16350TIP3    H170541   5.566   4.662  13.347  0.0747  0.4764 -1.0432
16350TIP3    H270542   5.464   4.755  13.285  0.7849  1.3078 -0.9854
16351TIP3   OH270543   2.066   2.590   3.762  0.4645  0.1534  0.0502
16351TIP3    H170544   2.135   2.561   3.702 -0.0246  0.6169 -0.7634
16351TIP3    H270545   2.112   2.620   3.840  1.2874  1.5925 -0.9396
16352TIP3   OH270546   4.136   5.802  11.130 -0.0708 -0.2140  0.0457
16352TIP3    H170547   4.067   5.825  11.068 -1.1862  2.3521  2.0629
16352TIP3    H270548   4.217   5.830  11.087 -0.8403  1.7670 -0.1987
16353TIP3   OH270549   4.384   2.778  16.533 -0.7388  0.4226 -0.3575
16353TIP3    H170550   4.374   2.811  16.444 -2.0831 -0.4394 -0.5543
16353TIP3    H270551   4.315   2.821  16.583 -0.7935 -0.0460 -0.0204
16354TIP3   OH270552   5.896   5.560   0.217  0.3694 -0.1235 -0.1282
16354TIP3    H170553   5.922   5.469   0.200  0.9591 -0.0243  0.2456
16354TIP3    H270554   5.828   5.577   0.151  0.5973 -0.6740 -0.5202
16355TIP3   OH270555   5.386   1.353   4.344  0.1685  0.2131 -0.4658
16355TIP3    H170556   5.357   1.262   4.333  3.3059 -1.0408  0.4935
16355TIP3    H270557   5.432   1.373   4.262 -0.4786  0.9343 -0.6536
16356TIP3   OH270558   5.988   4.055   4.029 -0.0934  0.7249 -0.4692
16356TIP3    H170559   5.977   4.094   3.942  1.5687  2.9438  0.2292
16356TIP3    H270560   5.941   3.972   4.024 -1.4301  1.5246 -2.9652
16357TIP3   OH270561   4.876   6.631  16.373 -0.3265  0.5918  0.1077
16357TIP3    H170562   4.873   6.603  16.281 -1.0576  1.4226 -0.1333
16357TIP3    H270563   4.946   6.578  16.412 -0.8750 -0.7050 -0.6145
16358TIP3   OH270564   2.170   4.494  14.380  0.0605 -0.1150 -0.4264
16358TIP3    H170565   2.245   4.474  14.435  0.8897 -2.8098 -2.3981
16358TIP3    H270566   2.120   4.413  14.376 -1.3904  0.7769 -1.5580
16359TIP3   OH270567   5.008   1.293   2.761  0.4189 -0.2261 -0.2915
16359TIP3    H170568   4.929   1.336   2.727  0.2411  0.2988  0.7495
16359TIP3    H270569   4.980   1.203   2.779  0.1191 -0.1048 -0.1417
16360TIP3   OH270570   4.659   6.388   3.096  0.5319  0.1975 -0.3174
16360TIP3    H170571   4.627   6.477   3.114  3.0456  0.8739  1.3839
16360TIP3    H270572   4.749   6.401   3.067  1.1811 -1.8297  0.6496
16361TIP3   OH270573   5.883   2.398  15.491  0.1500 -0.4570  0.2497
16361TIP3    H170574   5.958   2.458  15.489  0.6218 -1.0629 -0.8329
16361TIP3    H270575   5.904   2.331  15.427 -1.3838 -0.5862 -0.1513
16362TIP3   OH270576   0.625   2.806  13.465  0.2485 -0.1693  0.4893
16362TIP3    H170577   0.559   2.837  13.527  0.9436  0.3557  0.9839
16362TIP3    H270578   0.576   2.754  13.401 -0.5369 -0.3616  1.2371
16363TIP3   OH270579   3.319   4.826  12.396  0.1391 -0.2851  0.1395
16363TIP3    H170580   3.292   4.787  12.313  0.5015 -1.6773  0.6613
16363TIP3    H270581   3.239   4.867  12.429 -0.7210 -2.1198  0.4196
16364TIP3   OH270582   0.198   2.319  11.225 -0.1697 -0.4015  0.4887
16364TIP3    H170583   0.221   2.382  11.157  0.4631 -0.5524  0.5579
16364TIP3    H270584   0.184   2.237  11.178 -2.1587  0.0221  0.2481
16365TIP3   OH270585   4.937   5.341   4.935  0.4636  0.3519 -0.5482
16365TIP3    H170586   4.900   5.338   4.847 -1.2985  0.0908  0.1685
16365TIP3    H270587   4.946   5.434   4.955 -1.3739  0.4773 -0.1398
16366TIP3   OH270588   2.807   4.640   1.716  0.2493  0.8227  0.2986
16366TIP3    H170589   2.824   4.655   1.809  2.7254  1.0554 -0.1125
16366TIP3    H270590   2.804   4.545   1.707 -0.0513  0.8002  0.6298
16367TIP3   OH270591   4.128   2.485  14.910 -0.5787 -0.0382 -0.0391
16367TIP3    H170592   4.206   2.539  14.922 -0.3797 -0.3149 -0.0636
16367TIP3    H270593   4.056   2.537  14.946 -0.0062 -0.8733  2.5199
16368TIP3   OH270594   6.325   0.094   1.478  0.3415  0.2157  0.0815
16368TIP3    H170595   6.338   0.163   1.413 -0.7777  0.5553  0.1911
16368TIP3    H270596   6.229   0.087   1.486  0.4533 -0.6754  0.7856
16369TIP3   OH270597   0.567   2.450   4.028 -0.5442 -0.2644 -0.1711
16369TIP3    H170598   0.561   2.392   4.104  1.2316  1.4799  1.4313
16369TIP3    H270599   0.605   2.531   4.063  2.0013  0.0380 -3.2259
16370TIP3   OH270600   0.086   3.778  13.711  0.0823 -0.3390  0.1797
16370TIP3    H170601   0.044   3.862  13.731 -1.4862 -1.1127  0.2768
16370TIP3    H270602   0.139   3.796  13.634 -1.9560  0.2579 -1.1588
16371TIP3   OH270603   1.752   3.257  11.452  0.1410 -0.5363  0.0144
16371TIP3    H170604   1.781   3.182  11.503  0.3389 -1.5295 -1.4770
16371TIP3    H270605   1.722   3.321  11.516  1.9964 -1.0130  1.4382
16372TIP3   OH270606   4.281   5.414   0.365 -0.1392  0.3909 -0.1911
16372TIP3    H170607   4.192   5.436   0.338 -0.3463  1.3128  1.1572
16372TIP3    H270608   4.274   5.397   0.459  0.6889 -1.9649 -0.4894
16373TIP3   OH270609   0.621   0.222   5.421  0.0003  0.0353 -0.1476
16373TIP3    H170610   0.660   0.307   5.440  1.1403 -0.2598 -1.0478
16373TIP3    H270611   0.616   0.219   5.325  3.5090 -2.3338 -0.4535
16374TIP3   OH270612   1.808   3.470  14.795  1.0713  0.4813  0.0486
16374TIP3    H170613   1.824   3.407  14.866 -2.6912  1.0971  1.6975
16374TIP3    H270614   1.771   3.417  14.724  1.2775  0.3590  0.0327
16375TIP3   OH270615   5.493   1.316   1.377  0.0689  0.5937 -0.5183
16375TIP3    H170616   5.550   1.389   1.353  0.0306  0.5571 -0.7235
16375TIP3    H270617   5.410   1.357   1.403 -0.2785  0.5772 -1.5634
16376TIP3   OH270618   5.193   5.349   4.289  0.1950  0.1281  0.0133
16376TIP3    H170619   5.136   5.388   4.355 -0.9180  0.8135 -1.3005
16376TIP3    H270620   5.249   5.288   4.338 -0.9936  0.1742  1.4835
16377TIP3   OH270621   0.654   5.432  16.015  0.5724  0.4319 -0.6738
16377TIP3    H170622   0.609   5.510  16.047 -0.5111 -0.6812  0.6569
16377TIP3    H270623   0.746   5.460  16.005  0.4297  1.5911  0.8318
16378TIP3   OH270624   1.068   0.284   1.706 -0.0030 -0.3054 -0.2954
16378TIP3    H170625   1.151   0.239   1.723  1.1362  1.3855 -1.0315
16378TIP3    H270626   1.032   0.301   1.793  1.6683  1.0549  0.1907
16379TIP3   OH270627   5.283   0.774  14.442  0.1865  0.1772  0.7715
16379TIP3    H170628   5.195   0.780  14.480 -0.8630 -2.5081 -0.9827
16379TIP3    H270629   5.319   0.692  14.476  0.4850 -0.6627 -1.4288
16380TIP3   OH270630   0.217   3.600   4.772 -0.0485  0.3999 -0.3222
16380TIP3    H170631   0.185   3.614   4.861 -0.3190  1.2504 -0.5475
16380TIP3    H270632   0.305   3.639   4.771  1.1522 -2.0643  0.3412
16381TIP3   OH270633   4.705   1.654  16.598 -0.3729  0.1671 -0.5062
16381TIP3    H170634   4.729   1.564  16.581  0.9157  0.5278 -0.6690
16381TIP3    H270635   4.612   1.650  16.620  0.2808 -1.6524  2.6730
16382TIP3   OH270636   4.852   5.608   6.300 -0.5258 -0.0108  0.0585
16382TIP3    H170637   4.931   5.563   6.330  1.0266  2.4199 -0.1366
16382TIP3    H270638   4.841   5.579   6.209  0.8250  0.4184 -0.2705
16383TIP3   OH270639   6.247   6.436  14.297  0.1195 -0.0040 -0.4644
16383TIP3    H170640   6.163   6.483  14.302  0.4003  0.4336  0.3410
16383TIP3    H270641   6.306   6.499  14.256 -0.0346 -0.4489 -1.3741
16384TIP3   OH270642   2.449   4.935   3.486  0.1397  0.2595  0.5162
16384TIP3    H170643   2.382   4.973   3.542 -0.4325  0.3895 -0.2351
16384TIP3    H270644   2.404   4.916   3.404  0.7660 -0.6789  0.3698
16385TIP3   OH270645   2.194   3.414  14.480 -0.1141 -0.0632  0.3509
16385TIP3    H170646   2.270   3.447  14.432 -1.6493 -0.1347 -2.3743
16385TIP3    H270647   2.227   3.394  14.567  2.3319  2.5558  0.1660
16386TIP3   OH270648   1.367   3.015  12.683 -0.0238 -0.2028  0.5098
16386TIP3    H170649   1.373   2.953  12.756  2.1067  1.0405  1.4622
16386TIP3    H270650   1.380   3.101  12.722 -1.3939  0.7689 -1.0083
16387TIP3   OH270651   5.382   2.460   2.611 -0.3138 -0.5431  0.1682
16387TIP3    H170652   5.345   2.381   2.651 -0.4032 -0.8928 -0.5867
16387TIP3    H270653   5.429   2.428   2.534  1.9249 -0.1592  1.2800
16388TIP3   OH270654   6.806   6.068  16.017 -0.3089  0.7246 -0.1141
16388TIP3    H170655   6.733   6.043  15.960 -0.6036  0.0484  0.5586
16388TIP3    H270656   6.882   6.024  15.980 -0.7033 -0.6483  0.6688
16389TIP3   OH270657   3.813   0.733  12.517  0.1603  0.0345 -0.1542
16389TIP3    H170658   3.769   0.772  12.442  1.2643  0.6268 -0.5131
16389TIP3    H270659   3.796   0.639  12.510 -0.2049  0.1525 -0.8368
16390TIP3   OH270660   6.625   0.405   0.790 -0.2245 -0.7810 -0.3304
16390TIP3    H170661   6.552   0.431   0.847  0.3140 -0.1130  0.0667
16390TIP3    H270662   6.672   0.486   0.773  0.4653 -1.2180 -0.5380
16391TIP3   OH270663   1.827   5.538   0.520  0.0594 -0.2434 -0.5405
16391TIP3    H170664   1.732   5.532   0.512 -0.0473  1.0650 -0.5252
16391TIP3    H270665   1.841   5.596   0.596  0.9151 -2.3359  1.0070
16392TIP3   OH270666   4.983   2.698   4.131  0.1527  0.5997 -0.6656
16392TIP3    H170667   5.050   2.759   4.099  0.6366  0.4056 -0.0393
16392TIP3    H270668   5.002   2.615   4.088 -1.0741  1.0967 -2.2519
16393TIP3   OH270669   3.558   6.716   2.714 -0.2442  0.1653 -0.5102
16393TIP3    H170670   3.555   6.682   2.803 -2.2348 -0.6035 -0.8320
16393TIP3    H270671   3.616   6.655   2.668  0.2630  0.1814  0.0955
16394TIP3   OH270672   2.962   4.050  15.556 -0.1242 -0.4996  0.0933
16394TIP3    H170673   2.933   4.086  15.473  0.0986 -0.6104 -0.0349
16394TIP3    H270674   3.020   3.977  15.532  2.5710  1.4305  0.2561
16395TIP3   OH270675   4.231   0.586   0.044  0.0519  0.4192 -0.1839
16395TIP3    H170676   4.215   0.496   0.015  0.4684  0.5215 -0.7406
16395TIP3    H270677   4.326   0.593   0.049  0.0310  0.0224  2.4391
16396TIP3   OH270678   0.749   5.896  16.278  0.0323 -1.0218 -0.2270
16396TIP3    H170679   0.815   5.844  16.326  0.6631  0.3984  0.4988
16396TIP3    H270680   0.675   5.902  16.338 -0.0860 -1.1621 -0.3570
16397TIP3   OH270681   6.806   0.503  12.700 -0.6342  0.3731 -0.1703
16397TIP3    H170682   6.875   0.522  12.763 -0.0530 -1.4002 -0.2388
16397TIP3    H270683   6.830   0.553  12.622 -0.0179  0.5970  0.1586
16398TIP3   OH270684   1.622   3.424  14.586  0.4026  0.3311 -0.4687
16398TIP3    H170685   1.541   3.382  14.615  1.0971  0.5690  2.0953
16398TIP3    H270686   1.610   3.516  14.610  1.0142  0.5678 -1.0610
16399TIP3   OH270687   2.217   6.563  16.252  0.1512  0.3321 -0.4790
16399TIP3    H170688   2.304   6.597  16.273  0.4439  0.1590 -1.3744
16399TIP3    H270689   2.233   6.498  16.184 -0.8128  1.2540 -1.6105
16400TIP3   OH270690   6.112   6.438   3.831  0.0058 -0.4178 -0.5222
16400TIP3    H170691   6.049   6.384   3.784 -0.0910  0.0478 -0.9441
16400TIP3    H270692   6.065   6.471   3.907 -0.1545 -0.3518 -0.6496
16401TIP3   OH270693   3.657   0.762   3.055 -0.3066  0.1203  0.0178
16401TIP3    H170694   3.728   0.825   3.065  1.5819 -1.3667 -2.6932
16401TIP3    H270695   3.577   0.814   3.055  0.9261  2.1121  0.8295
16402TIP3   OH270696   1.595   5.825  11.673  0.3248  0.2131 -0.2530
16402TIP3    H170697   1.562   5.738  11.694  1.6780 -0.7532 -1.8392
16402TIP3    H270698   1.534   5.859  11.607 -1.8279  1.7398  2.3049
16403TIP3   OH270699   1.740   3.411  12.006 -0.0382  0.3946  0.5335
16403TIP3    H170700   1.825   3.367  12.000 -0.1909  0.0032  1.1392
16403TIP3    H270701   1.688   3.372  11.936  0.4317  0.9878 -0.1581
16404TIP3   OH270702   5.451   6.631   5.631  0.5101 -0.3597  0.0692
16404TIP3    H170703   5.381   6.570   5.610  0.4504 -0.3497  0.2428
16404TIP3    H270704   5.440   6.651   5.724 -0.5904  1.3504 -0.3906
16405TIP3   OH270705   0.704   3.377  14.752 -0.2731  0.4374  0.6382
16405TIP3    H170706   0.624   3.382  14.803 -0.3843 -1.0561  0.6477
16405TIP3    H270707   0.675   3.363  14.662 -0.0393  0.5416  0.5452
16406TIP3   OH270708   1.182   2.732  16.565 -0.3012  0.0021 -0.3114
16406TIP3    H170709   1.188   2.820  16.528 -0.0594 -0.7823 -2.2330
16406TIP3    H270710   1.255   2.726  16.626 -0.7554  1.3580  0.4160
16407TIP3   OH270711   3.794   4.558   0.255 -0.1872  0.4541 -0.3071
16407TIP3    H170712   3.776   4.603   0.172  1.6613 -0.5337 -1.2817
16407TIP3    H270713   3.886   4.577   0.273  0.3250 -1.9125 -0.1384
16408TIP3   OH270714   0.582   6.450   1.561 -0.4444  0.0334  0.0829
16408TIP3    H170715   0.610   6.474   1.473  0.0125 -1.0129 -0.0683
16408TIP3    H270716   0.553   6.360   1.554  0.7049 -0.4686  1.2238
16409TIP3   OH270717   0.438   0.094  13.513  0.3124 -0.0052  0.0606
16409TIP3    H170718   0.413   0.023  13.454  1.1489  0.0217 -0.3377
16409TIP3    H270719   0.478   0.051  13.588  0.2461  0.0156  0.1079
16410TIP3   OH270720   0.743   1.182  16.053  0.0731  0.4713  0.0407
16410TIP3    H170721   0.752   1.240  16.128  1.4738  0.3399  0.0014
16410TIP3    H270722   0.704   1.102  16.089  0.2805  0.5927  0.5393
16411TIP3   OH270723   0.432   1.395  12.618 -0.0807 -0.0152 -0.9896
16411TIP3    H170724   0.444   1.321  12.678 -1.7508 -0.7619 -1.5157
16411TIP3    H270725   0.387   1.461  12.671 -1.0344 -0.4485 -1.2486
16412TIP3   OH270726   3.267   5.429   2.933  0.3514 -0.2095  0.7879
16412TIP3    H170727   3.292   5.425   3.026  0.4290 -2.8151  0.7149
16412TIP3    H270728   3.182   5.385   2.929  0.3576 -0.1429 -0.3794
16413TIP3   OH270729   1.216   0.181  14.357 -0.6351 -0.1482  0.2208
16413TIP3    H170730   1.210   0.141  14.444 -0.5294 -0.1107  0.2454
16413TIP3    H270731   1.163   0.125  14.301 -2.2259  0.8462  0.6759
16414TIP3   OH270732   0.954   1.094   0.996 -0.2721  0.4415  0.0795
16414TIP3    H170733   0.936   1.007   1.030 -1.4155 -0.0232 -1.5928
16414TIP3    H270734   1.015   1.079   0.923 -2.2448  0.7238 -1.7112
16415TIP3   OH270735   6.028   1.787  15.494 -0.0220  0.3121  0.1961
16415TIP3    H170736   6.112   1.806  15.452  0.1227  0.1167  0.3934
16415TIP3    H270737   6.052   1.741  15.575 -0.3782 -2.1214 -0.9708
16416TIP3   OH270738   2.468   2.994   0.124 -0.4817  0.1828 -0.1524
16416TIP3    H170739   2.532   3.013   0.193 -1.9735  0.1433  1.3014
16416TIP3    H270740   2.516   3.008   0.042  1.1235  1.0063  0.8781
16417TIP3   OH270741   4.182   6.094  12.631  0.1865 -0.5829 -0.2418
16417TIP3    H170742   4.237   6.159  12.676 -0.3887 -1.0026  1.1097
16417TIP3    H270743   4.136   6.144  12.564 -0.1736  0.4002  0.7128
16418TIP3   OH270744   5.404   4.400   5.288  0.3475  0.3940 -0.5911
16418TIP3    H170745   5.347   4.425   5.360  0.4308 -0.3050 -0.2669
16418TIP3    H270746   5.346   4.357   5.225  0.4461  0.0285 -0.4368
16419TIP3   OH270747   6.304   2.976  12.840  0.3703  0.1319  0.0991
16419TIP3    H170748   6.259   3.005  12.761 -0.6810 -1.3016  0.1266
16419TIP3    H270749   6.303   2.880  12.834 -0.0432 -0.0278  1.9969
16420TIP3   OH270750   3.666   5.711  13.038  0.8052  0.5367 -0.4647
16420TIP3    H170751   3.670   5.790  13.092  2.6845  0.5176 -0.4979
16420TIP3    H270752   3.670   5.743  12.948  1.8202  0.4234 -0.4732
16421TIP3   OH270753   5.557   1.208   4.796  0.0248  0.4376 -0.2944
16421TIP3    H170754   5.602   1.125   4.809  1.7807  1.2084 -1.2199
16421TIP3    H270755   5.492   1.190   4.728 -1.3709 -0.7539  1.2605
16422TIP3   OH270756   5.575   6.315   3.192 -0.3568 -0.5897 -0.1118
16422TIP3    H170757   5.494   6.349   3.230 -0.1090  0.4382 -0.4936
16422TIP3    H270758   5.548   6.278   3.108 -0.4416 -0.3137 -0.2070
16423TIP3   OH270759   1.685   2.981  14.796  0.3130 -0.2452 -0.4790
16423TIP3    H170760   1.669   2.903  14.742 -1.8567 -0.4260  0.3187
16423TIP3    H270761   1.772   3.010  14.771  0.9328 -2.5637 -1.2547
16424TIP3   OH270762   4.832   5.127  11.834 -0.3445  0.7695  0.1004
16424TIP3    H170763   4.850   5.139  11.927 -0.9220  0.6552  0.2310
16424TIP3    H270764   4.801   5.213  11.805 -1.5518  0.4261  0.3444
16425TIP3   OH270765   3.523   1.052   0.088 -0.0672  0.1197 -0.2044
16425TIP3    H170766   3.493   0.979   0.034 -1.0265  0.3504 -0.0097
16425TIP3    H270767   3.558   1.115   0.025 -1.9483  0.7550 -0.6976
16426TIP3   OH270768   6.273   3.180   4.021  0.2573 -0.2195  0.1740
16426TIP3    H170769   6.280   3.192   4.115  1.3266  2.3515 -0.1609
16426TIP3    H270770   6.348   3.125   3.998 -0.5130 -1.6232  0.8785
16427TIP3   OH270771   2.523   5.474  16.399 -0.0442  0.0370  0.0110
16427TIP3    H170772   2.466   5.430  16.461 -1.0086 -0.4578 -1.1863
16427TIP3    H270773   2.477   5.554  16.375 -0.9858 -1.0322 -2.0234
16428TIP3   OH270774   5.773   0.499   5.351  0.5466 -0.0397  0.7602
16428TIP3    H170775   5.731   0.450   5.281  1.9413 -0.2135  0.0094
16428TIP3    H270776   5.708   0.500   5.422 -1.0534  0.4972 -0.6561
16429TIP3   OH270777   2.042   5.699  10.693 -0.1442 -0.1260 -0.9957
16429TIP3    H170778   2.101   5.681  10.619  0.6633  1.3578 -0.7564
16429TIP3    H270779   2.020   5.791  10.684  2.5930  1.0536  2.3504
16430TIP3   OH270780   2.221   5.755   3.096  0.0738 -0.3178  0.4634
16430TIP3    H170781   2.256   5.690   3.157 -1.1979 -1.5080 -0.0203
16430TIP3    H270782   2.240   5.720   3.010  0.6439  0.6785  0.1748
16431TIP3   OH270783   4.531   3.805  11.448 -0.0333 -0.5913  0.1264
16431TIP3    H170784   4.460   3.787  11.510  0.0306  0.1482  0.4293
16431TIP3    H270785   4.591   3.862  11.496 -0.7411  1.2617 -1.0717
16432TIP3   OH270786   4.251   0.254  12.423  0.3954  0.3331 -0.5424
16432TIP3    H170787   4.247   0.198  12.345  0.2140 -0.3211 -0.0778
16432TIP3    H270788   4.294   0.199  12.489  1.5173  1.2542 -0.4853
16433TIP3   OH270789   1.584   6.058  16.385  0.1869  0.1795 -0.4086
16433TIP3    H170790   1.638   5.986  16.350 -0.7656 -0.3328 -0.8667
16433TIP3    H270791   1.514   6.015  16.433 -0.1640  0.8204 -0.3326
16434TIP3   OH270792   5.197   3.760  15.913 -0.1542  0.2703 -0.1541
16434TIP3    H170793   5.238   3.772  15.827  1.4414  0.4403  0.5789
16434TIP3    H270794   5.116   3.809  15.908 -0.0415  0.3771 -1.5196
16435TIP3   OH270795   6.149   4.461  15.006  0.2160 -0.4893 -0.5255
16435TIP3    H170796   6.134   4.381  14.955  0.0044 -1.4273  0.9740
16435TIP3    H270797   6.061   4.489  15.032  0.2981  0.1945 -0.9648
16436TIP3   OH270798   4.900   6.772  14.989 -0.2368  0.5473  0.0075
16436TIP3    H170799   4.887   6.779  15.083 -1.2575 -0.0130 -0.0790
16436TIP3    H270800   4.907   6.678  14.972  0.2286  0.6550 -0.4443
16437TIP3   OH270801   3.725   3.986   2.438  0.1624  0.0992  0.3906
16437TIP3    H170802   3.797   3.959   2.494  0.0709  2.0229  1.4932
16437TIP3    H270803   3.765   4.040   2.370 -0.2267  1.4825  1.2184
16438TIP3   OH270804   1.357   0.135   5.138  0.0526 -0.6979 -0.0359
16438TIP3    H170805   1.323   0.066   5.081 -0.5918 -0.6852  0.3163
16438TIP3    H270806   1.449   0.143   5.115 -0.8815  1.9302 -3.7770
16439TIP3   OH270807   4.625   3.585  16.154  0.0501  0.4914  0.0114
16439TIP3    H170808   4.688   3.623  16.216  1.7683 -3.1789  0.7903
16439TIP3    H270809   4.619   3.649  16.084  1.1409  3.0314  2.0615
16440TIP3   OH270810   6.014   3.958  16.428 -0.2591 -0.2867  0.3574
16440TIP3    H170811   6.014   3.879  16.481  2.3573  0.2608  1.2874
16440TIP3    H270812   6.067   3.936  16.352 -0.6689  0.1743 -0.0708
16441TIP3   OH270813   3.563   1.125   1.837  0.4708 -0.7076 -0.6143
16441TIP3    H170814   3.529   1.198   1.786  2.4092  0.4230 -0.3937
16441TIP3    H270815   3.545   1.149   1.928  0.6046 -0.7821 -0.5678
16442TIP3   OH270816   1.075   4.599   5.726 -0.6245 -0.1249  0.2455
16442TIP3    H170817   1.123   4.649   5.793 -0.0006 -0.3947  0.0057
16442TIP3    H270818   1.143   4.552   5.678 -0.9604  0.8706 -1.2629
16443TIP3   OH270819   0.685   0.012   5.588 -1.0461  0.0694  0.1740
16443TIP3    H170820   0.656  -0.074   5.558 -2.4741  0.7025 -0.3712
16443TIP3    H270821   0.648   0.073   5.524  2.1959  0.9501 -1.0803
16444TIP3   OH270822   1.972   1.380   4.651  0.3205 -0.0237 -0.0576
16444TIP3    H170823   1.921   1.363   4.571  0.7295  1.8251 -0.7889
16444TIP3    H270824   1.990   1.294   4.688 -2.7289 -0.7957 -0.1357
16445TIP3   OH270825   3.339   6.261  13.928 -0.1088  0.1964  0.2677
16445TIP3    H170826   3.275   6.254  13.858  0.6271  1.9941 -0.6479
16445TIP3    H270827   3.419   6.224  13.891  0.1322  0.6150  0.3705
16446TIP3   OH270828   6.454   5.237   3.685  0.3999  0.2659 -0.3255
16446TIP3    H170829   6.497   5.160   3.650  0.1916 -0.1979  0.4216
16446TIP3    H270830   6.363   5.230   3.656  0.1020 -0.3928  0.7213
16447TIP3   OH270831   0.217   3.522   3.134  0.3343 -0.1851 -0.1192
16447TIP3    H170832   0.224   3.435   3.094 -0.2574 -0.7582  0.9727
16447TIP3    H270833   0.161   3.571   3.075 -1.6900 -1.4523  0.6514
16448TIP3   OH270834   3.589   3.542  11.803 -0.1903 -0.2687  0.4854
16448TIP3    H170835   3.636   3.623  11.820  1.6207 -1.1551 -0.0289
16448TIP3    H270836   3.617   3.483  11.873 -0.0712 -1.0006 -0.1614
16449TIP3   OH270837   3.865   6.370   2.580  0.6503  0.3083  0.2437
16449TIP3    H170838   3.920   6.329   2.647 -1.0341 -1.2451  0.7877
16449TIP3    H270839   3.888   6.463   2.583  2.4029 -0.1057  1.1981
16450TIP3   OH270840   2.231   4.658  15.539 -0.7347  0.1843  0.5255
16450TIP3    H170841   2.268   4.651  15.627  0.5826  0.7583  0.0316
16450TIP3    H270842   2.273   4.588  15.489  1.6411  2.3067 -0.6738
16451TIP3   OH270843   1.901   3.671  13.145  0.5069 -0.3947 -0.0051
16451TIP3    H170844   1.893   3.618  13.066 -0.9580 -0.0219 -0.1299
16451TIP3    H270845   1.977   3.727  13.129 -0.1090  0.0772 -1.4058
16452TIP3   OH270846   5.343   6.626  13.373 -0.4051  0.0027 -0.2957
16452TIP3    H170847   5.364   6.534  13.389 -0.3237  0.5584  3.5217
16452TIP3    H270848   5.249   6.632  13.388 -0.2332  0.7078  0.5571
16453TIP3   OH270849   2.337   0.136  12.707  0.1816 -0.4417  0.2206
16453TIP3    H170850   2.391   0.214  12.717 -0.9630  0.7255 -1.8859
16453TIP3    H270851   2.396   0.070  12.673  0.7455  0.1612 -0.0011
16454TIP3   OH270852   3.422   1.186   1.091 -0.6810 -0.1555  0.0410
16454TIP3    H170853   3.390   1.201   1.002  0.0572  0.9135 -0.0587
16454TIP3    H270854   3.511   1.153   1.079 -0.2864  0.7441  0.3744
16455TIP3   OH270855   4.108   4.153   5.543 -0.2433 -0.2472  0.2222
16455TIP3    H170856   4.048   4.180   5.613  1.1251 -0.5087  1.5734
16455TIP3    H270857   4.076   4.066   5.516  0.1345 -0.8769  1.6965
16456TIP3   OH270858   6.191   0.338   4.750 -0.0986  0.3463 -0.2427
16456TIP3    H170859   6.102   0.365   4.774 -0.1404 -0.2116  0.2681
16456TIP3    H270860   6.189   0.242   4.756  0.4462  0.3115 -0.5595
16457TIP3   OH270861   1.312   1.478  13.028 -0.3659 -0.2814 -0.1092
16457TIP3    H170862   1.216   1.474  13.034 -0.4600 -0.9098 -1.6152
16457TIP3    H270863   1.339   1.518  13.110 -1.8163 -1.4895  1.0165
16458TIP3   OH270864   2.286   5.047  12.259  0.4968  0.6737  0.2954
16458TIP3    H170865   2.243   5.114  12.207  0.1722  0.1628 -0.0954
16458TIP3    H270866   2.271   5.073  12.350 -0.1883  0.7754  0.1507
16459TIP3   OH270867   4.321   5.781   1.283 -0.1291 -0.2508 -0.1807
16459TIP3    H170868   4.246   5.822   1.326 -0.1278 -0.9603  0.5346
16459TIP3    H270869   4.331   5.829   1.201 -0.8113  0.4326  0.1167
16460TIP3   OH270870   4.639   4.391   4.226  0.2632  0.1970  0.1357
16460TIP3    H170871   4.617   4.443   4.303  0.8667 -1.1381  1.2702
16460TIP3    H270872   4.726   4.355   4.246  0.8463  0.5560 -1.5891
16461TIP3   OH270873   0.868   1.470  16.805 -0.1932  0.5003 -0.1746
16461TIP3    H170874   0.823   1.409  16.864  0.7949  1.6567  1.8962
16461TIP3    H270875   0.797   1.509  16.753 -1.3673  0.6932  1.4737
16462TIP3   OH270876   5.082   2.357  11.994  0.3216  0.1772  0.0128
16462TIP3    H170877   5.044   2.307  11.922 -0.3687 -3.3532  2.5397
16462TIP3    H270878   5.158   2.305  12.022  0.6878  1.5069  1.6805
16463TIP3   OH270879   6.595   3.972   5.345 -0.3419 -0.0549  0.3395
16463TIP3    H170880   6.506   3.939   5.330  0.7450 -2.7796 -0.6122
16463TIP3    H270881   6.617   3.943   5.433 -0.3504  0.6267  0.5774
16464TIP3   OH270882   1.717   0.429   0.823 -0.3841 -0.1345 -0.6749
16464TIP3    H170883   1.777   0.488   0.870  0.4458 -1.5558  0.0993
16464TIP3    H270884   1.663   0.390   0.891 -1.1517 -0.0332 -1.2187
16465TIP3   OH270885   4.142   3.716  11.779 -0.0343 -0.1959  0.4173
16465TIP3    H170886   4.120   3.808  11.797 -0.9707 -0.1799 -0.7042
16465TIP3    H270887   4.072   3.685  11.722  0.8657 -1.2773 -0.1560
16466TIP3   OH270888   2.982   3.498   0.549  0.0530  0.4924  0.3599
16466TIP3    H170889   2.953   3.544   0.471 -0.8283  3.4024  2.2558
16466TIP3    H270890   3.073   3.526   0.561  0.2946 -0.2127  0.2351
16467TIP3   OH270891   3.179   4.591  13.318 -0.3103  0.1552  0.2277
16467TIP3    H170892   3.092   4.624  13.300  0.2033  0.9007 -1.0092
16467TIP3    H270893   3.203   4.630  13.402 -1.1734 -0.1091  0.6089
16468TIP3   OH270894   0.532   3.313   6.732  0.3805 -0.4780  0.1652
16468TIP3    H170895   0.471   3.386   6.727  0.1839 -0.6945 -0.6880
16468TIP3    H270896   0.477   3.236   6.747  0.3770 -0.7548 -1.1898
16469TIP3   OH270897   1.932   1.701  15.589 -0.3136  0.3995  0.5338
16469TIP3    H170898   1.999   1.704  15.656 -0.3037  3.8637  0.5198
16469TIP3    H270899   1.858   1.656  15.630  0.4254  0.5873  2.1160
16470TIP3   OH270900   1.249   0.346  10.522 -0.5782 -0.3967  0.0083
16470TIP3    H170901   1.227   0.436  10.498  0.2631  0.1907  1.3503
16470TIP3    H270902   1.291   0.353  10.607 -1.1744 -2.1532  0.4860
16471TIP3   OH270903   6.013   1.588   3.921 -0.1766 -0.2635 -0.5754
16471TIP3    H170904   6.098   1.571   3.881  1.7972  1.2652  2.6019
16471TIP3    H270905   5.987   1.673   3.886  0.6635  0.2427 -0.0052
16472TIP3   OH270906   4.953   2.235   4.086  0.4721 -0.3008 -0.2759
16472TIP3    H170907   4.893   2.271   4.151  0.8007  1.6636 -1.0136
16472TIP3    H270908   5.009   2.176   4.137 -0.6116 -0.4395  0.8215
16473TIP3   OH270909   0.433   5.595   2.067  0.0020  0.5664  0.1986
16473TIP3    H170910   0.387   5.566   2.146 -1.4367  0.4489 -0.6374
16473TIP3    H270911   0.470   5.514   2.030 -0.4840  0.3973  0.0605
16474TIP3   OH270912   0.263   1.750  14.499 -0.0684  0.2038  0.6648
16474TIP3    H170913   0.357   1.738  14.509 -0.1123  0.6085  1.6429
16474TIP3    H270914   0.227   1.731  14.586 -0.9188 -0.2001  0.2373
16475TIP3   OH270915   6.732   3.484  14.864  0.4035 -0.0885  0.2768
16475TIP3    H170916   6.805   3.449  14.915 -0.1467 -0.4669  0.8268
16475TIP3    H270917   6.773   3.541  14.799  1.2261 -0.7038  0.2361
16476TIP3   OH270918   5.851   3.763   1.104  0.3180 -0.2041  0.3745
16476TIP3    H170919   5.804   3.701   1.049  1.9539 -2.1758  1.0565
16476TIP3    H270920   5.799   3.769   1.184 -0.5246  0.3532 -0.1985
16477TIP3   OH270921   6.538   4.329   4.537 -0.5133  0.4076 -0.5427
16477TIP3    H170922   6.623   4.333   4.492 -0.4285  0.0576 -0.4193
16477TIP3    H270923   6.487   4.266   4.485 -0.2349 -0.4030  0.1452
16478TIP3   OH270924   0.311   2.689   4.281  0.7841 -0.1201  0.2064
16478TIP3    H170925   0.236   2.707   4.225  1.3145 -0.4522 -0.6286
16478TIP3    H270926   0.385   2.730   4.236  1.0079  0.8250  1.3761
16479TIP3   OH270927   2.812   6.645  11.303 -0.1778 -0.1898  0.2435
16479TIP3    H170928   2.743   6.664  11.367  0.9106  0.0091  1.3845
16479TIP3    H270929   2.820   6.550  11.304 -1.9485 -0.4317 -1.5635
16480TIP3   OH270930   0.444   2.900   2.891 -0.3965 -0.1559  0.3843
16480TIP3    H170931   0.364   2.847   2.885 -0.6011  0.0908  0.9437
16480TIP3    H270932   0.487   2.869   2.971  1.0857 -1.6937 -0.9177
16481TIP3   OH270933   2.432   3.247  12.355  0.3823  0.2425 -0.0863
16481TIP3    H170934   2.483   3.213  12.429  4.1700  0.1716 -2.4687
16481TIP3    H270935   2.468   3.334  12.338 -1.4594  0.8956 -0.9539
16482TIP3   OH270936   1.697   5.555   1.490  0.7846 -0.1021  0.2029
16482TIP3    H170937   1.733   5.595   1.411  0.3622  1.1429  0.6214
16482TIP3    H270938   1.754   5.585   1.560  0.4344 -0.2085  0.5351
16483TIP3   OH270939   1.924   2.656  15.127 -0.7673 -0.1295 -0.4907
16483TIP3    H170940   1.969   2.598  15.189 -1.5876 -0.6009 -0.3177
16483TIP3    H270941   1.978   2.735  15.125 -0.4074 -0.3341  0.3864
16484TIP3   OH270942   0.649   0.554   4.087  0.3023  0.1781 -0.5333
16484TIP3    H170943   0.691   0.637   4.109  0.7117 -0.1936  0.1278
16484TIP3    H270944   0.656   0.502   4.167  2.1212 -1.3462 -1.6030
16485TIP3   OH270945   2.330   0.158  15.510  0.2281 -0.3799  0.7908
16485TIP3    H170946   2.319   0.253  15.509 -0.2392 -0.4315 -0.5285
16485TIP3    H270947   2.409   0.142  15.459 -0.9439 -0.8118 -0.9598
16486TIP3   OH270948   3.876   2.334   3.156  0.3443  0.6110  0.5477
16486TIP3    H170949   3.865   2.337   3.061  0.2700 -2.7039  0.3213
16486TIP3    H270950   3.787   2.343   3.191  0.2670  0.9857  0.2542
16487TIP3   OH270951   3.246   3.510  15.019  1.0645  0.0319 -0.0166
16487TIP3    H170952   3.159   3.549  15.021  0.6112 -0.8538 -1.2607
16487TIP3    H270953   3.257   3.470  15.105  0.1045 -0.1214  0.0427
16488TIP3   OH270954   5.737   5.617  15.471 -0.4494  0.6953 -0.0788
16488TIP3    H170955   5.675   5.658  15.531  0.0783  0.1278  0.8903
16488TIP3    H270956   5.734   5.670  15.392 -0.6819  1.8566  0.6878
16489TIP3   OH270957   6.288   1.684   0.336  1.0273  0.0202 -0.1120
16489TIP3    H170958   6.371   1.681   0.382  0.9679 -0.3659 -0.0289
16489TIP3    H270959   6.222   1.672   0.405  0.8261  1.7874  0.0491
16490TIP3   OH270960   4.178   1.725  16.102  0.4351  0.1952 -0.2830
16490TIP3    H170961   4.261   1.693  16.067 -0.9478 -1.5597 -2.2151
16490TIP3    H270962   4.166   1.676  16.183  0.6376 -0.6338 -0.7404
16491TIP3   OH270963   4.168   5.686   6.438  0.1160 -0.6886 -0.7300
16491TIP3    H170964   4.233   5.643   6.493  0.6928  1.6931  0.5991
16491TIP3    H270965   4.092   5.627   6.441  0.6230 -1.3422  1.5149
16492TIP3   OH270966   6.465   0.742   4.803  0.6351 -0.0246  0.1855
16492TIP3    H170967   6.528   0.673   4.821  1.8746  0.4643 -1.9722
16492TIP3    H270968   6.484   0.769   4.714 -1.6588  1.2015  0.0002
16493TIP3   OH270969   1.088   2.996   5.571  0.0476  0.1749 -1.1158
16493TIP3    H170970   1.142   2.957   5.503  2.1405  1.5509 -0.3429
16493TIP3    H270971   1.074   2.925   5.634  1.4545 -0.0979 -1.0726
16494TIP3   OH270972   4.292   6.801  12.288  0.4030 -0.5734  0.2076
16494TIP3    H170973   4.233   6.726  12.278 -0.7054  0.0497  1.5880
16494TIP3    H270974   4.267   6.860  12.217 -1.8447  0.3774  1.6572
16495TIP3   OH270975   6.539   3.508  13.267 -0.1303  0.7912 -0.1380
16495TIP3    H170976   6.506   3.468  13.187 -1.0477  0.3253  0.4544
16495TIP3    H270977   6.464   3.510  13.326  0.4921  1.2485  0.6734
16496TIP3   OH270978   4.618   0.574  16.481  0.2391 -0.0110  0.5732
16496TIP3    H170979   4.651   0.659  16.453  2.5929 -0.5716  1.4196
16496TIP3    H270980   4.533   0.593  16.519  0.6307  1.9445  0.5835
16497TIP3   OH270981   0.684   5.314  13.034  0.8151 -0.2242 -1.0400
16497TIP3    H170982   0.776   5.339  13.041  0.5898  0.4809 -0.5658
16497TIP3    H270983   0.674   5.241  13.095  1.2865 -0.9959 -1.8506
16498TIP3   OH270984   0.509   4.906   2.675  0.0659 -0.3338  1.0621
16498TIP3    H170985   0.510   4.855   2.757 -0.4475 -2.0897  0.0244
16498TIP3    H270986   0.476   4.845   2.609  1.6333  0.6607 -0.7265
16499TIP3   OH270987   1.207   4.123   5.553  0.5287  0.8701 -0.4035
16499TIP3    H170988   1.288   4.085   5.517  1.3530  1.3587  0.8866
16499TIP3    H270989   1.187   4.196   5.495  0.5796  0.2855 -1.1744
16500TIP3   OH270990   5.001   1.521  11.959 -0.1623 -0.1370  0.2104
16500TIP3    H170991   5.090   1.489  11.970 -0.1003 -0.2257 -0.5189
16500TIP3    H270992   4.979   1.560  12.044  0.6625  0.1325  0.3092
16501TIP3   OH270993   1.398   1.047   1.972 -0.5589 -0.5233 -0.1883
16501TIP3    H170994   1.333   1.113   1.952 -1.8715 -1.7985 -0.3195
16501TIP3    H270995   1.476   1.096   1.997 -1.3271  1.0490 -0.7633
16502TIP3   OH270996   4.854   0.918   0.187 -0.6252 -0.0114  0.1986
16502TIP3    H170997   4.913   0.990   0.207 -2.2901  0.9936  1.6598
16502TIP3    H270998   4.892   0.878   0.108  2.4761  0.0128  1.5218
16503TIP3   OH270999   1.022   6.700   0.946 -0.1555 -0.3142 -0.0069
16503TIP3    H171000   1.072   6.636   0.895 -1.5419 -1.7776  0.3715
16503TIP3    H271001   0.967   6.745   0.881  1.2095  0.9226 -0.3487
16504TIP3   OH271002   4.390   6.200  14.751 -0.4992  0.0237 -0.2679
16504TIP3    H171003   4.409   6.131  14.688  1.0255 -0.0200  0.2173
16504TIP3    H271004   4.335   6.157  14.817  0.5677 -0.7979  0.1181
16505TIP3   OH271005   1.826   5.719  13.475 -0.5739  0.4136  0.7267
16505TIP3    H171006   1.825   5.760  13.562  2.4269 -0.4920  1.3143
16505TIP3    H271007   1.884   5.776  13.424 -0.7674 -0.1287 -0.1071
16506TIP3   OH271008   4.609   2.781   5.844 -0.2083 -0.7806 -0.3680
16506TIP3    H171009   4.593   2.764   5.751 -0.0806 -1.0127 -0.3495
16506TIP3    H271010   4.704   2.775   5.854 -0.1555 -0.0471 -0.3563
16507TIP3   OH271011   1.296   0.479   5.648 -0.0724 -0.1995 -0.2984
16507TIP3    H171012   1.325   0.499   5.737 -0.0288  0.3515 -0.4302
16507TIP3    H271013   1.355   0.528   5.592 -2.7016  3.0925 -0.5310
16508TIP3   OH271014   0.599   6.125   0.203  0.0805  0.0691 -0.2317
16508TIP3    H171015   0.649   6.205   0.215 -0.5176  0.1924  1.9496
16508TIP3    H271016   0.524   6.135   0.261  0.9461 -2.7959  1.6046
16509TIP3   OH271017   6.458   6.052  13.307  0.3128 -0.2579  0.3629
16509TIP3    H171018   6.466   6.013  13.219  2.3404  1.0199 -0.0675
16509TIP3    H271019   6.394   6.122  13.296 -0.8462 -1.2633  0.3855
16510TIP3   OH271020   0.593   4.389  14.577 -0.2439  0.6095 -0.0671
16510TIP3    H171021   0.630   4.428  14.656 -0.0174 -0.2445  0.2673
16510TIP3    H271022   0.627   4.299  14.577  0.3694  0.8004 -1.5218
16511TIP3   OH271023   4.574   1.319   2.868  0.0245 -0.1602 -0.1664
16511TIP3    H171024   4.565   1.379   2.794 -1.0701  0.9141  0.8074
16511TIP3    H271025   4.658   1.342   2.908  0.6872 -0.8335 -1.1034
16512TIP3   OH271026   5.401   3.230  16.329  0.0602 -0.2588  0.1613
16512TIP3    H171027   5.352   3.162  16.375  1.0110 -0.9290  0.2127
16512TIP3    H271028   5.486   3.190  16.310  0.2864  0.5887 -0.6783
16513TIP3   OH271029   1.290   1.329  11.710 -0.1245  0.0661 -0.0480
16513TIP3    H171030   1.377   1.289  11.702 -0.4689 -0.4587 -1.5966
16513TIP3    H271031   1.260   1.304  11.798  1.0126 -0.3138  0.2462
16514TIP3   OH271032   3.248   2.610   1.315 -0.0192  0.0893  0.2835
16514TIP3    H171033   3.216   2.528   1.277  0.0725  0.5035 -0.7371
16514TIP3    H271034   3.183   2.633   1.381 -1.1054  0.1833 -0.7837
16515TIP3   OH271035   1.030   0.697  12.890  0.4223 -0.4975  0.3849
16515TIP3    H171036   0.986   0.773  12.928  1.7825  0.3052  0.4149
16515TIP3    H271037   1.080   0.660  12.963  0.0854 -1.1905  0.2703
16516TIP3   OH271038   3.542   6.618  15.545  0.0158  0.4181  0.6873
16516TIP3    H171039   3.624   6.641  15.589  0.5851 -2.3414  1.2550
16516TIP3    H271040   3.561   6.630  15.452  2.5160 -3.7120  0.4381
16517TIP3   OH271041   0.355   2.561   0.836  0.2469  0.0424 -0.2604
16517TIP3    H171042   0.272   2.607   0.845  0.8246  1.0892 -0.1594
16517TIP3    H271043   0.330   2.472   0.811 -0.8985  0.3495 -0.2714
16518TIP3   OH271044   1.065   1.758  15.126 -0.2253 -0.7778 -0.5388
16518TIP3    H171045   1.078   1.749  15.221  0.2447  1.0364 -0.4115
16518TIP3    H271046   0.973   1.735  15.113 -1.1212  1.6732  0.7952
16519TIP3   OH271047   2.933   2.166  11.690 -0.3031 -0.3318 -0.1713
16519TIP3    H171048   2.935   2.262  11.686  0.8688 -0.3471 -0.2903
16519TIP3    H271049   2.983   2.138  11.613 -2.0710 -1.0841 -1.1015
16520TIP3   OH271050   4.361   1.851   4.148 -0.5119 -0.3071 -0.5067
16520TIP3    H171051   4.331   1.767   4.114 -2.5077 -0.6779  1.8069
16520TIP3    H271052   4.281   1.903   4.156  0.4084  1.0946 -0.0392
16521TIP3   OH271053   5.979   4.590   4.222 -0.0779  0.2329 -0.2476
16521TIP3    H171054   5.884   4.580   4.216 -0.2488  1.2675  0.5162
16521TIP3    H271055   6.012   4.552   4.141 -1.2830  1.7227 -1.4972
16522TIP3   OH271056   1.475   1.955  15.064  0.2487  0.7112 -0.9619
16522TIP3    H171057   1.569   1.942  15.052  0.0624 -3.0509  0.3229
16522TIP3    H271058   1.450   1.889  15.129 -3.1634  2.1319 -0.6505
16523TIP3   OH271059   4.592   0.158  11.246 -0.2128 -0.2036 -0.0519
16523TIP3    H171060   4.562   0.102  11.174 -2.5650  0.4629  0.3074
16523TIP3    H271061   4.546   0.240  11.233 -0.1608  0.1666  1.8110
16524TIP3   OH271062   0.387   5.434  15.419 -0.1020  0.5504 -0.3424
16524TIP3    H171063   0.444   5.366  15.384 -1.1682 -0.7331  0.3101
16524TIP3    H271064   0.335   5.463  15.344  0.3162  0.6032 -0.6118
16525TIP3   OH271065   1.343   4.582  15.058 -0.4801  0.4106 -0.1591
16525TIP3    H171066   1.323   4.637  15.134 -0.6118  1.0099 -0.6271
16525TIP3    H271067   1.368   4.643  14.989  0.2945 -0.1679 -0.4098
16526TIP3   OH271068   4.882   3.817  13.686 -0.2400  0.1477 -0.3290
16526TIP3    H171069   4.883   3.832  13.780 -0.8862 -2.2826  0.1410
16526TIP3    H271070   4.797   3.851  13.656  0.0041  1.0008 -0.0705
16527TIP3   OH271071   5.562   3.153   2.085  0.1438  0.7104 -0.3436
16527TIP3    H171072   5.624   3.168   2.156 -1.3661 -0.5712  1.3499
16527TIP3    H271073   5.497   3.094   2.122 -1.1137  0.5556 -2.6002
16528TIP3   OH271074   1.220   3.313   3.394 -0.1251 -0.4049 -0.3035
16528TIP3    H171075   1.203   3.341   3.485 -1.3931 -1.3357 -0.2298
16528TIP3    H271076   1.271   3.384   3.357  1.4193 -0.4937  1.4676
16529TIP3   OH271077   2.440   5.812   0.458  0.2100 -0.2608 -0.5077
16529TIP3    H171078   2.531   5.784   0.474  0.1955 -0.6193 -0.9909
16529TIP3    H271079   2.447   5.873   0.385  0.2632  1.2096  0.6923
16530TIP3   OH271080   4.481   2.318  14.641 -0.0743  0.3505  0.2229
16530TIP3    H171081   4.548   2.356  14.584  0.2772 -1.4268 -0.6253
16530TIP3    H271082   4.402   2.316  14.586 -0.0851 -0.1127  0.2495
16531TIP3   OH271083   1.952   2.664  14.843  0.3254  0.3495  0.1735
16531TIP3    H171084   1.990   2.577  14.835 -0.4797 -0.1307  1.2247
16531TIP3    H271085   1.929   2.672  14.936 -3.5441 -0.0694 -0.5615
16532TIP3   OH271086   0.684   4.719  16.675 -0.5171 -0.4234  1.0174
16532TIP3    H171087   0.679   4.705  16.769 -0.0738  1.3570  1.3355
16532TIP3    H271088   0.777   4.731  16.657 -0.3704 -2.5448  0.0231
16533TIP3   OH271089   2.237   5.880   2.578  0.1190  0.1633 -0.2344
16533TIP3    H171090   2.284   5.925   2.649  1.2338 -0.7765 -0.3390
16533TIP3    H271091   2.275   5.792   2.577 -3.4457 -1.6304  1.4179
16534TIP3   OH271092   3.363   2.639   0.602 -0.3553  0.5619  0.0334
16534TIP3    H171093   3.343   2.727   0.571 -0.3693  0.9990  1.2248
16534TIP3    H271094   3.329   2.636   0.691 -1.2570 -0.9995 -0.3253
16535TIP3   OH271095   1.942   5.797  12.571 -0.5475  0.1382 -0.4883
16535TIP3    H171096   1.878   5.790  12.500 -1.4579  0.2014  0.3025
16535TIP3    H271097   1.902   5.858  12.633  0.8022  1.0819 -0.5014
16536TIP3   OH271098   5.692   6.460   2.727 -0.2337  0.0603 -0.3020
16536TIP3    H171099   5.675   6.399   2.655 -1.8183  1.0009 -0.7819
16536TIP3    H271100   5.622   6.524   2.721  0.4198  0.9810  1.2288
16537TIP3   OH271101   1.866   6.826   6.376  0.0451 -0.4112 -0.6526
16537TIP3    H171102   1.825   6.869   6.301  2.4787  1.3178 -1.1344
16537TIP3    H271103   1.951   6.871   6.385  0.5604 -1.7496  2.0598
16538TIP3   OH271104   0.665   2.536   3.472 -0.3222  0.4859 -0.2371
16538TIP3    H171105   0.754   2.513   3.447 -0.3395  0.1950 -0.0369
16538TIP3    H271106   0.644   2.613   3.419  0.2359  0.8670  0.0895
16539TIP3   OH271107   4.144   4.928   2.552 -0.4691  0.1633  0.1030
16539TIP3    H171108   4.201   4.873   2.498  1.3303  2.4590 -0.5327
16539TIP3    H271109   4.091   4.866   2.602  0.9897 -2.1082 -0.9711
16540TIP3   OH271110   5.915   3.227   5.839 -0.1311  0.2867 -0.0840
16540TIP3    H171111   5.968   3.292   5.793  1.5578 -0.8717  0.1378
16540TIP3    H271112   5.900   3.158   5.773 -0.7120  0.2369  0.0937
16541TIP3   OH271113   0.287   2.184   6.431 -0.4547 -0.3189 -0.5529
16541TIP3    H171114   0.364   2.235   6.454 -1.4765  0.5516  1.1262
16541TIP3    H271115   0.294   2.104   6.484 -0.5594 -0.3672 -0.6102
16542TIP3   OH271116   4.872   4.376   4.548  0.0036  0.9498  0.0350
16542TIP3    H171117   4.876   4.445   4.614 -2.7842  0.3277  0.9439
16542TIP3    H271118   4.790   4.391   4.502 -0.9899 -2.0594  0.6450
16543TIP3   OH271119   6.076   2.850  15.027  0.8272 -0.6085 -0.6564
16543TIP3    H171120   6.165   2.820  15.046  0.0677 -1.3840  2.2724
16543TIP3    H271121   6.020   2.795  15.083 -1.3028  1.3267 -0.7296
16544TIP3   OH271122   2.484   3.867   3.598  0.0962 -0.4926  0.5655
16544TIP3    H171123   2.517   3.789   3.553  2.8965  0.5852  0.5813
16544TIP3    H271124   2.496   3.938   3.536 -0.3922  0.2923  1.3409
16545TIP3   OH271125   4.201   3.486   0.716 -0.2706 -0.1488 -0.5779
16545TIP3    H171126   4.166   3.459   0.631  1.4529  0.2822 -1.4773
16545TIP3    H271127   4.147   3.441   0.780 -2.4928  0.5781 -1.8466
16546TIP3   OH271128   3.868   6.207   0.382 -0.0070 -0.7530  0.0361
16546TIP3    H171129   3.831   6.295   0.379  1.2455 -0.1144  1.9754
16546TIP3    H271130   3.938   6.212   0.446  0.8229 -2.9142 -0.6114
16547TIP3   OH271131   1.609   1.594  12.007  0.2514  0.1267 -0.5084
16547TIP3    H171132   1.583   1.546  12.086 -0.2507  0.1796 -0.6409
16547TIP3    H271133   1.538   1.655  11.991 -0.3269 -0.8382 -1.8124
16548TIP3   OH271134   5.842   5.963  16.391 -0.6797  0.5469  0.8014
16548TIP3    H171135   5.802   6.050  16.384 -1.6299  0.0378 -0.4025
16548TIP3    H271136   5.935   5.977  16.372 -1.0904  1.0855 -0.9539
16549TIP3   OH271137   1.838   1.799   5.628 -0.3793 -0.8120 -0.1172
16549TIP3    H171138   1.805   1.888   5.628 -0.8379 -0.9790 -0.1228
16549TIP3    H271139   1.802   1.760   5.548  2.1615 -0.1545 -1.6879
16550TIP3   OH271140   0.364   5.095   5.868  0.1212  0.0398  0.5913
16550TIP3    H171141   0.354   5.058   5.780  2.1921 -1.2792  0.8523
16550TIP3    H271142   0.324   5.182   5.862 -0.2988 -0.2481 -1.4712
16551TIP3   OH271143   3.642   1.590  15.152 -0.0650  0.0168 -0.2832
16551TIP3    H171144   3.687   1.612  15.234 -2.9175  1.0160  1.1721
16551TIP3    H271145   3.682   1.508  15.124  0.6437 -0.6792  2.4593
16552TIP3   OH271146   4.162   5.732  16.201  0.4426  0.2521 -0.0331
16552TIP3    H171147   4.236   5.744  16.142 -0.1831 -2.0552 -1.4398
16552TIP3    H271148   4.110   5.812  16.192  1.0896  0.5238 -1.5698
16553TIP3   OH271149   2.952   5.005   1.920 -0.6882 -0.7542 -0.2857
16553TIP3    H171150   2.945   5.094   1.955 -1.6736 -1.3134  1.0393
16553TIP3    H271151   2.862   4.973   1.920 -0.2307 -2.1068  0.2404
16554TIP3   OH271152   2.055   2.549   4.982 -0.0887 -0.6597 -0.0774
16554TIP3    H171153   2.096   2.612   5.040 -0.1625 -0.3919 -0.3144
16554TIP3    H271154   2.129   2.500   4.944 -0.0842 -1.4955  0.9730
16555TIP3   OH271155   0.999   4.981  15.634  0.7780 -0.0429  0.0501
16555TIP3    H171156   1.005   4.886  15.637  2.1312 -0.0000 -0.4275
16555TIP3    H271157   1.022   5.003  15.543  0.8522  0.7583  0.2552
16556TIP3   OH271158   1.613   0.725  15.376 -0.7389 -0.1117  0.8582
16556TIP3    H171159   1.527   0.741  15.337  0.0075 -0.2324 -0.9323
16556TIP3    H271160   1.611   0.632  15.399 -0.2574 -0.7804 -1.5232
16557TIP3   OH271161   5.686   0.050  15.668 -0.2381  0.1953  0.6108
16557TIP3    H171162   5.670   0.070  15.576  2.3055  0.5113  0.1664
16557TIP3    H271163   5.769   0.093  15.688  0.9394 -2.4907  2.1343
16558TIP3   OH271164   6.678   3.291  16.200 -0.1155  0.2273  0.0387
16558TIP3    H171165   6.684   3.372  16.250  2.8426  0.2940 -0.2665
16558TIP3    H271166   6.730   3.228  16.250 -0.3265 -0.8069 -0.9895
16559TIP3   OH271167   3.949   2.212   2.539  0.1867 -0.0939 -0.2330
16559TIP3    H171168   3.924   2.152   2.610 -0.8151 -0.3272 -0.7726
16559TIP3    H271169   3.896   2.185   2.464  1.7416 -0.3030 -1.3033
16560TIP3   OH271170   1.061   4.257  16.685 -0.0710  0.3754 -0.1595
16560TIP3    H171171   1.106   4.319  16.628  0.4896 -0.9487 -1.1974
16560TIP3    H271172   1.092   4.171  16.658  0.6213 -0.3155  2.4926
16561TIP3   OH271173   2.253   6.712   2.201 -0.2120 -0.0494 -0.4177
16561TIP3    H171174   2.310   6.727   2.277 -0.3372 -0.1665 -0.2982
16561TIP3    H271175   2.164   6.716   2.237 -0.2896  0.4810 -0.6697
16562TIP3   OH271176   6.124   3.758   5.670 -0.2961  0.8193  0.0118
16562TIP3    H171177   6.118   3.676   5.620 -0.1161  0.9207 -0.1753
16562TIP3    H271178   6.061   3.816   5.628  2.2224  2.0882 -2.3337
16563TIP3   OH271179   1.857   0.867  14.313  0.5136 -0.3380 -0.2575
16563TIP3    H171180   1.812   0.838  14.233  2.4865  2.2451 -2.5014
16563TIP3    H271181   1.832   0.959  14.322  1.3193 -0.2469  1.4179
16564TIP3   OH271182   1.944   5.749   3.073 -0.6070 -0.1566  0.0156
16564TIP3    H171183   1.919   5.820   3.013  3.5800  0.4260 -1.3302
16564TIP3    H271184   2.039   5.742   3.064 -0.4397 -3.8111  2.5701
16565TIP3   OH271185   6.386   3.652   4.211  0.3261 -0.2858 -0.3568
16565TIP3    H171186   6.478   3.638   4.229  0.3756 -0.6107 -0.8375
16565TIP3    H271187   6.376   3.630   4.118  0.3968  2.7862 -1.2004
16566TIP3   OH271188   5.128   4.353  12.150  0.0613 -0.2119 -0.4414
16566TIP3    H171189   5.081   4.407  12.088 -1.0636 -1.9506 -1.1867
16566TIP3    H271190   5.176   4.290  12.096  1.1811 -0.0923  0.3876
16567TIP3   OH271191   2.062   3.713   0.407  0.3201 -0.1582  0.4444
16567TIP3    H171192   2.113   3.635   0.385 -0.2480 -0.1803 -0.9062
16567TIP3    H271193   2.078   3.727   0.501  0.2498 -2.0334  0.7741
16568TIP3   OH271194   2.704   6.174   1.628 -0.2964 -0.0631 -0.1639
16568TIP3    H171195   2.647   6.250   1.613 -0.0561 -0.1758 -1.7552
16568TIP3    H271196   2.646   6.099   1.622 -0.2799 -0.0840 -0.0626
16569TIP3   OH271197   5.328   3.041  14.413  0.0681 -0.0574  0.4394
16569TIP3    H171198   5.335   3.136  14.423 -0.6901 -0.1086  1.5381
16569TIP3    H271199   5.288   3.011  14.494  2.1108 -1.5465  0.9795
16570TIP3   OH271200   5.826   3.573  16.155  0.2957 -0.6028 -0.1295
16570TIP3    H171201   5.781   3.654  16.133  0.7095 -0.5696 -0.9145
16570TIP3    H271202   5.823   3.522  16.074  2.3730 -0.2434 -0.4957
16571TIP3   OH271203   2.934   0.122  13.112 -0.1703 -0.0340 -0.1034
16571TIP3    H171204   2.983   0.063  13.055  2.7021  2.1190 -0.0449
16571TIP3    H271205   2.973   0.110  13.199  0.5636  1.9725 -0.1144
16572TIP3   OH271206   3.588   6.390  12.223 -0.0755  0.6734  0.5292
16572TIP3    H171207   3.601   6.461  12.160  0.7827  1.2283  1.3052
16572TIP3    H271208   3.602   6.431  12.309  0.2849 -0.3919  1.0014
16573TIP3   OH271209   5.658   0.207  13.859 -0.1254  0.8787  0.0759
16573TIP3    H171210   5.665   0.112  13.866 -0.2036  0.9706  1.6936
16573TIP3    H271211   5.669   0.225  13.765  0.4738 -0.6617 -0.1721
16574TIP3   OH271212   5.675   0.649  16.777 -0.1088  0.3789 -0.3509
16574TIP3    H171213   5.712   0.563  16.798 -0.4537 -0.2963 -2.2514
16574TIP3    H271214   5.729   0.681  16.704 -0.4267  1.4627 -0.1285
16575TIP3   OH271215   1.964   1.707  13.862 -0.2681 -0.3086  0.0891
16575TIP3    H171216   1.946   1.710  13.768 -0.4306 -0.9559  0.0961
16575TIP3    H271217   1.908   1.776  13.899 -0.8696 -0.6310 -0.1935
16576TIP3   OH271218   0.487   2.052   6.634  0.4190 -0.0658 -0.9835
16576TIP3    H171219   0.503   2.133   6.586  2.5042  0.6026  0.6599
16576TIP3    H271220   0.395   2.057   6.660  0.3890  1.5625 -1.2946
16577TIP3   OH271221   3.545   1.234  16.446 -0.1354 -0.2821  0.3335
16577TIP3    H171222   3.587   1.153  16.476  0.0783  0.2084  1.4219
16577TIP3    H271223   3.471   1.204  16.393 -0.3342 -1.2123  1.0952
16578TIP3   OH271224   6.663   1.169  15.691 -0.0465  0.0356 -0.4009
16578TIP3    H171225   6.633   1.172  15.781 -2.0745 -0.5922 -1.0127
16578TIP3    H271226   6.700   1.257  15.675 -4.1422  1.9778 -0.3850
16579TIP3   OH271227   4.097   2.365   1.381  0.8028 -0.4293 -0.4993
16579TIP3    H171228   4.148   2.294   1.341  0.5460 -0.1394 -1.3566
16579TIP3    H271229   4.162   2.429   1.410  1.0339 -0.9764  0.2356
16580TIP3   OH271230   2.492   0.067  10.854  0.3715 -0.4380  0.3139
16580TIP3    H171231   2.550   0.141  10.872  0.1300 -0.4598  1.1750
16580TIP3    H271232   2.537   0.018  10.784  0.8598  0.1382  0.2214
16581TIP3   OH271233   1.124   1.675   2.354 -0.3530 -0.0335  0.3244
16581TIP3    H171234   1.047   1.620   2.337 -0.3997 -0.3519  1.5085
16581TIP3    H271235   1.108   1.713   2.440 -0.1432  1.5681 -0.3051
16582TIP3   OH271236   1.976   2.006   5.355 -0.0077  0.2499  0.3141
16582TIP3    H171237   2.024   1.924   5.366  0.9520  0.6537 -0.6867
16582TIP3    H271238   1.907   2.003   5.421 -0.4911 -1.7179 -0.2418
16583TIP3   OH271239   4.074   0.837  12.205 -0.6495 -0.5492  0.3348
16583TIP3    H171240   4.084   0.742  12.195  2.0484 -0.3560  0.4173
16583TIP3    H271241   4.055   0.849  12.298  0.9932 -0.9754  0.7718
16584TIP3   OH271242   6.185   1.811   4.204  0.2254  0.4950  0.0732
16584TIP3    H171243   6.246   1.737   4.202  1.0761  1.1335  1.3120
16584TIP3    H271244   6.198   1.850   4.290 -1.7456  0.8302  0.2474
16585TIP3   OH271245   5.482   3.381   1.580  0.3343  0.1664 -0.2259
16585TIP3    H171246   5.479   3.375   1.676  0.2910 -1.1594 -0.2962
16585TIP3    H271247   5.563   3.429   1.562  0.3269  0.4651  0.4691
16586TIP3   OH271248   1.682   3.977   1.842  0.4784  0.4430 -0.1334
16586TIP3    H171249   1.684   3.948   1.751 -1.4828  0.0494 -0.0998
16586TIP3    H271250   1.756   3.932   1.883  1.5595  0.8417 -1.5576
16587TIP3   OH271251   2.416   5.195   1.532 -0.3270  0.1728  0.1585
16587TIP3    H171252   2.360   5.238   1.468  0.1678  0.2996 -0.1992
16587TIP3    H271253   2.362   5.126   1.570 -0.4609 -0.2506 -0.7731
16588TIP3   OH271254   6.137   6.159   2.946  0.1113 -0.4372 -0.4262
16588TIP3    H171255   6.192   6.189   3.019  0.9983  2.6637 -2.1971
16588TIP3    H271256   6.057   6.211   2.953  0.1106 -0.2730 -1.5036
16589TIP3   OH271257   3.165   2.506  16.297  0.3804  0.2044  0.1456
16589TIP3    H171258   3.089   2.492  16.241  1.6757  0.5707 -1.7782
16589TIP3    H271259   3.194   2.418  16.320 -0.7760  0.0585  1.1884
16590TIP3   OH271260   0.164   3.947  14.797  0.0160 -0.0502  0.0380
16590TIP3    H171261   0.187   3.919  14.886 -0.9352 -0.2425  0.2288
16590TIP3    H271262   0.248   3.952  14.751  0.3979 -1.3159  0.5593
16591TIP3   OH271263   5.123   2.533   5.580 -0.1502 -0.2661  0.3632
16591TIP3    H171264   5.209   2.561   5.547  0.8645 -1.5707  1.7260
16591TIP3    H271265   5.060   2.575   5.522  1.3622  1.7531  0.0587
16592TIP3   OH271266   2.222   1.855   5.010  0.3648 -0.3481  0.0661
16592TIP3    H171267   2.135   1.818   5.017 -1.3727  3.3109  0.5064
16592TIP3    H271268   2.261   1.842   5.097  0.0178 -1.3970  0.0777
16593TIP3   OH271269   2.210   3.300  14.006  0.0153 -0.4783  0.1150
16593TIP3    H171270   2.125   3.297  13.961  0.4534 -0.3593 -0.7343
16593TIP3    H271271   2.268   3.346  13.945  0.2682  1.0338  1.4184
16594TIP3   OH271272   3.802   5.756  16.913  0.0520  0.4445 -0.2500
16594TIP3    H171273   3.881   5.801  16.942  0.2624  0.1657 -0.3919
16594TIP3    H271274   3.739   5.827  16.897 -0.2404  0.5983  1.3605
16595TIP3   OH271275   5.474   3.230  13.544 -0.3880 -0.2929 -0.1006
16595TIP3    H171276   5.516   3.171  13.607 -0.3494 -0.3628 -0.1914
16595TIP3    H271277   5.491   3.317  13.578  1.1744 -0.2293 -0.9537
16596TIP3   OH271278   4.523   0.991   4.220 -0.1477 -0.4091  0.6443
16596TIP3    H171279   4.563   0.976   4.306  0.6821 -0.0627  0.3327
16596TIP3    H271280   4.591   0.966   4.158  0.1860  1.6677  0.0957
16597TIP3   OH271281   5.779   5.449   2.737 -0.7034 -0.0084  0.7545
16597TIP3    H171282   5.716   5.450   2.665  0.5705  2.4504 -0.4478
16597TIP3    H271283   5.743   5.510   2.802 -1.3504 -1.4602  1.8280
16598TIP3   OH271284   6.170   0.962   4.754 -0.3175 -0.0485  0.0150
16598TIP3    H171285   6.168   0.916   4.670 -0.9121  1.5903 -0.9080
16598TIP3    H271286   6.252   1.012   4.752 -0.3007 -0.0583  0.4465
16599TIP3   OH271287   0.829   0.149   3.044  0.4113  0.1227 -0.0995
16599TIP3    H171288   0.834   0.244   3.055  1.1141  0.3980 -2.3394
16599TIP3    H271289   0.900   0.116   3.098  1.2874  1.0240 -0.6626
16600TIP3   OH271290   3.945   1.885  16.195 -0.4357 -0.3283  0.0552
16600TIP3    H171291   4.026   1.846  16.163  1.1579  1.6972  1.3714
16600TIP3    H271292   3.941   1.859  16.287 -0.3018  1.0423  0.4662
16601TIP3   OH271293   5.345   6.172  11.381  0.2706 -0.1391 -0.2097
16601TIP3    H171294   5.286   6.247  11.387 -0.3423 -0.5356 -1.1154
16601TIP3    H271295   5.423   6.199  11.430  0.8309  1.8090 -2.0587
16602TIP3   OH271296   3.197   5.309  11.932  0.2936  0.0946 -1.1260
16602TIP3    H171297   3.279   5.274  11.966  0.1392  1.1085  0.4369
16602TIP3    H271298   3.132   5.240  11.949  0.2947  0.4284  0.4133
16603TIP3   OH271299   2.002   5.895   0.830  0.1977  0.3156 -0.6944
16603TIP3    H171300   1.968   5.978   0.863 -1.9293 -0.7577 -0.0498
16603TIP3    H271301   2.031   5.849   0.909 -0.4414 -0.3210 -0.8249
16604TIP3   OH271302   5.229   4.876   0.065 -0.3096 -0.1780  0.2274
16604TIP3    H171303   5.226   4.826  -0.017  0.8174 -1.5016  0.9404
16604TIP3    H271304   5.318   4.910   0.069 -0.2527 -0.3962  1.0451
16605TIP3   OH271305   1.918   2.288  16.873 -0.0242 -0.0373  0.6565
16605TIP3    H171306   2.002   2.295  16.920 -0.7075 -2.2336  2.3760
16605TIP3    H271307   1.863   2.355  16.914  0.3171  0.1239  0.8569
16606TIP3   OH271308   4.294   4.801   6.162  0.3674  0.1756 -0.2453
16606TIP3    H171309   4.244   4.867   6.210  0.9671  0.0396  0.5736
16606TIP3    H271310   4.268   4.718   6.202  1.3849  0.1196  0.3266
16607TIP3   OH271311   6.730   1.119  13.074  0.1000 -0.0709 -0.3646
16607TIP3    H171312   6.748   1.025  13.072  0.8993  0.0633  0.1043
16607TIP3    H271313   6.723   1.140  13.167 -1.2708  0.1314 -0.4848
16608TIP3   OH271314   2.189   4.657  11.397  0.1209  0.9383 -0.1845
16608TIP3    H171315   2.153   4.662  11.309 -0.3868  3.6652  0.0973
16608TIP3    H271316   2.280   4.629  11.384  0.2343  1.8909 -1.6300
16609TIP3   OH271317   1.394   5.243   2.684 -0.0235  0.2071  0.2085
16609TIP3    H171318   1.357   5.168   2.638  4.6945 -1.7071 -1.1608
16609TIP3    H271319   1.387   5.221   2.776 -0.4721 -0.9963 -0.0972
16610TIP3   OH271320   2.354   5.631  11.747 -0.1881  0.1820  0.1777
16610TIP3    H171321   2.371   5.539  11.731  0.5225  0.4818 -0.9379
16610TIP3    H271322   2.298   5.633  11.824  0.2389 -1.1478  0.5378
16611TIP3   OH271323   2.477   0.732   4.272 -0.2742  0.0480 -0.4767
16611TIP3    H171324   2.491   0.670   4.343 -1.0541 -0.1249 -0.4715
16611TIP3    H271325   2.564   0.768   4.254 -0.2211  0.9014  1.2929
16612TIP3   OH271326   4.016   4.879   0.145 -0.3590 -0.0383 -0.3185
16612TIP3    H171327   3.932   4.906   0.184  0.5806  1.7582  0.6208
16612TIP3    H271328   4.017   4.784   0.153 -2.0131 -0.0375  0.2698
16613TIP3   OH271329   2.186   2.915  13.494  0.0534  0.0543 -0.4655
16613TIP3    H171330   2.119   2.951  13.553  0.6841 -2.0219  1.7103
16613TIP3    H271331   2.136   2.866  13.429 -0.7151  3.2536 -2.4775
16614TIP3   OH271332   3.136   2.635   4.383 -0.0938 -0.1332  0.5979
16614TIP3    H171333   3.126   2.619   4.477 -1.1528 -0.9645  0.3727
16614TIP3    H271334   3.047   2.653   4.353  0.0967 -0.7597 -0.3810
16615TIP3   OH271335   3.256   0.902  14.278  0.2000 -0.4126  0.1360
16615TIP3    H171336   3.227   0.816  14.308 -1.7645 -0.0711 -0.6204
16615TIP3    H271337   3.313   0.884  14.203 -0.5807 -1.0758 -0.3141
16616TIP3   OH271338   4.880   3.038  15.937  0.4466  0.0807 -0.3466
16616TIP3    H171339   4.825   3.070  16.008  0.1477 -0.0977 -0.4974
16616TIP3    H271340   4.969   3.047  15.971  0.5113  2.7118 -1.0347
16617TIP3   OH271341   1.714   2.496   5.659  0.3389 -0.1949 -0.1162
16617TIP3    H171342   1.668   2.490   5.575  0.6108  0.8119 -0.3495
16617TIP3    H271343   1.644   2.500   5.724  0.0817 -3.3108 -0.0424
16618TIP3   OH271344   5.193   5.576   4.497 -0.4429 -0.8398 -0.3784
16618TIP3    H171345   5.183   5.518   4.572  2.7277 -0.0379  0.8140
16618TIP3    H271346   5.130   5.647   4.513  1.3221  0.2549  2.6120
16619TIP3   OH271347   5.672   3.720   4.303 -0.4203 -0.1022 -0.2377
16619TIP3    H171348   5.698   3.800   4.348 -0.1075  0.0990 -0.7696
16619TIP3    H271349   5.603   3.748   4.242  0.1163 -0.1260 -0.8597
16620TIP3   OH271350   3.467   1.438   1.284 -0.2415  0.0551  0.4963
16620TIP3    H171351   3.513   1.502   1.231  0.6304 -2.1578 -1.6251
16620TIP3    H271352   3.440   1.370   1.222 -0.6751 -1.8744  2.6381
16621TIP3   OH271353   2.399   3.931   0.477  0.4031  0.1505  0.2281
16621TIP3    H171354   2.360   3.976   0.402  1.8728 -0.0909 -0.7111
16621TIP3    H271355   2.451   3.998   0.521  1.3096 -0.2190 -0.2535
16622TIP3   OH271356   4.938   2.724  16.951 -0.4087  0.3760  0.8106
16622TIP3    H171357   4.980   2.755  16.871 -1.9406 -0.0760 -0.2248
16622TIP3    H271358   4.988   2.763  17.022 -0.0582  2.2197 -0.3914
16623TIP3   OH271359   1.247   1.848   1.110  0.3180  0.0177  0.5437
16623TIP3    H171360   1.165   1.896   1.119 -0.4805 -1.2165  0.1554
16623TIP3    H271361   1.247   1.817   1.019  0.8463 -0.6297  0.7534
16624TIP3   OH271362   5.372   2.053   0.244  0.1629 -0.3730  0.1347
16624TIP3    H171363   5.357   2.009   0.327 -4.7557  0.4277  0.0078
16624TIP3    H271364   5.431   2.125   0.265 -0.7582 -0.3219  2.9649
16625TIP3   OH271365   3.865   3.727  15.951  0.2851 -0.0259 -0.4135
16625TIP3    H171366   3.892   3.712  15.860 -2.2194 -1.4397 -1.0294
16625TIP3    H271367   3.834   3.817  15.953  1.9331  0.5691 -0.4854
16626TIP3   OH271368   0.521   1.878   1.021  0.0393  0.2752  0.2230
16626TIP3    H171369   0.567   1.916   0.946  1.2943 -2.0918 -0.3147
16626TIP3    H271370   0.433   1.861   0.989 -0.0142  1.0843 -0.0723
16627TIP3   OH271371   5.186   3.198   0.623  0.5077 -0.0910 -0.5913
16627TIP3    H171372   5.092   3.201   0.639  0.5475 -1.0546 -0.0695
16627TIP3    H271373   5.195   3.152   0.540  0.5608 -1.6719  0.2460
16628TIP3   OH271374   3.952   4.631  10.824 -0.5056  0.2624  0.7751
16628TIP3    H171375   3.871   4.669  10.791  0.4925  2.5636  0.8196
16628TIP3    H271376   3.999   4.602  10.746 -0.3125  1.1866  0.5375
16629TIP3   OH271377   0.916   6.143  14.999 -0.2689 -0.2658  0.2081
16629TIP3    H171378   0.910   6.137  15.094 -0.9394  0.6854  0.2342
16629TIP3    H271379   1.009   6.157  14.981 -0.2401  0.2779  0.7693
16630TIP3   OH271380   3.949   0.411   1.274  0.1886 -0.2001 -0.2524
16630TIP3    H171381   3.961   0.445   1.186  0.3409  0.7388  0.1141
16630TIP3    H271382   3.854   0.397   1.281  0.2265 -0.7228 -0.7118
16631TIP3   OH271383   3.588   1.240   3.168 -0.4406  0.0574 -0.0610
16631TIP3    H171384   3.664   1.191   3.134  1.4763  2.5917  0.2976
16631TIP3    H271385   3.516   1.177   3.163  1.6415 -2.5190 -0.4027
16632TIP3   OH271386   1.927   5.082  10.508 -0.4541  0.1324  0.2949
16632TIP3    H171387   2.006   5.096  10.560  0.1340  0.1939 -0.6049
16632TIP3    H271388   1.905   5.169  10.474 -1.2114  0.2131  0.9453
16633TIP3   OH271389   6.767   1.744  16.369 -0.6781 -0.0781  0.1640
16633TIP3    H171390   6.715   1.746  16.289 -1.6895 -0.0681  0.8037
16633TIP3    H271391   6.818   1.824  16.367  0.3376 -0.7266 -1.1234
16634TIP3   OH271392   6.484   5.567  14.361  0.1638  0.1207  0.1114
16634TIP3    H171393   6.420   5.584  14.292  0.0478 -0.9125 -0.0405
16634TIP3    H271394   6.443   5.599  14.441  0.4044  1.5761 -0.3131
16635TIP3   OH271395   1.511   6.523   0.749 -0.5953  0.1220 -0.2432
16635TIP3    H171396   1.514   6.439   0.704  0.2466 -0.5090  0.9194
16635TIP3    H271397   1.538   6.587   0.683  1.9109 -0.9347 -0.3536
16636TIP3   OH271398   4.923   5.459   1.773 -0.5004  0.3214 -0.5725
16636TIP3    H171399   4.881   5.537   1.735  0.3369  0.1029 -2.0244
16636TIP3    H271400   4.999   5.494   1.820 -0.3579  0.4341 -0.8789
16637TIP3   OH271401   2.929   1.606  12.850  0.9979  0.1704 -0.0382
16637TIP3    H171402   2.895   1.690  12.818 -0.5344 -0.3791  0.0381
16637TIP3    H271403   2.879   1.589  12.930 -0.5513 -1.9573 -1.3643
16638TIP3   OH271404   3.392   4.528  13.139 -0.4180 -0.2029 -0.1571
16638TIP3    H171405   3.331   4.522  13.065  1.5325 -1.7008 -1.7387
16638TIP3    H271406   3.335   4.529  13.217 -2.4761 -1.9857 -1.5137
16639TIP3   OH271407   1.884   2.244  10.530 -0.0266  0.3944  0.2970
16639TIP3    H171408   1.953   2.243  10.463 -0.1738 -0.8383  0.1422
16639TIP3    H271409   1.851   2.154  10.531 -0.2594  0.4848  1.8007
16640TIP3   OH271410   2.104   4.040  16.590 -0.0385 -0.1996  0.1448
16640TIP3    H171411   2.119   3.966  16.532 -1.3540  0.1220 -0.6555
16640TIP3    H271412   2.126   4.007  16.677  2.0480 -0.6652 -0.5035
16641TIP3   OH271413   6.731   5.091  14.054  0.4307 -0.4266  0.2560
16641TIP3    H171414   6.818   5.060  14.032  0.5265 -0.8535  1.1773
16641TIP3    H271415   6.728   5.181  14.023  0.5276 -0.9993 -1.4940
16642TIP3   OH271416   4.672   0.824  14.474  0.1851  0.0047 -0.2191
16642TIP3    H171417   4.602   0.761  14.494 -0.0669  0.0233 -1.0134
16642TIP3    H271418   4.693   0.864  14.559 -1.2077  0.4608 -0.0567
16643TIP3   OH271419   3.660   1.683   3.757 -0.4369  0.4573  0.1734
16643TIP3    H171420   3.694   1.605   3.714  0.0139  0.9338 -0.3401
16643TIP3    H271421   3.599   1.721   3.693 -1.2765  0.0976  0.7359
16644TIP3   OH271422   2.270   2.114  17.059 -0.3171  0.6795 -0.6038
16644TIP3    H171423   2.342   2.088  17.117 -0.6517 -1.4879 -1.0674
16644TIP3    H271424   2.215   2.171  17.113 -2.5697 -3.9447  2.6884
16645TIP3   OH271425   3.250   0.221   0.334  0.7932  0.0455  0.3842
16645TIP3    H171426   3.331   0.170   0.330  0.2525 -1.0217  2.1652
16645TIP3    H271427   3.181   0.155   0.335 -0.2257  0.9402 -2.0127
16646TIP3   OH271428   6.676   0.074  12.639 -0.2004  0.2389 -0.6931
16646TIP3    H171429   6.725   0.042  12.563  0.8740  0.0844  0.0401
16646TIP3    H271430   6.742   0.088  12.706 -1.3393 -1.5969  0.9073
16647TIP3   OH271431   5.907   4.400  10.696  0.6350 -0.0899 -0.6952
16647TIP3    H171432   5.814   4.407  10.719  0.9507  2.1056  0.1876
16647TIP3    H271433   5.908   4.353  10.612 -1.4469  1.4486 -1.6834
16648TIP3   OH271434   3.800   0.477   0.060 -0.0484  0.3778 -0.3513
16648TIP3    H171435   3.846   0.402   0.097 -1.7731 -1.3490 -1.5151
16648TIP3    H271436   3.786   0.536   0.135  4.1076  1.1775  0.0323
16649TIP3   OH271437   0.319   4.338   6.406 -0.3968 -0.3444  0.4683
16649TIP3    H171438   0.249   4.284   6.370 -0.0820 -0.1181 -0.5139
16649TIP3    H271439   0.377   4.275   6.449  0.5057 -0.9619 -1.5443
16650TIP3   OH271440   1.094   6.616   4.226  0.2316 -0.3746  0.3030
16650TIP3    H171441   1.180   6.650   4.254 -0.3392  1.0206  0.4058
16650TIP3    H271442   1.104   6.600   4.133 -0.1234  2.2157 -0.2366
16651TIP3   OH271443   3.892   6.366  15.236  0.5250 -0.4210  0.2530
16651TIP3    H171444   3.877   6.280  15.276  1.2221 -0.1402  1.1398
16651TIP3    H271445   3.930   6.419  15.306  0.3231  0.5457 -0.3534
16652TIP3   OH271446   5.567   5.415  14.935  0.1737 -0.3435 -0.3512
16652TIP3    H171447   5.606   5.333  14.967  2.0902 -0.1760 -2.0808
16652TIP3    H271448   5.487   5.387  14.891  0.7151 -1.3069 -0.7757
16653TIP3   OH271449   5.925   2.818  15.564 -0.5146  0.2213 -0.0364
16653TIP3    H171450   5.963   2.869  15.493  0.0752  1.7531  1.3061
16653TIP3    H271451   5.834   2.847  15.569 -0.2484  0.9933  0.5571
16654TIP3   OH271452   6.280   3.586   1.182 -0.7136 -0.3887  0.4670
16654TIP3    H171453   6.278   3.650   1.110 -0.6852  0.2964  1.0638
16654TIP3    H271454   6.190   3.554   1.187 -0.3668 -1.7406 -0.9925
16655TIP3   OH271455   4.346   0.101  11.427  0.1938 -0.3433 -0.1075
16655TIP3    H171456   4.338   0.071  11.337  1.1043 -0.7875 -0.0576
16655TIP3    H271457   4.396   0.183  11.421  0.9724 -0.7986  0.0488
16656TIP3   OH271458   5.442   3.446   1.277 -0.2274  0.5184 -0.0136
16656TIP3    H171459   5.402   3.409   1.356  1.5004  1.0142  1.1365
16656TIP3    H271460   5.523   3.485   1.307  2.9111 -3.2069 -2.6497
16657TIP3   OH271461   3.762   1.223   2.587  0.5780  0.2425  0.6090
16657TIP3    H171462   3.741   1.130   2.586  0.2502  0.3151  0.5516
16657TIP3    H271463   3.712   1.258   2.660 -0.4447  0.6286 -0.2425
16658TIP3   OH271464   3.741   4.208   0.659 -0.5170  0.1498  0.0892
16658TIP3    H171465   3.749   4.125   0.705 -0.9550 -0.7391 -1.3829
16658TIP3    H271466   3.647   4.218   0.642 -0.3941  0.5704 -0.3997
16659TIP3   OH271467   2.886   5.378   4.207 -0.7830 -0.3419 -0.3316
16659TIP3    H171468   2.897   5.362   4.300 -0.7816 -1.0646 -0.4545
16659TIP3    H271469   2.915   5.297   4.164  1.8039  0.8705 -1.1007
16660TIP3   OH271470   2.415   2.522  10.788 -0.3218 -0.4106  0.2693
16660TIP3    H171471   2.441   2.465  10.715  0.0135 -1.2893  1.0529
16660TIP3    H271472   2.326   2.549  10.766 -0.1848 -0.5690 -0.5249
16661TIP3   OH271473   3.602   3.001   3.469 -0.0643 -0.4097 -0.2989
16661TIP3    H171474   3.669   3.060   3.435 -0.0225  0.8753  1.7749
16661TIP3    H271475   3.632   2.978   3.557 -0.9514 -2.1542 -0.4109
16662TIP3   OH271476   1.543   4.233  17.117 -0.1291  0.6253 -0.0178
16662TIP3    H171477   1.478   4.253  17.185  0.7011 -1.8254  1.6223
16662TIP3    H271478   1.490   4.211  17.040 -1.2397  0.0123  0.8851
16663TIP3   OH271479   6.237   1.665   2.515  0.2395  0.0449 -0.0408
16663TIP3    H171480   6.298   1.665   2.588 -1.8032 -1.4598  1.8156
16663TIP3    H271481   6.187   1.584   2.525 -2.2830  1.3224 -1.2109
16664TIP3   OH271482   6.656   1.463  12.052 -0.1369 -0.1212 -0.1161
16664TIP3    H171483   6.744   1.454  12.016 -0.5451 -1.0167 -0.9496
16664TIP3    H271484   6.669   1.490  12.143  0.9937 -0.3359 -0.2045
16665TIP3   OH271485   2.242   6.131   1.078  0.1018  0.5099  0.6379
16665TIP3    H171486   2.150   6.149   1.060  0.3124  2.3259  1.1670
16665TIP3    H271487   2.269   6.201   1.137  1.2168 -1.3535  2.4660
16666TIP3   OH271488   1.020   3.342  13.311 -0.2209  0.5925  0.8843
16666TIP3    H171489   0.959   3.340  13.384  1.4253 -1.4630  2.3140
16666TIP3    H271490   1.054   3.432  13.310 -1.9887  1.2968  1.0903
16667TIP3   OH271491   5.972   2.071   1.132 -0.3743  0.1397  0.0590
16667TIP3    H171492   5.918   1.993   1.121  1.9041 -1.7334  1.1279
16667TIP3    H271493   5.980   2.107   1.044 -0.4296 -1.6392 -0.7316
16668TIP3   OH271494   2.366   4.872   2.645 -0.0191  0.6482 -0.3891
16668TIP3    H171495   2.286   4.922   2.631 -0.9724 -0.3838  1.1127
16668TIP3    H271496   2.426   4.934   2.687  0.0271  1.4319 -1.5434
16669TIP3   OH271497   2.248   4.991   1.405  0.1930  0.0194  0.4513
16669TIP3    H171498   2.177   5.051   1.425 -0.7129  0.6798 -3.7228
16669TIP3    H271499   2.293   5.030   1.330  3.2313 -1.7831  1.1330
16670TIP3   OH271500   2.566   4.311  16.898 -0.4271 -0.1803 -0.0831
16670TIP3    H171501   2.622   4.248  16.942 -0.8018  2.0631  4.0586
16670TIP3    H271502   2.626   4.379  16.866 -0.4018 -0.2897 -0.2688
16671TIP3   OH271503   3.322   6.624  11.573  0.2641  0.3030  0.6395
16671TIP3    H171504   3.317   6.603  11.666  1.8878  0.0335  0.7087
16671TIP3    H271505   3.277   6.707  11.564 -1.7404 -0.6557  1.2877
16672TIP3   OH271506   4.975   0.208  16.289  0.4704  0.2331  0.2076
16672TIP3    H171507   5.033   0.135  16.310 -0.1954 -0.0311  1.1882
16672TIP3    H271508   4.904   0.201  16.352  0.1910  1.4986  0.0522
16673TIP3   OH271509   5.571   3.040   0.615  0.0048 -0.1408  0.4182
16673TIP3    H171510   5.540   3.019   0.527  3.0854 -1.4414 -0.4982
16673TIP3    H271511   5.576   2.956   0.660 -1.3939  0.4915  1.8670
16674TIP3   OH271512   0.942   3.446   1.686 -0.2617 -0.0463 -0.0057
16674TIP3    H171513   0.986   3.517   1.640  0.5868 -0.4211  0.2142
16674TIP3    H271514   0.934   3.477   1.776 -1.2700  0.3894 -0.2344
16675TIP3   OH271515   0.263   4.937   3.616  0.0716 -0.1419 -0.3932
16675TIP3    H171516   0.317   4.979   3.684  0.1688  1.9221 -1.6597
16675TIP3    H271517   0.267   4.844   3.637 -0.8318  0.4767  3.0866
16676TIP3   OH271518   6.185   5.301  13.390 -0.6899  0.4270  0.2757
16676TIP3    H171519   6.162   5.394  13.392 -0.4457  0.4691  1.6036
16676TIP3    H271520   6.221   5.283  13.476 -2.8796 -1.4356  0.9022
16677TIP3   OH271521   6.263   6.200   5.178 -0.4215  0.1183 -0.0799
16677TIP3    H171522   6.308   6.126   5.218 -1.2297 -1.2946 -1.6379
16677TIP3    H271523   6.330   6.245   5.128  0.3125  1.1471  1.7281
16678TIP3   OH271524   4.316   2.591   2.385  0.2241 -0.1152 -0.0559
16678TIP3    H171525   4.253   2.661   2.369 -0.6374 -1.0100 -0.6937
16678TIP3    H271526   4.263   2.516   2.411  1.2738  0.0721  2.9790
16679TIP3   OH271527   0.983   0.426   5.250 -0.4926 -0.0918  0.1040
16679TIP3    H171528   0.992   0.445   5.344 -0.5060 -1.1854  0.3408
16679TIP3    H271529   0.890   0.444   5.231 -0.3084  0.9358  0.0901
16680TIP3   OH271530   4.965   1.820  11.198 -0.2761  0.1748 -0.0610
16680TIP3    H171531   5.034   1.795  11.137 -3.1140 -1.4166 -2.9228
16680TIP3    H271532   4.938   1.908  11.169  1.8827  1.8473  2.5294
16681TIP3   OH271533   0.278   4.223  14.955  0.1754  0.5186  0.8070
16681TIP3    H171534   0.333   4.294  14.922  0.0454  0.4889  0.5277
16681TIP3    H271535   0.340   4.155  14.982  0.2298 -0.3627 -1.3984
16682TIP3   OH271536   5.535   3.378  12.684  0.3756  0.4603 -0.2721
16682TIP3    H171537   5.515   3.307  12.746  1.9079  1.0819  1.0215
16682TIP3    H271538   5.586   3.336  12.615  1.8520  0.3539  0.8268
16683TIP3   OH271539   1.128   1.916   0.378 -0.0455  0.2565 -0.4065
16683TIP3    H171540   1.127   1.871   0.294 -0.9642  2.1294 -1.4401
16683TIP3    H271541   1.183   1.992   0.365  0.7181 -0.0039  1.0459
16684TIP3   OH271542   3.259   4.888  11.261 -0.5056  0.0122 -0.3795
16684TIP3    H171543   3.332   4.830  11.283 -1.0304 -0.5677 -0.1359
16684TIP3    H271544   3.227   4.854  11.177 -1.6720 -0.9355  0.4029
16685TIP3   OH271545   5.342   6.563   0.968  0.1327  0.0181  0.2673
16685TIP3    H171546   5.352   6.517   0.885  0.0554  0.1018  0.2116
16685TIP3    H271547   5.426   6.609   0.980 -0.2689  0.9508 -0.3400
16686TIP3   OH271548   5.535   3.529  16.415 -0.3118 -0.1383  0.1466
16686TIP3    H171549   5.560   3.589  16.345 -0.4525 -0.3046 -0.0452
16686TIP3    H271550   5.482   3.462  16.372 -1.6764  0.5793  0.6718
16687TIP3   OH271551   2.899   4.789  11.243 -0.1463 -0.1909  0.1767
16687TIP3    H171552   2.849   4.794  11.324  1.6525 -1.3985  1.4036
16687TIP3    H271553   2.869   4.709  11.201 -0.2021 -0.2097  0.2525
16688TIP3   OH271554   4.582   0.154  16.216  0.2509 -0.1032 -0.2841
16688TIP3    H171555   4.658   0.123  16.264  0.1451 -0.9354 -0.6264
16688TIP3    H271556   4.553   0.232  16.263  0.2904 -0.7505  0.8533
16689TIP3   OH271557   1.783   0.327   0.067  0.4412  0.0305 -0.6121
16689TIP3    H171558   1.828   0.245   0.086  1.5401 -0.1343 -3.5031
16689TIP3    H271559   1.834   0.393   0.113  0.3606 -0.7133  0.6118
16690TIP3   OH271560   3.032   2.034  12.645  0.1013 -0.1358 -0.2031
16690TIP3    H171561   3.055   2.110  12.697 -2.6082  0.4750  0.2338
16690TIP3    H271562   3.043   2.063  12.554 -2.6447  1.5150 -0.1164
16691TIP3   OH271563   3.483   5.231  12.099 -0.5024  0.6315  0.2355
16691TIP3    H171564   3.503   5.163  12.163 -4.1190 -0.2150  0.6951
16691TIP3    H271565   3.478   5.312  12.151 -1.3972  0.2904  0.7112
16692TIP3   OH271566   4.161   2.826   1.274  0.1213 -0.5275  0.3199
16692TIP3    H171567   4.170   2.816   1.179 -0.8695 -1.8784  0.3411
16692TIP3    H271568   4.095   2.895   1.284  0.9491  0.3305  0.0635
16693TIP3   OH271569   5.058   5.994  16.173 -0.3492  0.1434  0.2499
16693TIP3    H171570   4.975   6.004  16.126 -0.8784  0.7149  1.2802
16693TIP3    H271571   5.124   5.999  16.105 -1.0941  0.9994 -0.4334
16694TIP3   OH271572   4.543   2.664  10.793 -0.1291 -0.5653 -0.0483
16694TIP3    H171573   4.480   2.593  10.790 -1.6378  0.7106  0.2775
16694TIP3    H271574   4.490   2.744  10.802  1.4987  0.5951 -0.1871
16695TIP3   OH271575   4.402   2.038   3.712  0.1026  0.9695  0.1018
16695TIP3    H171576   4.403   2.046   3.807 -1.3999 -0.7291  0.2890
16695TIP3    H271577   4.422   2.127   3.681 -0.1955  1.7360  1.9768
16696TIP3   OH271578   5.394   2.925   2.199  0.8751 -0.0119  0.0513
16696TIP3    H171579   5.379   2.862   2.270  1.0963 -0.8931 -0.6537
16696TIP3    H271580   5.407   2.870   2.121 -2.8009  0.8975 -1.4081
16697TIP3   OH271581   0.388   3.795   3.796  0.0739 -0.1210  0.2200
16697TIP3    H171582   0.312   3.816   3.851  0.7899 -2.0578  2.0933
16697TIP3    H271583   0.350   3.755   3.718 -0.8988  0.9287  0.1222
16698TIP3   OH271584   0.987   5.071   3.246  0.6251  0.1701 -0.1799
16698TIP3    H171585   0.912   5.129   3.250 -0.2253 -0.9438  2.0081
16698TIP3    H271586   0.993   5.045   3.154 -1.3611  0.6599 -0.4945
16699TIP3   OH271587   0.153   1.614   0.084  0.2545  0.2064 -0.0004
16699TIP3    H171588   0.201   1.547   0.133  0.4499  0.7288  0.5355
16699TIP3    H271589   0.169   1.592  -0.008  1.6930  0.4778  0.1555
16700TIP3   OH271590   3.088   2.591  13.168 -0.2282 -0.5737 -0.2763
16700TIP3    H171591   3.095   2.644  13.247 -1.0425  0.1291 -0.6644
16700TIP3    H271592   3.179   2.566  13.147  0.0524 -0.2206  0.4961
16701TIP3   OH271593   4.945   6.074  12.458 -0.2493  0.2897  0.2460
16701TIP3    H171594   4.963   6.164  12.432 -0.1011  0.3118  0.4310
16701TIP3    H271595   4.986   6.021  12.389 -1.0638  0.3762 -0.3239
16702TIP3   OH271596   3.256   2.014   2.494  0.0515 -0.3706 -0.3726
16702TIP3    H171597   3.230   1.929   2.457 -1.4126  0.5752 -1.6778
16702TIP3    H271598   3.215   2.016   2.580 -2.4215  0.1085 -1.4621
16703TIP3   OH271599   4.455   2.860  15.692  0.6424  0.4290  0.2976
16703TIP3    H171600   4.522   2.839  15.757  2.7004  1.3926 -1.3735
16703TIP3    H271601   4.434   2.952  15.709 -1.2732 -0.1984  1.6064
16704TIP3   OH271602   4.963   5.163   2.607  0.3363  0.8456  0.3260
16704TIP3    H171603   4.914   5.166   2.689 -0.4246 -1.4227  0.0153
16704TIP3    H271604   4.898   5.180   2.539 -0.5001 -3.3865 -0.1852
16705TIP3   OH271605   0.679   1.637   2.002  0.5646 -0.2712  0.3021
16705TIP3    H171606   0.639   1.559   2.040 -0.6514  1.2142  2.3145
16705TIP3    H271607   0.608   1.679   1.954  0.6457  0.5396  0.8577
16706TIP3   OH271608   4.083   5.553  14.533  0.1937  0.0538 -0.3062
16706TIP3    H171609   4.168   5.550  14.576 -0.0016 -0.4690  0.0627
16706TIP3    H271610   4.025   5.506  14.593 -0.4759  0.8905 -0.2904
16707TIP3   OH271611   3.886   0.828   4.195 -0.0375  0.0741 -0.1518
16707TIP3    H171612   3.794   0.810   4.211 -0.0178  0.6218  0.6181
16707TIP3    H271613   3.920   0.862   4.278  1.3047 -1.8462  0.1522
16708TIP3   OH271614   1.518   0.710  16.828 -0.6749  0.3778  0.2485
16708TIP3    H171615   1.434   0.689  16.787 -0.6812 -0.5900  0.7275
16708TIP3    H271616   1.499   0.714  16.921 -0.6150  2.3426  0.2132
16709TIP3   OH271617   4.057   3.131   0.794  0.0457 -0.0714 -0.2229
16709TIP3    H171618   4.013   3.206   0.833 -0.9731 -0.5915 -0.3589
16709TIP3    H271619   4.141   3.125   0.841 -0.6047  0.1071  0.9834
16710TIP3   OH271620   5.165   4.695  15.746  0.5962  0.7878 -0.2261
16710TIP3    H171621   5.207   4.701  15.661  0.2925  1.7067 -0.3248
16710TIP3    H271622   5.117   4.612  15.744  1.1919  0.4500 -0.6630
16711TIP3   OH271623   1.154   1.142   5.190  0.2392  0.2045  0.5216
16711TIP3    H171624   1.110   1.071   5.236  0.8263  0.7472  1.9914
16711TIP3    H271625   1.083   1.201   5.163 -0.1694 -0.4498  0.1563
16712TIP3   OH271626   2.806   4.327   3.032 -0.9226  0.1010  0.0115
16712TIP3    H171627   2.815   4.339   2.938 -1.4082 -0.0750 -0.0585
16712TIP3    H271628   2.884   4.369   3.069 -0.9228  0.5031 -0.4395
16713TIP3   OH271629   4.355   4.075  17.096  0.4490  0.5165  0.1183
16713TIP3    H171630   4.356   4.120  17.011  3.1487  1.7166  0.6796
16713TIP3    H271631   4.298   4.129  17.151  0.6826  1.1388 -0.2412
16714TIP3   OH271632   3.632   4.255   2.149 -0.6709 -0.0044  0.1903
16714TIP3    H171633   3.648   4.237   2.242  1.2885 -1.1715 -0.3133
16714TIP3    H271634   3.718   4.280   2.114 -1.1909 -0.4174 -1.4730
16715TIP3   OH271635   5.815   3.449  14.927  0.0526 -0.3757  0.2731
16715TIP3    H171636   5.746   3.390  14.957  0.2750 -0.8261 -0.0846
16715TIP3    H271637   5.802   3.529  14.978  0.4890 -1.1431  1.6505
16716TIP3   OH271638   4.706   1.973   0.675  0.3472  0.4043 -0.2774
16716TIP3    H171639   4.625   1.939   0.712  1.5224 -0.1140  1.9641
16716TIP3    H271640   4.743   1.899   0.626  0.2379  0.1456  0.0274
16717TIP3   OH271641   0.036   3.619  16.851 -0.2578 -0.4250  0.3468
16717TIP3    H171642   0.088   3.639  16.773 -0.4674  0.6519  0.4680
16717TIP3    H271643  -0.055   3.619  16.820 -0.3465  0.0766  0.6063
16718TIP3   OH271644   0.646   2.805  14.879  0.4615  0.2770  0.2780
16718TIP3    H171645   0.697   2.820  14.799  0.1254  3.6590  0.5467
16718TIP3    H271646   0.557   2.834  14.857 -0.3301 -1.4065  1.0914
16719TIP3   OH271647   0.224   6.473  11.892  0.5006 -0.2240 -0.3940
16719TIP3    H171648   0.255   6.562  11.879  0.5526 -0.1056  0.5156
16719TIP3    H271649   0.304   6.421  11.899  0.4798 -0.2053 -0.0064
16720TIP3   OH271650   5.719   6.208   2.589 -0.5977 -0.8078 -0.2331
16720TIP3    H171651   5.793   6.157   2.620 -0.4703 -1.5610 -1.6789
16720TIP3    H271652   5.642   6.156   2.610 -0.7404 -0.0691  1.1835
16721TIP3   OH271653   5.102   0.989   3.135  0.6542  0.5676 -0.4135
16721TIP3    H171654   5.053   1.024   3.209 -1.8631 -2.9288 -0.2190
16721TIP3    H271655   5.170   0.934   3.175 -0.8859 -1.5507 -0.5817
16722TIP3   OH271656   5.923   6.219  10.816  1.1370 -0.4710 -0.4309
16722TIP3    H171657   5.875   6.160  10.758 -2.6387 -1.6951  3.4540
16722TIP3    H271658   5.953   6.163  10.888  1.5239  1.6066  1.1289
16723TIP3   OH271659   4.120   6.241   5.609 -0.3212  0.5728 -0.7134
16723TIP3    H171660   4.152   6.316   5.559 -1.5441  0.4120 -1.7848
16723TIP3    H271661   4.108   6.275   5.698 -1.3825  1.8231 -1.3002
16724TIP3   OH271662   3.633   0.041  16.722  0.1021  0.0453  0.6321
16724TIP3    H171663   3.687   0.086  16.657 -2.0328 -0.6997 -1.8721
16724TIP3    H271664   3.676  -0.044  16.735  1.3605  0.7739  1.4022
16725TIP3   OH271665   6.083   3.045  16.728 -0.0273 -0.0326  0.4708
16725TIP3    H171666   5.989   3.059  16.716 -0.2065 -0.4124  1.3047
16725TIP3    H271667   6.111   3.119  16.782  0.1538  0.0784  0.2250
16726TIP3   OH271668   1.288   3.603  17.221 -0.1304 -0.3367 -0.0331
16726TIP3    H171669   1.321   3.646  17.300 -0.5378 -0.3871  0.1669
16726TIP3    H271670   1.204   3.566  17.247 -1.2465  1.3801 -1.0355
16727TIP3   OH271671   6.242   0.766   4.966 -0.2947  0.0279 -0.1928
16727TIP3    H171672   6.182   0.812   4.908 -0.0186  0.3265 -0.2420
16727TIP3    H271673   6.327   0.772   4.922 -0.0874  0.2458  0.2363
16728TIP3   OH271674   0.209   0.198  11.478 -0.5872  0.0858 -0.4178
16728TIP3    H171675   0.135   0.150  11.439 -1.1025  0.1103  0.4955
16728TIP3    H271676   0.195   0.289  11.451 -1.2846  0.2068  0.2993
16729TIP3   OH271677   4.751   2.104  14.927  0.3399  0.3257  0.1843
16729TIP3    H171678   4.678   2.087  14.988  0.0724 -0.6539 -0.3939
16729TIP3    H271679   4.712   2.158  14.858 -0.2090 -1.2768 -0.8143
16730TIP3   OH271680   3.618   1.013  15.451 -0.3667  0.1970 -0.2114
16730TIP3    H171681   3.604   1.104  15.428 -0.7348  0.7695  2.0312
16730TIP3    H271682   3.584   1.005  15.540  0.4069 -1.9306 -0.0454
16731TIP3   OH271683   6.742   4.583   2.402  0.2135  0.6911  0.5407
16731TIP3    H171684   6.724   4.545   2.488  0.9634 -0.8950  0.0319
16731TIP3    H271685   6.669   4.552   2.347  0.1673  1.0282  0.4086
16732TIP3   OH271686   2.222   4.716   5.593 -0.2049  0.2363  0.2712
16732TIP3    H171687   2.299   4.764   5.625 -0.5517  0.9665  0.0255
16732TIP3    H271688   2.241   4.625   5.614  1.4139  0.1928 -1.1279
16733TIP3   OH271689   2.694   4.036  11.746  0.1929 -0.8664 -0.2540
16733TIP3    H171690   2.784   4.065  11.758 -0.2075  0.3422 -0.1049
16733TIP3    H271691   2.648   4.111  11.710 -1.2462 -0.7252  1.6973
16734TIP3   OH271692   2.153   5.705  14.304  0.3207  0.6810 -0.0610
16734TIP3    H171693   2.152   5.793  14.342 -0.0043  1.4300 -1.7257
16734TIP3    H271694   2.240   5.696  14.268  0.1190  0.6046 -0.5308
16735TIP3   OH271695   1.167   1.262  16.322  0.7942  0.4289  0.2772
16735TIP3    H171696   1.168   1.184  16.267  1.1479  0.6586 -0.0462
16735TIP3    H271697   1.250   1.258  16.369  0.1264 -0.2263  1.4577
16736TIP3   OH271698   1.238   4.092   4.732 -0.3952  0.0165 -0.0006
16736TIP3    H171699   1.202   4.077   4.645  0.1303  0.7503 -0.3546
16736TIP3    H271700   1.333   4.089   4.719 -0.2756 -2.2233  0.9694
16737TIP3   OH271701   3.267   6.266   4.048 -0.1744  0.3707  0.6245
16737TIP3    H171702   3.258   6.201   4.117 -0.2122  1.1773  1.4005
16737TIP3    H271703   3.342   6.320   4.075  0.8728 -0.2964 -0.8045
16738TIP3   OH271704   6.713   2.198  11.483  0.0356 -0.3452 -0.0081
16738TIP3    H171705   6.648   2.215  11.551 -1.4108 -0.4126 -1.3261
16738TIP3    H271706   6.780   2.265  11.497 -1.5304  1.3222 -0.0989
16739TIP3   OH271707   5.494   3.820  14.614  0.3611  0.3765  0.3600
16739TIP3    H171708   5.575   3.772  14.629 -0.1097  0.2189  2.7926
16739TIP3    H271709   5.457   3.781  14.535  0.9482 -1.9391  1.1670
16740TIP3   OH271710   4.374   0.900  12.967 -0.0377 -0.0617  0.7564
16740TIP3    H171711   4.313   0.834  12.934  0.8681 -1.1888  1.2529
16740TIP3    H271712   4.453   0.889  12.913 -0.0998  1.1131  0.3804
16741TIP3   OH271713   4.298   6.450  12.228  0.1030  0.4050 -0.9768
16741TIP3    H171714   4.243   6.396  12.172  1.5905  0.0335 -2.1443
16741TIP3    H271715   4.359   6.388  12.269  2.0344  1.1284 -2.5693
16742TIP3   OH271716   4.226   3.892  16.193 -0.0062  0.1878 -0.0389
16742TIP3    H171717   4.184   3.866  16.111 -1.1922  0.7330  0.3764
16742TIP3    H271718   4.206   3.985  16.201 -0.2720  0.0420  1.0809
16743TIP3   OH271719   0.765   0.683  13.789 -0.3002 -0.2461  0.2237
16743TIP3    H171720   0.824   0.744  13.833 -1.4115  0.1462  1.2353
16743TIP3    H271721   0.679   0.702  13.827 -1.0852 -0.7861 -1.2104
16744TIP3   OH271722   3.881   3.868   2.028  0.2519 -0.4144  0.1705
16744TIP3    H171723   3.874   3.774   2.015 -1.4865 -0.0098 -2.6304
16744TIP3    H271724   3.967   3.892   1.992  0.0632 -0.7618 -0.5246
16745TIP3   OH271725   2.921   4.514   1.217  0.7951  0.5299 -0.1973
16745TIP3    H171726   2.931   4.493   1.310  0.4003 -0.0689 -0.2850
16745TIP3    H271727   3.007   4.546   1.190  0.4342  2.5694  0.8274
16746TIP3   OH271728   5.137   6.211   5.133 -0.3431 -0.0179  0.0060
16746TIP3    H171729   5.228   6.186   5.121 -0.5758 -0.5107 -0.7945
16746TIP3    H271730   5.115   6.180   5.221 -0.3560 -1.8728 -0.6122
16747TIP3   OH271731   2.287   2.900  11.335  0.2001 -0.1126  0.4615
16747TIP3    H171732   2.194   2.920  11.339  0.5290  1.3828  1.3275
16747TIP3    H271733   2.291   2.810  11.303 -1.5115 -0.0027 -0.1338
16748TIP3   OH271734   6.272   6.133   1.822  0.1988  0.1096  0.5191
16748TIP3    H171735   6.205   6.071   1.793 -0.0055  0.2769  0.6263
16748TIP3    H271736   6.321   6.085   1.889 -0.8578  0.5213  1.6438
16749TIP3   OH271737   0.679   4.242   1.258 -0.1424 -0.0594 -0.3562
16749TIP3    H171738   0.606   4.291   1.294  0.3179  1.1852 -1.0555
16749TIP3    H271739   0.757   4.286   1.292  0.2914 -0.8757 -0.2563
16750TIP3   OH271740   2.501   4.340   4.342  0.0132 -0.3166  0.3105
16750TIP3    H171741   2.478   4.354   4.250  0.9893  2.6059  0.4168
16750TIP3    H271742   2.595   4.323   4.341  0.0416 -0.1757  0.7896
16751TIP3   OH271743   1.706   2.076   4.737 -0.8028 -0.8592 -0.0178
16751TIP3    H171744   1.776   2.136   4.763 -0.6231 -0.7426 -0.7446
16751TIP3    H271745   1.694   2.019   4.813  0.2968 -1.0825  0.0088
16752TIP3   OH271746   3.642   5.132   1.064  0.0999 -0.4240  0.4670
16752TIP3    H171747   3.578   5.124   0.994  0.2153  1.8797  0.0173
16752TIP3    H271748   3.727   5.125   1.019  0.1914  1.8908  0.1570
16753TIP3   OH271749   5.080   4.406   4.076  0.8666  0.1234  0.2712
16753TIP3    H171750   5.138   4.397   4.152  0.4037 -0.5677  0.5639
16753TIP3    H271751   5.117   4.478   4.025  1.9500 -0.2763  0.4643
16754TIP3   OH271752   2.083   0.293   5.476 -0.0581  0.1676 -0.0809
16754TIP3    H171753   2.096   0.199   5.462 -0.9246  0.2307 -1.5017
16754TIP3    H271754   2.114   0.334   5.395 -0.6002  1.0158  0.1302
16755TIP3   OH271755   0.652   5.158   0.134  0.4685  0.0133 -0.1962
16755TIP3    H171756   0.730   5.156   0.078  0.6232  1.0778 -0.0530
16755TIP3    H271757   0.659   5.241   0.181  0.1250 -0.6688  1.0968
16756TIP3   OH271758   5.952   6.501   3.354  0.0930  0.3157 -0.1624
16756TIP3    H171759   5.909   6.558   3.290 -1.9517  0.7114  1.4966
16756TIP3    H271760   5.939   6.544   3.438 -1.2665 -2.3930  1.1300
16757TIP3   OH271761   4.543   1.969   3.107  0.5234  0.2512 -0.9665
16757TIP3    H171762   4.536   2.065   3.110 -0.2182  0.1865 -0.2360
16757TIP3    H271763   4.522   1.941   3.197 -0.8619 -0.6808 -1.5419
16758TIP3   OH271764   0.656   3.060   3.614  0.4676 -0.9501  0.1540
16758TIP3    H171765   0.607   3.095   3.688  1.5929  0.5589  0.2569
16758TIP3    H271766   0.591   3.017   3.559 -0.2581 -3.0323  2.4801
16759TIP3   OH271767   0.365   5.421   3.766  0.0137  0.0881  0.1599
16759TIP3    H171768   0.427   5.386   3.702 -0.2121  0.2109 -0.1291
16759TIP3    H271769   0.314   5.485   3.717  1.1874  1.7142  0.9401
16760TIP3   OH271770   6.649   2.046   2.351 -0.4494 -0.7185 -0.6115
16760TIP3    H171771   6.711   1.981   2.317  1.4215  0.9904 -0.6352
16760TIP3    H271772   6.645   2.113   2.283 -1.5140 -0.2695 -0.1211
16761TIP3   OH271773   4.925   6.609  11.714  0.3459 -0.7652 -0.1815
16761TIP3    H171774   4.950   6.550  11.643 -1.6047 -0.3574 -1.2715
16761TIP3    H271775   4.835   6.584  11.736  0.1752  0.5144  0.6947
16762TIP3   OH271776   6.508   1.757  16.203  0.4222  0.0203  0.2105
16762TIP3    H171777   6.470   1.763  16.291  0.9399  1.1022  0.3812
16762TIP3    H271778   6.437   1.782  16.144 -0.0093 -0.9814  0.2860
16763TIP3   OH271779   6.486   6.185   3.992  0.5724  0.2678  0.5013
16763TIP3    H171780   6.551   6.203   4.059 -1.2179 -0.3171  2.5068
16763TIP3    H271781   6.490   6.260   3.933  1.0115  1.7048  2.2780
16764TIP3   OH271782   0.692   2.041  14.489 -0.0957 -0.0925  0.2928
16764TIP3    H171783   0.644   2.065  14.569 -0.2373  1.0515 -0.1262
16764TIP3    H271784   0.757   1.977  14.519 -0.2843  0.1590  1.2867
16765TIP3   OH271785   1.313   5.466   1.537 -0.7424  0.4299 -0.3900
16765TIP3    H171786   1.327   5.423   1.621  0.5736 -0.0090 -0.8067
16765TIP3    H271787   1.256   5.407   1.488  0.1351 -0.3058 -0.5428
16766TIP3   OH271788   1.171   4.089   1.542 -0.3868  0.4941  0.0468
16766TIP3    H171789   1.219   4.011   1.515  2.9695  0.9670  3.6101
16766TIP3    H271790   1.110   4.058   1.609  0.6972  0.7608  1.2064
16767TIP3   OH271791   5.784   6.403   4.045 -0.0841  0.1849 -0.1130
16767TIP3    H171792   5.815   6.379   4.133  0.4929 -0.1146 -0.3890
16767TIP3    H271793   5.723   6.333   4.021  0.4955 -0.2516 -0.3345
16768TIP3   OH271794   1.308   3.864   0.526  0.0566  0.7134  0.5439
16768TIP3    H171795   1.262   3.837   0.446  0.9000  1.4158 -0.1990
16768TIP3    H271796   1.261   3.942   0.555 -0.2176  0.4891  0.7132
16769TIP3   OH271797   4.887   4.045  16.101  0.2801  0.0025  0.0518
16769TIP3    H171798   4.953   4.071  16.036 -0.7188 -1.5257 -1.6785
16769TIP3    H271799   4.919   3.962  16.136 -0.0967 -0.1142  0.1283
16770TIP3   OH271800   2.650   0.704  16.290 -0.1068  0.2094 -0.2798
16770TIP3    H171801   2.621   0.671  16.375  1.1625 -0.1052  0.0540
16770TIP3    H271802   2.590   0.776  16.270 -1.0095 -0.3251  0.4182
16771TIP3   OH271803   2.523   2.458   4.932 -0.4664 -0.0055 -0.0189
16771TIP3    H171804   2.506   2.519   5.004  0.3014 -1.2107  1.2415
16771TIP3    H271805   2.619   2.452   4.929 -0.3406  1.7137 -2.6644
16772TIP3   OH271806   1.135   1.443   0.155 -0.2741  0.1536  0.5797
16772TIP3    H171807   1.169   1.384   0.221 -1.2759 -1.0417  0.0665
16772TIP3    H271808   1.182   1.419   0.075 -0.7832 -0.0442  0.3385
16773TIP3   OH271809   0.334   3.945   3.083  0.6814 -0.1478 -0.0087
16773TIP3    H171810   0.376   3.997   3.152 -0.6333 -0.1841  0.8436
16773TIP3    H271811   0.372   3.858   3.092  2.3229  0.4167 -0.9473
16774TIP3   OH271812   5.458   6.607   0.547 -0.2211  0.5799  0.6790
16774TIP3    H171813   5.434   6.564   0.629  0.7461 -1.3083  0.0419
16774TIP3    H271814   5.407   6.561   0.480  0.6196  0.6064 -0.0006
16775TIP3   OH271815   6.541   4.806  14.909  0.1635 -0.4131 -0.3610
16775TIP3    H171816   6.531   4.722  14.864  1.3701 -0.0286 -1.3897
16775TIP3    H271817   6.555   4.870  14.839  0.4831  0.4531  0.4754
16776TIP3   OH271818   2.131   4.355  15.463 -0.8821  0.2702 -0.3192
16776TIP3    H171819   2.050   4.404  15.478  0.0065  1.2104  1.6727
16776TIP3    H271820   2.127   4.282  15.525 -0.8929 -0.6262 -1.3299
16777TIP3   OH271821   6.035   4.592  12.619 -0.2046 -0.1596 -0.2024
16777TIP3    H171822   6.089   4.547  12.555  0.1693  0.1255 -0.0937
16777TIP3    H271823   6.087   4.669  12.644 -1.5456  1.3063 -1.6873
16778TIP3   OH271824   0.579   5.674  11.771  0.2972 -0.2621 -0.1455
16778TIP3    H171825   0.628   5.748  11.734  1.5679 -1.4455 -0.9370
16778TIP3    H271826   0.617   5.597  11.729 -0.2786 -1.4609  1.4373
16779TIP3   OH271827   4.373   5.397   2.522 -0.4668 -0.2161 -0.3385
16779TIP3    H171828   4.316   5.475   2.522 -0.1980  0.0685 -2.7738
16779TIP3    H271829   4.453   5.426   2.564 -0.8046  0.4805 -0.1540
16780TIP3   OH271830   4.944   6.549  13.182  0.4782 -0.2604 -0.1952
16780TIP3    H171831   4.947   6.627  13.238 -1.0066  0.1745 -0.6666
16780TIP3    H271832   4.867   6.501  13.214  0.3490 -0.6321 -1.0496
16781TIP3   OH271833   0.132   2.247  12.991  0.6537  0.3747  0.0237
16781TIP3    H171834   0.092   2.258  13.077 -1.0834  1.1479 -0.8514
16781TIP3    H271835   0.162   2.156  12.990  0.3707  0.2500  1.3005
16782TIP3   OH271836   4.424   2.220   5.393  0.1759  0.1182 -0.0010
16782TIP3    H171837   4.393   2.310   5.403  0.7947  0.1491  1.9759
16782TIP3    H271838   4.489   2.209   5.462  1.3503 -1.3410 -1.2634
16783TIP3   OH271839   6.520   5.263   3.312 -0.5211 -0.7745  0.4223
16783TIP3    H171840   6.580   5.232   3.245  0.3715  0.9838  0.3498
16783TIP3    H271841   6.576   5.292   3.384 -1.1654  1.5690  0.0723
16784TIP3   OH271842   2.558   3.334   5.164  0.2033 -0.1007 -0.0401
16784TIP3    H171843   2.633   3.339   5.223 -0.3829 -2.2431  0.9733
16784TIP3    H271844   2.499   3.402   5.195  1.3593  1.1032 -0.3763
16785TIP3   OH271845   6.509   2.073   1.043  0.3481  0.2769  0.3208
16785TIP3    H171846   6.497   2.044   1.133  0.3900  0.6976  0.4640
16785TIP3    H271847   6.422   2.102   1.015 -0.0518 -1.3800 -0.3400
16786TIP3   OH271848   3.058   3.947   2.978 -0.4632  0.4944 -0.5921
16786TIP3    H171849   3.069   3.853   2.993  1.3929  0.7366 -0.1330
16786TIP3    H271850   3.017   3.953   2.892 -3.2386 -0.7585  0.5382
16787TIP3   OH271851   0.406   2.423  11.759 -0.1874  0.4659  0.2449
16787TIP3    H171852   0.438   2.491  11.699  1.9706 -1.9002 -1.5533
16787TIP3    H271853   0.327   2.390  11.717 -1.0077  1.5348  0.9097
16788TIP3   OH271854   2.153   2.051  13.945 -0.1930 -0.2244  0.4892
16788TIP3    H171855   2.158   1.958  13.965 -1.8083 -0.4220  0.1657
16788TIP3    H271856   2.202   2.060  13.863 -1.7651 -1.2316 -0.6443
16789TIP3   OH271857   6.483   4.924   1.432  0.0417  0.1937 -0.7144
16789TIP3    H171858   6.555   4.863   1.414  0.2608  0.3921 -0.5120
16789TIP3    H271859   6.407   4.883   1.391  0.2999  0.0605 -1.0689
16790TIP3   OH271860   1.298   4.348  16.517 -0.5312  0.2055  0.4413
16790TIP3    H171861   1.382   4.336  16.473  0.0586  1.6485  1.0973
16790TIP3    H271862   1.321   4.353  16.610 -1.4423 -0.0985  0.6912
16791TIP3   OH271863   5.158   0.427   5.721  0.4776  0.1501 -0.3616
16791TIP3    H171864   5.239   0.463   5.685 -0.0243  1.1458 -0.5417
16791TIP3    H271865   5.106   0.504   5.746 -1.2141 -0.3622 -2.0252
16792TIP3   OH271866   2.860   4.182  13.877 -0.1823  0.1401 -0.4292
16792TIP3    H171867   2.841   4.165  13.785  0.6412  0.8457 -0.7461
16792TIP3    H271868   2.948   4.146  13.890 -0.5868 -0.6455  0.2943
16793TIP3   OH271869   6.406   0.461   0.933  0.0846  0.7417  0.4983
16793TIP3    H171870   6.334   0.493   0.879 -0.3918 -0.1055  0.6197
16793TIP3    H271871   6.369   0.450   1.020  0.5896  1.1170  0.7698
16794TIP3   OH271872   4.284   4.542   4.730  0.3712 -0.1345  0.1371
16794TIP3    H171873   4.226   4.493   4.788  0.3984  1.7698  1.8432
16794TIP3    H271874   4.344   4.475   4.695 -1.6258 -1.8294 -0.2274
16795TIP3   OH271875   5.317   1.900   4.561 -0.3963 -0.0531  0.1205
16795TIP3    H171876   5.380   1.910   4.490 -0.0197 -1.0604  0.2949
16795TIP3    H271877   5.371   1.879   4.638 -0.9890 -1.8090  0.0873
16796TIP3   OH271878   1.931   3.646  16.037 -0.2170 -0.0580 -0.0034
16796TIP3    H171879   1.939   3.577  15.971 -0.8772  0.2359 -0.4103
16796TIP3    H271880   1.921   3.726  15.986 -1.5654  0.0774  0.4284
16797TIP3   OH271881   1.077   5.474  11.921 -0.3206 -0.6070  0.0468
16797TIP3    H171882   1.034   5.513  11.844  0.0599 -0.3958 -0.0600
16797TIP3    H271883   1.020   5.496  11.994  0.2457  0.7752  0.1012
16798TIP3   OH271884   1.719   2.168  11.298 -0.1960  0.3756 -0.0216
16798TIP3    H171885   1.758   2.121  11.372  0.7335  2.7742  1.0900
16798TIP3    H271886   1.626   2.148  11.303 -0.1452  0.4640  1.7917
16799TIP3   OH271887   2.843   4.547  15.350  0.4161  0.0361 -0.4835
16799TIP3    H171888   2.910   4.549  15.418  1.0873  0.8179 -1.1453
16799TIP3    H271889   2.810   4.637  15.345  0.0014 -0.1307 -0.8254
16800TIP3   OH271890   1.478   1.292  17.089 -0.8742 -0.0398 -0.4441
16800TIP3    H171891   1.446   1.358  17.027  1.1838  1.3994 -0.0727
16800TIP3    H271892   1.540   1.239  17.038 -0.2994  0.2027 -0.0114
16801TIP3   OH271893   4.935   4.832   0.351 -0.4193  0.0670  0.3213
16801TIP3    H171894   4.943   4.821   0.446  0.2129 -1.1471  0.1505
16801TIP3    H271895   5.011   4.885   0.326  0.5622 -1.3249  0.2530
16802TIP3   OH271896   4.877   5.691  12.966  0.8593  0.5217 -0.0900
16802TIP3    H171897   4.930   5.639  12.906 -0.0307 -0.5191 -0.0036
16802TIP3    H271898   4.836   5.627  13.024  1.0246  1.4452  1.0925
16803TIP3   OH271899   0.750   1.586   5.517 -0.5721  0.8256  0.3622
16803TIP3    H171900   0.820   1.641   5.482 -0.5926  0.4687 -0.2590
16803TIP3    H271901   0.744   1.513   5.455  0.9638 -1.0741  2.2738
16804TIP3   OH271902   0.553   3.905   6.230 -0.3741 -0.4021  0.1506
16804TIP3    H171903   0.601   3.839   6.281  0.5060 -1.6593 -2.1501
16804TIP3    H271904   0.606   3.984   6.238 -1.6898  0.3154  3.3447
16805TIP3   OH271905   0.173   2.161   2.890  0.7112  0.2184 -0.2329
16805TIP3    H171906   0.238   2.096   2.916  1.8049  0.4793 -2.1573
16805TIP3    H271907   0.203   2.243   2.928  1.5068  0.3254 -1.0642
16806TIP3   OH271908   5.969   4.369  11.993  0.0565  0.3051  0.3657
16806TIP3    H171909   6.020   4.334  11.920 -0.2717  0.0966  0.2363
16806TIP3    H271910   5.905   4.301  12.013 -0.1588  0.5571  0.5429
16807TIP3   OH271911   5.951   6.349   4.844 -0.1292 -0.0486 -0.2232
16807TIP3    H171912   5.918   6.414   4.906  2.0142 -1.2239  2.3885
16807TIP3    H271913   6.031   6.315   4.886 -1.1179 -4.3561 -1.3383
16808TIP3   OH271914   5.600   0.273   5.263 -0.4592  0.2940 -0.5181
16808TIP3    H171915   5.519   0.324   5.272  0.9212  2.5711 -0.0359
16808TIP3    H271916   5.576   0.184   5.289 -3.4253  0.2103 -2.9904
16809TIP3   OH271917   4.432   6.745  13.945  0.1519  0.4163  0.6799
16809TIP3    H171918   4.339   6.724  13.938  0.1116  0.5319  0.8636
16809TIP3    H271919   4.436   6.840  13.944  0.2924  0.4111  0.3896
16810TIP3   OH271920   2.911   3.866   5.519  0.3017 -0.1488 -0.1913
16810TIP3    H171921   2.828   3.884   5.563  0.3155 -2.5438  1.0075
16810TIP3    H271922   2.977   3.909   5.573 -0.0727  1.4118 -0.9162
16811TIP3   OH271923   0.173   5.549   3.466  0.7501 -0.1773  0.0178
16811TIP3    H171924   0.243   5.611   3.486 -0.9896  2.0658 -0.4377
16811TIP3    H271925   0.145   5.516   3.551  2.3575 -1.1481  0.1959
16812TIP3   OH271926   1.909   4.182   1.774  0.1661 -0.2161  0.3977
16812TIP3    H171927   1.852   4.173   1.851  0.8242 -1.4881  0.7591
16812TIP3    H271928   1.939   4.093   1.756  1.8580  0.3826  0.0874
16813TIP3   OH271929   6.408   1.728   0.988  0.0972 -0.1145 -0.4522
16813TIP3    H171930   6.447   1.812   1.014  1.4001 -0.4155 -1.3550
16813TIP3    H271931   6.337   1.715   1.050 -0.8358  2.1812 -0.9295
16814TIP3   OH271932   4.985   3.526   6.702 -0.5383  0.2392 -0.3079
16814TIP3    H171933   4.993   3.527   6.607 -1.1698  0.7263 -0.3661
16814TIP3    H271934   4.960   3.436   6.723  1.4211 -0.3631 -0.4175
16815TIP3   OH271935   1.390   0.968   4.045  0.1211 -0.1098  0.0523
16815TIP3    H171936   1.380   1.058   4.014 -0.2295  0.1385  0.8369
16815TIP3    H271937   1.478   0.965   4.081  0.4240 -0.3165 -0.6954
16816TIP3   OH271938   1.650   2.720   5.957 -0.0104 -0.1958  0.6510
16816TIP3    H171939   1.671   2.739   6.048  1.9576 -0.1270  0.2258
16816TIP3    H271940   1.733   2.731   5.910 -0.7767 -1.0854 -1.0185
16817TIP3   OH271941   4.288   6.503  11.071 -0.0820 -0.0896  0.7060
16817TIP3    H171942   4.351   6.448  11.118  0.8868  0.7269  0.3719
16817TIP3    H271943   4.341   6.562  11.018 -1.1359  0.2821  0.0320
16818TIP3   OH271944   6.156   6.597   2.048 -0.5520 -0.0737 -0.0816
16818TIP3    H171945   6.156   6.599   2.143  0.5289 -1.1770 -0.0281
16818TIP3    H271946   6.248   6.588   2.024 -0.9920 -2.5960 -1.1244
16819TIP3   OH271947   1.538   0.994  17.146  0.1307 -0.2266 -0.7202
16819TIP3    H171948   1.618   0.944  17.133 -0.4495 -1.8347  1.2696
16819TIP3    H271949   1.558   1.055  17.217 -1.0405 -2.5864  1.8553
16820TIP3   OH271950   5.195   3.263   4.825 -0.0901 -0.1449  0.3775
16820TIP3    H171951   5.148   3.224   4.899 -0.8839  0.1760  0.0598
16820TIP3    H271952   5.282   3.223   4.827 -0.3484 -0.6846  1.0447
16821TIP3   OH271953   1.779   1.406  15.339  0.2105 -0.8976 -0.3972
16821TIP3    H171954   1.811   1.485  15.382 -0.2265 -1.3250  0.7593
16821TIP3    H271955   1.744   1.436  15.255  0.2364  0.1083 -0.0584
16822TIP3   OH271956   2.319   0.291   0.840 -0.3426  0.6653  0.4330
16822TIP3    H171957   2.397   0.262   0.887  0.2705  1.5971  0.0079
16822TIP3    H271958   2.348   0.366   0.788 -1.4052  0.7149 -0.1188
16823TIP3   OH271959   2.495   5.287   5.102  0.0370 -0.1453  0.4691
16823TIP3    H171960   2.470   5.305   5.193  0.5192  1.0028  0.3784
16823TIP3    H271961   2.545   5.363   5.075  0.1296 -0.6020 -0.6848
16824TIP3   OH271962   4.054   2.584  11.822  0.1019  0.3394  0.2950
16824TIP3    H171963   4.013   2.610  11.904  1.4508  0.4275  0.9691
16824TIP3    H271964   4.135   2.540  11.848 -0.1438 -0.9364 -0.9461
16825TIP3   OH271965   5.921   1.039  15.313 -0.2990 -0.3221  0.0746
16825TIP3    H171966   5.930   1.112  15.252  0.6436 -0.8310 -0.4172
16825TIP3    H271967   5.974   1.063  15.388 -0.8990 -0.0054  0.4024
16826TIP3   OH271968   0.233   5.354   4.679 -0.3455 -0.4574 -0.2909
16826TIP3    H171969   0.266   5.352   4.590  2.5202  0.5328  0.6342
16826TIP3    H271970   0.153   5.406   4.674  0.8163  1.2873 -2.0035
16827TIP3   OH271971   1.784   4.569  10.857  0.3462  0.2265 -0.0667
16827TIP3    H171972   1.827   4.572  10.772 -0.1809  0.7389 -0.3229
16827TIP3    H271973   1.765   4.476  10.871 -1.1573  0.2954 -1.3397
16828TIP3   OH271974   5.311   1.383  12.914 -0.4342  0.5417 -0.1538
16828TIP3    H171975   5.387   1.408  12.862  0.2666 -0.3459  0.4145
16828TIP3    H271976   5.253   1.459  12.910  0.7042  1.4364 -0.1686
16829TIP3   OH271977   1.825   2.277   4.298  0.2390 -0.2090 -0.1882
16829TIP3    H171978   1.743   2.259   4.252  0.9524 -3.9953 -0.3210
16829TIP3    H271979   1.888   2.296   4.229 -0.0981  0.8709 -0.2154
16830TIP3   OH271980   6.205   5.963  16.923 -0.4667 -0.1393 -0.2229
16830TIP3    H171981   6.149   5.895  16.961  0.5726 -1.9383 -1.7536
16830TIP3    H271982   6.195   5.953  16.829  2.2467 -0.4270 -0.5633
16831TIP3   OH271983   6.500   2.408  15.776  0.1314 -0.3318  0.2213
16831TIP3    H171984   6.520   2.395  15.683  0.2874  0.3823  0.1522
16831TIP3    H271985   6.530   2.327  15.818  1.7492  0.0612 -0.0967
16832TIP3   OH271986   4.327   5.613   3.225 -0.3634 -0.2368 -0.1738
16832TIP3    H171987   4.395   5.640   3.163 -1.4124  1.9663 -0.4478
16832TIP3    H271988   4.246   5.614   3.175 -0.9807 -0.2163  0.8005
16833TIP3   OH271989   6.088   5.127   4.745 -0.2427  0.1800  0.0451
16833TIP3    H171990   6.056   5.163   4.827 -0.6382 -0.3797  0.1398
16833TIP3    H271991   6.089   5.202   4.685 -1.9027  0.1901 -0.0127
16834TIP3   OH271992   3.990   5.263   5.472 -0.2173  0.2745  0.3772
16834TIP3    H171993   4.016   5.273   5.380  0.0078 -0.9302  0.2826
16834TIP3    H271994   4.069   5.233   5.516 -0.6286 -0.3369  0.7110
16835TIP3   OH271995   1.427   6.708  13.833 -0.1959  0.0745 -0.1547
16835TIP3    H171996   1.384   6.670  13.756 -0.4660  1.9958 -0.9993
16835TIP3    H271997   1.356   6.739  13.888  0.0382  1.3642 -0.5522
16836TIP3   OH271998   1.239   3.206  12.983  0.1853 -0.4688 -0.0643
16836TIP3    H171999   1.185   3.128  12.971  2.0698 -1.9306  0.5234
16836TIP3    H272000   1.284   3.192  13.066 -0.2088  1.7590  0.5856
16837TIP3   OH272001   2.206   2.643  14.430 -0.2637  1.1096  0.0162
16837TIP3    H172002   2.139   2.575  14.431  1.3805 -0.6693 -2.0953
16837TIP3    H272003   2.169   2.714  14.482 -2.6258 -0.8424  1.1688
16838TIP3   OH272004   2.380   3.224  11.681  0.4758  0.2512  0.1161
16838TIP3    H172005   2.342   3.275  11.609  1.0572 -0.6291 -0.8555
16838TIP3    H272006   2.305   3.193  11.731  0.0745  1.2028  0.1157
16839TIP3   OH272007   3.041   4.841  16.054  0.3060  0.7707 -0.1766
16839TIP3    H172008   3.029   4.747  16.062 -0.5188  0.9897  1.7433
16839TIP3    H272009   2.972   4.870  15.995  0.4438  0.2013 -0.6226
16840TIP3   OH272010   0.635   3.532   1.014 -0.8476 -0.5183  0.2945
16840TIP3    H172011   0.563   3.594   1.001 -1.0556 -0.7773  0.2061
16840TIP3    H272012   0.701   3.582   1.062  0.0773  0.5907 -1.9637
16841TIP3   OH272013   5.306   2.208   1.191 -0.0284  0.1440  0.0368
16841TIP3    H172014   5.280   2.125   1.230 -1.5400 -0.3964 -1.9637
16841TIP3    H272015   5.390   2.190   1.147  0.2818  0.0374  0.6653
16842TIP3   OH272016   0.852   6.312  17.137 -0.2486  0.1425 -0.4625
16842TIP3    H172017   0.858   6.246  17.206 -1.5240  0.2335 -0.2401
16842TIP3    H272018   0.770   6.291  17.091 -1.7066  2.6666  0.8027
16843TIP3   OH272019   5.997   2.552  12.036  0.1499  0.0263 -0.2221
16843TIP3    H172020   6.042   2.485  12.089 -0.6790 -0.4315 -0.0722
16843TIP3    H272021   6.067   2.609  12.005  0.8512 -0.7699 -0.1447
16844TIP3   OH272022   0.880   0.176   0.130 -0.3052  0.4305  0.2039
16844TIP3    H172023   0.863   0.250   0.072 -0.0607  0.1996 -0.1722
16844TIP3    H272024   0.973   0.183   0.151 -0.3244  0.3400  0.3203
16845TIP3   OH272025   3.736   1.387  10.660  0.0839  0.3804  0.0825
16845TIP3    H172026   3.760   1.466  10.709  1.0805 -1.0734  2.0558
16845TIP3    H272027   3.641   1.395  10.648  0.1615  1.8879  0.1691
16846TIP3   OH272028   5.341   6.253  10.554 -0.5525  0.1214  0.1182
16846TIP3    H172029   5.360   6.191  10.483 -1.4720 -0.5254  0.4053
16846TIP3    H272030   5.258   6.221  10.592 -1.6339  2.1254 -0.3904
16847TIP3   OH272031   1.434   3.281  12.790 -0.4135  0.1141 -0.6170
16847TIP3    H172032   1.373   3.325  12.849 -1.8653 -0.1455 -1.8559
16847TIP3    H272033   1.520   3.294  12.831 -1.2398  0.7255  1.0474
16848TIP3   OH272034   1.625   3.287   0.758 -0.0543 -0.3731  0.1406
16848TIP3    H172035   1.542   3.333   0.747 -0.4976 -1.4476 -1.3613
16848TIP3    H272036   1.605   3.196   0.736  2.0689 -0.2251 -3.1602
16849TIP3   OH272037   0.705   4.850   3.479 -0.1453 -0.2076 -0.1974
16849TIP3    H172038   0.732   4.796   3.553  2.2976 -0.4031 -1.1598
16849TIP3    H272039   0.679   4.786   3.412 -0.1843 -0.1017 -0.2822
16850TIP3   OH272040   5.896   4.492  15.104 -0.4123 -0.0547  0.3798
16850TIP3    H172041   5.912   4.401  15.128 -1.4929 -0.7668 -1.4527
16850TIP3    H272042   5.804   4.507  15.125  0.0082  1.0036  1.6812
16851TIP3   OH272043   4.777   5.752  16.873 -0.2407 -0.4192  0.0586
16851TIP3    H172044   4.804   5.720  16.786 -3.2167 -0.2786 -1.0304
16851TIP3    H272045   4.760   5.845  16.860 -0.1459 -0.2669  0.9634
16852TIP3   OH272046   1.198   2.854   1.352  0.0537  0.6426 -0.6145
16852TIP3    H172047   1.116   2.851   1.401 -0.2657  1.2366 -1.0922
16852TIP3    H272048   1.171   2.837   1.261  0.5551  0.1422 -0.6740
16853TIP3   OH272049   5.182   0.776   1.321  0.6766 -0.5456 -0.0975
16853TIP3    H172050   5.160   0.683   1.325  1.7530 -0.9026 -1.7340
16853TIP3    H272051   5.276   0.780   1.338  0.6397  0.2413 -0.0365
16854TIP3   OH272052   4.009   5.205   2.827  0.2026 -0.3118 -0.2192
16854TIP3    H172053   4.011   5.262   2.903  0.3895  0.9007 -1.1023
16854TIP3    H272054   3.926   5.157   2.835  1.2459 -1.9129  1.9134
16855TIP3   OH272055   4.519   3.751   2.109 -0.4745 -0.1911 -0.5030
16855TIP3    H172056   4.500   3.711   2.193 -1.6515  0.0692 -0.6280
16855TIP3    H272057   4.607   3.786   2.118 -0.8982  0.5617  0.9115
16856TIP3   OH272058   2.822   1.814  16.522 -0.4447  0.4127  0.0322
16856TIP3    H172059   2.785   1.765  16.596 -0.2471 -0.7806 -0.6442
16856TIP3    H272060   2.892   1.867  16.561 -0.3923 -0.1466  0.7189
16857TIP3   OH272061   2.771   3.395  11.396 -0.1955 -0.0731  0.2162
16857TIP3    H172062   2.735   3.307  11.383 -0.5885  0.2444 -0.9908
16857TIP3    H272063   2.855   3.393  11.351  0.5356 -0.2825  1.5375
16858TIP3   OH272064   3.126   5.455   2.423 -0.2097  0.7189 -0.0990
16858TIP3    H172065   3.073   5.472   2.501  0.6440 -1.4389  1.0525
16858TIP3    H272066   3.186   5.530   2.418 -0.9136  1.3624  0.7310
16859TIP3   OH272067   4.180   4.332  15.754 -0.3481  0.3016 -0.1763
16859TIP3    H172068   4.220   4.418  15.764 -2.7864  1.5261 -0.2741
16859TIP3    H272069   4.140   4.314  15.840  1.0419 -1.2872  0.2038
16860TIP3   OH272070   3.094   0.954  14.968  0.4099  0.3844  0.0667
16860TIP3    H172071   3.139   0.940  14.885 -0.1648  1.6609 -0.4782
16860TIP3    H272072   3.028   0.885  14.971  2.9204 -2.1826  1.3479
16861TIP3   OH272073   4.788   3.363   6.939 -0.6644 -0.0112  0.0086
16861TIP3    H172074   4.753   3.284   6.981  1.2154 -1.1571 -0.4306
16861TIP3    H272075   4.865   3.386   6.991  0.7917 -0.5301 -1.7979
16862TIP3   OH272076   3.787   1.141  12.309  0.4008 -0.4720 -0.0411
16862TIP3    H172077   3.753   1.072  12.251 -0.2556 -1.6034  1.6269
16862TIP3    H272078   3.711   1.173  12.356  0.8914  0.5858  0.0547
16863TIP3   OH272079   4.864   2.519  16.731  0.2791  0.1095 -0.1443
16863TIP3    H172080   4.841   2.584  16.797 -0.9101 -0.3452 -0.0906
16863TIP3    H272081   4.834   2.436  16.768  0.4854 -0.2770 -0.8371
16864TIP3   OH272082   6.520   5.852   2.968 -0.2478  0.4972  0.1338
16864TIP3    H172083   6.612   5.841   2.992  0.1896  0.0823 -1.5426
16864TIP3    H272084   6.522   5.912   2.894 -1.0949 -1.0693 -1.2366
16865TIP3   OH272085   3.075   2.489   0.944 -0.1688 -0.9653  0.4701
16865TIP3    H172086   3.147   2.551   0.930 -1.1001  0.1823  0.6221
16865TIP3    H272087   3.113   2.404   0.922  0.7457 -0.1970 -1.1626
16866TIP3   OH272088   2.079   0.460   1.047 -0.2290  0.0616  0.1584
16866TIP3    H172089   2.090   0.518   1.123  1.9544  2.3368 -1.6912
16866TIP3    H272090   2.010   0.502   0.995 -2.1323 -1.8043  1.0743
16867TIP3   OH272091   1.312   1.057   4.495  0.0140  0.2095  0.0712
16867TIP3    H172092   1.258   1.136   4.503  1.0346  0.8968  0.5123
16867TIP3    H272093   1.253   0.990   4.461 -1.2936  0.7150  1.2820
16868TIP3   OH272094   1.657   0.052  15.629  0.2734  0.3003  0.1832
16868TIP3    H172095   1.628   0.143  15.628 -0.0039  0.2144  0.2619
16868TIP3    H272096   1.744   0.055  15.670  0.4992  0.5931 -0.3136
16869TIP3   OH272097   3.530   4.335  15.839 -0.4454  0.9426 -0.0125
16869TIP3    H172098   3.604   4.286  15.804 -0.4641  0.2513  0.8829
16869TIP3    H272099   3.470   4.344  15.765 -0.6090 -0.7277 -0.1247
16870TIP3   OH272100   2.346   5.120  13.467  0.0379  0.4091  0.0623
16870TIP3    H172101   2.268   5.171  13.488  0.1384  0.6789 -0.2031
16870TIP3    H272102   2.330   5.034  13.505 -0.2655  0.5479  0.2535
16871TIP3   OH272103   2.808   1.465  15.369  0.5116 -0.1005  0.4687
16871TIP3    H172104   2.817   1.541  15.428 -2.6560  0.0097  0.9674
16871TIP3    H272105   2.763   1.499  15.292 -1.9128 -1.5988  1.1395
16872TIP3   OH272106   3.335   3.580   6.009 -0.2732 -0.2456 -0.3985
16872TIP3    H172107   3.394   3.522   6.057  1.1365  0.9986 -0.5598
16872TIP3    H272108   3.351   3.667   6.046 -1.9946  0.1490 -0.4838
16873TIP3   OH272109   4.327   6.568  13.315  0.4514  0.4622  0.0139
16873TIP3    H172110   4.386   6.643  13.312 -0.0090  0.8644  0.6674
16873TIP3    H272111   4.263   6.585  13.246  0.5156  0.5249 -0.0310
16874TIP3   OH272112   0.074   3.682  15.290  0.4767 -0.5841 -0.3000
16874TIP3    H172113   0.139   3.666  15.222  1.9656  1.3162  0.6004
16874TIP3    H272114   0.081   3.606  15.347  1.0711 -0.9466 -0.8335
16875TIP3   OH272115   1.218   4.639   2.531  0.3364 -0.0890 -0.5032
16875TIP3    H172116   1.197   4.609   2.443 -0.5961  0.4442 -0.4693
16875TIP3    H272117   1.274   4.716   2.517  1.0010 -0.5795 -0.6064
16876TIP3   OH272118   2.688   1.195  12.901 -0.5791 -0.5630 -0.2762
16876TIP3    H172119   2.712   1.103  12.914  0.5444 -0.0900  1.4821
16876TIP3    H272120   2.730   1.220  12.819  1.8590 -0.8317  0.7961
16877TIP3   OH272121   0.317   4.939  16.918 -0.5918 -0.4719  0.2441
16877TIP3    H172122   0.256   4.872  16.887 -0.2529 -0.5429 -0.2985
16877TIP3    H272123   0.287   4.961  17.006 -0.6006 -1.4780  0.5070
16878TIP3   OH272124   2.418   2.359  11.992 -0.5138 -0.2226  0.2863
16878TIP3    H172125   2.463   2.442  11.977 -1.4978 -0.0218 -1.9006
16878TIP3    H272126   2.440   2.306  11.916 -0.9119 -1.5284  1.0578
16879TIP3   OH272127   6.286   5.584  15.377  0.4068  0.2820  0.4075
16879TIP3    H172128   6.373   5.606  15.343 -1.0345  2.7752 -2.0838
16879TIP3    H272129   6.274   5.642  15.452  1.4691 -1.2891  1.8548
16880TIP3   OH272130   2.557   0.565   1.195  0.5975  0.1316 -0.6264
16880TIP3    H172131   2.587   0.655   1.182  0.1005  0.3713 -0.1445
16880TIP3    H272132   2.633   0.511   1.170  1.4781  0.7205  0.6668
16881TIP3   OH272133   3.560   4.695  14.830 -0.0623 -0.3560  0.2396
16881TIP3    H172134   3.549   4.739  14.745 -2.9564 -0.7561  0.3100
16881TIP3    H272135   3.650   4.716  14.856  0.2294  1.5333 -1.9368
16882TIP3   OH272136   6.742   1.510  14.603 -0.1813 -0.1054 -0.4473
16882TIP3    H172137   6.713   1.491  14.514 -1.0350 -0.9454 -0.0007
16882TIP3    H272138   6.776   1.427  14.636 -2.7182 -0.6453  1.0613
16883TIP3   OH272139   1.339   4.578  13.476  0.4980 -0.1148 -0.5085
16883TIP3    H172140   1.401   4.650  13.468  0.4285  0.1114  0.8315
16883TIP3    H272141   1.391   4.503  13.502  0.2536  0.0125  0.3638
16884TIP3   OH272142   6.792   2.547   4.205 -0.0363 -0.1607  0.4051
16884TIP3    H172143   6.881   2.558   4.171 -0.3906  0.0141 -0.5161
16884TIP3    H272144   6.788   2.456   4.233 -0.0678 -0.6767 -1.1656
16885TIP3   OH272145   0.011   1.241  14.740  0.6181  0.2416  0.2130
16885TIP3    H172146   0.060   1.184  14.681  0.3192  0.5502 -0.3455
16885TIP3    H272147  -0.063   1.188  14.769  0.5090  0.2432 -0.0622
16886TIP3   OH272148   6.170   4.676  16.600  0.2150 -0.2315 -0.3462
16886TIP3    H172149   6.132   4.591  16.579 -2.2794  0.4248  1.1637
16886TIP3    H272150   6.096   4.736  16.602  1.7688  1.8204 -0.3649
16887TIP3   OH272151   1.990   2.835  11.958  0.1712 -0.5678  0.0198
16887TIP3    H172152   2.006   2.767  11.893  0.7064 -0.8042  0.3984
16887TIP3    H272153   2.042   2.809  12.033 -0.8297 -0.5606  0.7331
16888TIP3   OH272154   5.112   4.785   1.437 -0.2348 -0.0526 -0.0565
16888TIP3    H172155   5.142   4.869   1.470  0.7263 -0.3452 -0.1473
16888TIP3    H272156   5.190   4.729   1.440 -0.5042 -0.5342 -1.2918
16889TIP3   OH272157   4.789   3.055  12.502 -0.2237 -0.0682  0.6747
16889TIP3    H172158   4.712   3.089  12.547 -1.1474  1.2877 -1.7675
16889TIP3    H272159   4.819   3.128  12.447  1.7858 -1.1291  0.2660
16890TIP3   OH272160   6.775   2.014   0.684  0.9178 -0.6323  0.0087
16890TIP3    H172161   6.764   2.064   0.603 -1.1945  0.8774  1.1116
16890TIP3    H272162   6.700   1.956   0.687 -0.4840  1.1276  1.9917
16891TIP3   OH272163   3.861   0.186  12.709 -0.2202 -0.2031 -0.0217
16891TIP3    H172164   3.802   0.171  12.783  1.3172  0.8053  1.4511
16891TIP3    H272165   3.904   0.102  12.695  0.5956 -0.0311  1.2686
16892TIP3   OH272166   2.912   4.391  16.473  0.3871 -0.4424 -0.6757
16892TIP3    H172167   2.995   4.376  16.428  0.1716 -0.5456 -1.0454
16892TIP3    H272168   2.908   4.322  16.539  1.4401  0.6400  0.5924
16893TIP3   OH272169   1.121   6.109   6.080 -0.0134 -0.3127 -0.0179
16893TIP3    H172170   1.212   6.130   6.102  0.0562  1.7216 -1.8948
16893TIP3    H272171   1.069   6.162   6.140 -0.0013 -1.2056  0.8138
16894TIP3   OH272172   0.745   0.146   2.305  0.7556 -0.4349  0.4258
16894TIP3    H172173   0.706   0.083   2.244 -0.8311  1.6528 -0.8695
16894TIP3    H272174   0.784   0.213   2.249 -0.9428  1.6783  1.6073
16895TIP3   OH272175   1.164   1.767   4.693  0.2663  0.1068  0.3978
16895TIP3    H172176   1.114   1.735   4.768  0.7687  1.5578  1.4064
16895TIP3    H272177   1.112   1.840   4.659  0.2148 -0.3200 -0.4571
16896TIP3   OH272178   0.795   5.676   5.330 -0.8899  0.0058 -0.4331
16896TIP3    H172179   0.818   5.664   5.422 -0.6943  0.3310 -0.4365
16896TIP3    H272180   0.821   5.595   5.287  0.2843  0.3755 -0.4423
16897TIP3   OH272181   1.867   5.959  14.437  0.2708  0.1854 -0.8356
16897TIP3    H172182   1.954   5.935  14.467  0.1340  0.0309 -0.5679
16897TIP3    H272183   1.839   6.029  14.496  0.4843  0.7039 -1.3336
16898TIP3   OH272184   2.839   4.840   6.069  0.4356  0.2950  0.2473
16898TIP3    H172185   2.779   4.909   6.040 -0.2392 -0.9396 -1.4817
16898TIP3    H272186   2.922   4.885   6.082  0.5155  1.2025 -2.6837
16899TIP3   OH272187   0.378   0.257   6.228 -0.0440 -0.0768  0.1401
16899TIP3    H172188   0.406   0.167   6.213 -1.6519 -0.7680  0.9256
16899TIP3    H272189   0.458   0.309   6.226  0.7650 -1.3211 -1.6840
16900TIP3   OH272190   2.705   5.325  12.707 -0.1912  0.0246 -0.8184
16900TIP3    H172191   2.794   5.350  12.733  0.0005 -0.3877 -1.0696
16900TIP3    H272192   2.653   5.338  12.786 -0.2660  1.9771 -1.1445
16901TIP3   OH272193   0.695   2.940   4.864  0.3273 -0.1101 -0.2945
16901TIP3    H172194   0.621   2.994   4.836 -0.4843 -1.0076  0.0923
16901TIP3    H272195   0.695   2.947   4.960  1.2691  0.5446 -0.3197
16902TIP3   OH272196   3.511   3.642   4.857 -0.2059 -0.0774  0.2046
16902TIP3    H172197   3.427   3.626   4.813 -0.7624  0.6480  0.9641
16902TIP3    H272198   3.554   3.557   4.860 -0.7361 -0.3757 -0.5681
16903TIP3   OH272199   2.693   6.150  13.065  0.1084 -0.6484 -0.8007
16903TIP3    H172200   2.681   6.089  12.992  1.8849 -1.2793 -0.6006
16903TIP3    H272201   2.613   6.140  13.118 -0.2907 -1.6865 -1.5571
16904TIP3   OH272202   0.379   4.240   0.607  0.5757 -0.4065 -0.4328
16904TIP3    H172203   0.322   4.209   0.536 -0.7973 -1.0971  0.9072
16904TIP3    H272204   0.408   4.160   0.651  2.4080 -0.0471 -0.9129
16905TIP3   OH272205   0.025   6.019  16.635 -0.1618  0.0872 -0.5095
16905TIP3    H172206   0.051   5.953  16.699  2.0492 -0.8290 -2.1886
16905TIP3    H272207  -0.003   5.969  16.559 -3.3675  1.1475 -0.1596
16906TIP3   OH272208   3.136   3.654   5.820  0.4307 -0.0105  0.1590
16906TIP3    H172209   3.164   3.618   5.904  0.5489 -1.2636 -0.4010
16906TIP3    H272210   3.142   3.581   5.759  0.9955  1.0421 -1.0999
16907TIP3   OH272211   0.263   5.871   4.205 -0.5688 -0.1606 -0.1891
16907TIP3    H172212   0.204   5.806   4.166  1.0162 -1.2752 -0.8547
16907TIP3    H272213   0.291   5.925   4.132  2.9908 -2.7099 -1.0104
16908TIP3   OH272214   1.414   4.393   4.253 -0.2525 -0.1431  0.3403
16908TIP3    H172215   1.463   4.433   4.181  1.3948  0.0886  1.5245
16908TIP3    H272216   1.478   4.339   4.298 -1.4750 -0.9883  1.1238
16909TIP3   OH272217   5.664   1.752  15.612 -0.2508 -0.5227 -0.1402
16909TIP3    H172218   5.654   1.787  15.523  0.0778 -1.8851 -0.7539
16909TIP3    H272219   5.702   1.665  15.598  0.6457 -0.4024  1.4051
16910TIP3   OH272220   2.070   1.596  11.124 -0.2728  0.2803  0.2884
16910TIP3    H172221   2.000   1.621  11.184 -0.5315  2.6219 -0.8731
16910TIP3    H272222   2.027   1.585  11.039  0.6645  1.3742 -0.3650
16911TIP3   OH272223   2.389   2.060   4.541  0.5693 -0.0196 -0.0418
16911TIP3    H172224   2.416   2.089   4.628 -0.2282 -0.5734  0.4098
16911TIP3    H272225   2.308   2.108   4.523  0.0537 -0.8082  0.0727
16912TIP3   OH272226   4.752   1.657   1.833 -0.1989  0.1551  0.2602
16912TIP3    H172227   4.694   1.717   1.881  0.2650 -0.0663  1.1195
16912TIP3    H272228   4.732   1.673   1.741 -1.5285  0.1814  0.5362
16913TIP3   OH272229   1.583   2.826  11.464  0.1198  0.0261 -0.0544
16913TIP3    H172230   1.672   2.859  11.448 -0.1481 -0.2378 -2.4834
16913TIP3    H272231   1.572   2.757  11.398 -1.4666 -0.8020  1.0249
16914TIP3   OH272232   5.310   4.446   2.004  0.5273 -0.2180  0.7387
16914TIP3    H172233   5.377   4.398   1.956  1.9574  0.3655  2.0609
16914TIP3    H272234   5.236   4.451   1.944  2.3276  0.7740 -1.5306
16915TIP3   OH272235   0.745   5.834  11.317 -0.4226 -0.6749  0.3921
16915TIP3    H172236   0.840   5.847  11.318 -0.4425  1.1967 -3.4662
16915TIP3    H272237   0.730   5.769  11.249 -1.9366  0.5908 -0.5597
16916TIP3   OH272238   1.195   3.575   2.714  0.2740  0.3598 -0.2855
16916TIP3    H172239   1.249   3.652   2.699  2.4441 -1.0884 -0.3661
16916TIP3    H272240   1.183   3.536   2.627  0.4014 -0.1469 -0.0825
16917TIP3   OH272241   1.193   0.560   2.014  0.5299 -0.3173  0.2511
16917TIP3    H172242   1.125   0.558   1.946  0.1465 -1.8596  0.6447
16917TIP3    H272243   1.224   0.651   2.014 -1.3836  0.3880 -0.0705
16918TIP3   OH272244   3.030   2.302   2.674 -0.8951 -0.0574 -0.2689
16918TIP3    H172245   2.942   2.275   2.650 -0.4131 -1.8454 -0.1135
16918TIP3    H272246   3.082   2.222   2.675  1.2005  1.1249 -2.1985
16919TIP3   OH272247   2.835   4.859  12.648 -0.0733  0.3816 -0.0783
16919TIP3    H172248   2.799   4.771  12.636  2.1431 -0.7026  0.7212
16919TIP3    H272249   2.804   4.908  12.572 -1.4611 -1.0373 -0.4754
16920TIP3   OH272250   2.871   3.554   4.004 -0.1756 -0.9227 -0.6963
16920TIP3    H172251   2.943   3.563   4.067 -0.0237 -0.4723 -0.9271
16920TIP3    H272252   2.892   3.617   3.935 -3.0972  2.6469  1.3591
16921TIP3   OH272253   5.363   0.518  17.194  0.1635 -0.4391 -0.1446
16921TIP3    H172254   5.344   0.431  17.230 -0.9254 -0.2298 -0.1671
16921TIP3    H272255   5.417   0.501  17.117  1.0919 -1.0041  0.6054
16922TIP3   OH272256   1.102   2.861   5.816 -0.6531  0.1570  0.2190
16922TIP3    H172257   1.059   2.862   5.901  0.7670  4.2592  1.1114
16922TIP3    H272258   1.195   2.863   5.836 -0.2099 -0.8963 -1.5080
16923TIP3   OH272259   3.490   3.936  13.164 -0.3867 -0.4941  0.2297
16923TIP3    H172260   3.540   4.014  13.139 -0.3655 -0.5491  0.1011
16923TIP3    H272261   3.505   3.928  13.258 -0.8063 -0.0467  0.3367
16924TIP3   OH272262   0.277   4.026  13.201 -1.1474 -0.3477 -0.6050
16924TIP3    H172263   0.366   4.009  13.171 -1.2642 -3.0512  0.3294
16924TIP3    H272264   0.222   3.973  13.144 -2.0059  0.0221 -0.1403
16925TIP3   OH272265   2.439   2.608  11.511 -0.0909  0.4332 -0.2382
16925TIP3    H172266   2.390   2.614  11.429  1.0515 -1.1191 -1.0967
16925TIP3    H272267   2.503   2.679  11.505 -0.8063  1.1012 -0.1059
16926TIP3   OH272268   6.775   5.741   2.740 -0.0497  0.6426  0.3612
16926TIP3    H172269   6.747   5.759   2.830  1.0949 -2.4911  1.4960
16926TIP3    H272270   6.723   5.666   2.713 -0.2597  1.4345 -1.6095
16927TIP3   OH272271   2.607   2.321   3.098  0.3877 -0.0545  0.0026
16927TIP3    H172272   2.585   2.388   3.163  0.2029 -0.4348  0.3417
16927TIP3    H272273   2.658   2.257   3.147  0.5676 -0.1584 -0.3194
16928TIP3   OH272274   1.300   5.222  16.625 -0.2616 -0.0285 -0.2794
16928TIP3    H172275   1.388   5.245  16.596 -1.0073  0.4716 -2.3295
16928TIP3    H272276   1.243   5.251  16.554 -1.8298 -2.9814 -0.3807
16929TIP3   OH272277   5.494   3.033  13.839 -0.4385 -0.4848 -0.1708
16929TIP3    H172278   5.502   3.015  13.745  1.1299  0.5022 -0.2606
16929TIP3    H272279   5.545   2.963  13.881  0.2681  0.0223 -0.1656
16930TIP3   OH272280   3.831   6.106   4.467 -0.4633  0.1238 -0.5954
16930TIP3    H172281   3.742   6.092   4.499  0.2214  0.5440  1.6567
16930TIP3    H272282   3.843   6.201   4.468 -0.9594  0.3295 -3.8996
16931TIP3   OH272283   0.388   4.831  14.542 -0.6838 -0.2097 -0.2032
16931TIP3    H172284   0.303   4.835  14.587 -1.0537  2.2784 -0.9365
16931TIP3    H272285   0.401   4.738  14.523 -2.0176 -0.9639  2.1405
16932TIP3   OH272286   1.097   2.075   4.850  0.1328 -0.0202  0.2143
16932TIP3    H172287   1.157   2.011   4.890  0.7743 -0.0289 -0.7129
16932TIP3    H272288   1.015   2.065   4.898 -1.1725 -4.4235 -2.3206
16933TIP3   OH272289   1.070   4.365  16.396 -0.1882 -0.8026 -0.0411
16933TIP3    H172290   1.146   4.350  16.452  0.7714 -0.7656 -1.2893
16933TIP3    H272291   1.106   4.400  16.315 -1.7994  2.0513  0.3566
16934TIP3   OH272292   2.534   5.882  13.425  0.8176  0.4747  0.1922
16934TIP3    H172293   2.488   5.808  13.463  0.9910 -0.3034 -1.0577
16934TIP3    H272294   2.495   5.959  13.467  0.8244 -0.3103  1.7069
16935TIP3   OH272295   1.542   1.207   4.325  0.0983  0.2600 -0.4903
16935TIP3    H172296   1.446   1.204   4.320  0.0890 -0.5041  0.0546
16935TIP3    H272297   1.570   1.120   4.298  0.5484 -0.1537  1.1809
16936TIP3   OH272298   2.647   3.775   4.721  0.1554  0.1233 -0.2103
16936TIP3    H172299   2.577   3.715   4.749 -0.8140  0.6139 -1.4963
16936TIP3    H272300   2.655   3.837   4.793 -0.1885 -0.4017  0.2914
16937TIP3   OH272301   4.859   5.639  11.282  0.0317  0.1621  0.1978
16937TIP3    H172302   4.796   5.621  11.212 -0.4655  0.7781  0.4780
16937TIP3    H272303   4.945   5.623  11.242 -0.0705  2.7795 -1.3404
16938TIP3   OH272304   4.825   5.640  11.549 -0.0520  0.0805 -0.4621
16938TIP3    H172305   4.857   5.728  11.567 -1.0841  0.6557 -1.3467
16938TIP3    H272306   4.796   5.643  11.458  0.0582 -1.2287 -0.5573
16939TIP3   OH272307   2.091   3.356  17.064  0.1615  0.5006  0.0799
16939TIP3    H172308   2.047   3.393  16.987  0.3527  1.3041  0.3464
16939TIP3    H272309   2.152   3.291  17.027 -0.9175 -0.3088 -0.3178
16940TIP3   OH272310   5.423   2.899   3.076 -0.4821  0.2910  0.0373
16940TIP3    H172311   5.370   2.819   3.071 -1.5746  1.0021 -0.2436
16940TIP3    H272312   5.364   2.968   3.047  0.2666  1.2897  0.8231
16941TIP3   OH272313   2.996   3.270   5.856 -0.9593 -0.1457  0.0406
16941TIP3    H172314   2.945   3.332   5.908 -0.7006  0.6867 -0.6809
16941TIP3    H272315   3.059   3.233   5.918  0.6531  2.2613 -0.0242
16942TIP3   OH272316   2.214   6.546   4.416 -0.1365 -0.1811 -0.0056
16942TIP3    H172317   2.244   6.616   4.358 -0.2820  0.2001  0.3756
16942TIP3    H272318   2.220   6.467   4.363  1.3900 -0.1013  0.0002
16943TIP3   OH272319   0.983   6.762   4.575  0.3740  0.8261  0.6112
16943TIP3    H172320   0.981   6.828   4.505  0.8500 -0.5943 -0.8204
16943TIP3    H272321   0.892   6.738   4.589  0.3729 -0.4997 -1.2224
16944TIP3   OH272322   2.034   5.671  11.716  0.3658  0.3130 -0.1651
16944TIP3    H172323   2.087   5.638  11.644 -1.5700 -0.8697 -1.1624
16944TIP3    H272324   1.957   5.708  11.674  0.7306  2.7693  1.1792
16945TIP3   OH272325   4.035   4.407   6.193  0.0836 -0.1015 -0.2311
16945TIP3    H172326   4.066   4.337   6.251  0.6662  1.0090  0.8530
16945TIP3    H272327   4.072   4.385   6.108 -0.1523 -1.3678 -0.0240
16946TIP3   OH272328   3.584   0.081  13.202 -0.2861 -0.6147 -0.0585
16946TIP3    H172329   3.621   0.080  13.290 -1.1141 -0.2661  0.3124
16946TIP3    H272330   3.574  -0.011  13.179  1.6896 -0.7393 -0.5786
16947TIP3   OH272331   3.193   5.480  12.910 -0.4497  0.0439  0.1028
16947TIP3    H172332   3.184   5.458  13.003  1.0229 -0.9798  0.0389
16947TIP3    H272333   3.247   5.559  12.910  0.9597 -0.8813  0.1035
16948TIP3   OH272334   2.670   0.822   1.154  0.0513  0.1023  0.0273
16948TIP3    H172335   2.719   0.885   1.206  0.4554  0.9722 -1.3677
16948TIP3    H272336   2.730   0.797   1.084 -1.4209  1.1368 -1.6854
16949TIP3   OH272337   0.255   5.315  15.033 -0.0122 -0.0802 -0.6857
16949TIP3    H172338   0.186   5.265  14.989  0.5765 -2.5192  0.9300
16949TIP3    H272339   0.336   5.267  15.013  0.4353 -0.5583  1.8389
16950TIP3   OH272340   5.828   3.811   4.084 -0.0258 -0.1626  0.1186
16950TIP3    H172341   5.862   3.726   4.058  0.2831 -0.3843  1.2149
16950TIP3    H272342   5.846   3.817   4.178 -0.5241  0.8844  0.1637
16951TIP3   OH272343   1.217   0.848  15.887 -0.2869  0.3484 -0.2738
16951TIP3    H172344   1.156   0.842  15.813 -1.3044  2.7200  0.2699
16951TIP3    H272345   1.300   0.872  15.847 -1.1543  3.0780 -0.6542
16952TIP3   OH272346   6.249   3.718  11.337  0.5972 -0.1633 -0.2938
16952TIP3    H172347   6.302   3.727  11.416  1.1713  0.5205 -0.7406
16952TIP3    H272348   6.159   3.719  11.368  0.8241 -0.2103  0.3804
16953TIP3   OH272349   5.182   1.448   2.465  0.0684 -0.1414 -0.8549
16953TIP3    H172350   5.230   1.450   2.382  0.6798 -1.1173 -0.5333
16953TIP3    H272351   5.109   1.508   2.451  1.5386  1.6622 -1.2522
16954TIP3   OH272352   4.602   0.093   5.642  0.5895  0.3579  0.4472
16954TIP3    H172353   4.585   0.158   5.574  0.3173  0.6768  0.8151
16954TIP3    H272354   4.636   0.017   5.595 -1.6779 -0.2742 -0.3397
16955TIP3   OH272355   3.422   0.335   3.804  0.3487  0.1884 -0.2982
16955TIP3    H172356   3.406   0.371   3.716  0.0775  1.7747  0.3713
16955TIP3    H272357   3.377   0.396   3.863  0.3225 -0.9954  0.9302
16956TIP3   OH272358   3.842   3.490   2.902  0.1376  0.3724 -0.4475
16956TIP3    H172359   3.859   3.559   2.838 -0.6035  0.1266 -0.9232
16956TIP3    H272360   3.769   3.524   2.954  1.4558  1.0736  1.0483
16957TIP3   OH272361   4.573   0.161   2.927 -0.6045  0.5584 -0.2495
16957TIP3    H172362   4.536   0.107   2.858  1.4682 -0.7409 -0.4290
16957TIP3    H272363   4.658   0.189   2.893  0.5962 -0.3545  1.8217
16958TIP3   OH272364   4.464   1.283   1.981  0.1205  0.2549  0.5472
16958TIP3    H172365   4.491   1.368   2.016 -2.3999  1.4097 -0.0619
16958TIP3    H272366   4.479   1.290   1.887  0.2584 -0.1242  0.5409
16959TIP3   OH272367   1.507   6.078   0.457 -0.5809  0.5592  0.1310
16959TIP3    H172368   1.481   6.036   0.375  2.8724  0.0827 -0.8891
16959TIP3    H272369   1.518   6.006   0.519 -2.4077  0.8459  0.8491
16960TIP3   OH272370   4.530   4.602   0.833  0.1161  0.2075  0.4644
16960TIP3    H172371   4.483   4.684   0.818  0.7685  0.6600  0.9080
16960TIP3    H272372   4.585   4.591   0.755  1.1030  0.9307  1.0419
16961TIP3   OH272373   0.420   2.409  12.850 -0.7579 -0.1209 -0.4127
16961TIP3    H172374   0.401   2.328  12.803 -1.1155 -0.2730 -0.0114
16961TIP3    H272375   0.396   2.479  12.788 -1.1393 -0.3186 -0.4908
16962TIP3   OH272376   5.209   2.138  12.499 -0.2283 -0.1331 -0.0075
16962TIP3    H172377   5.188   2.194  12.574 -0.2583 -0.1988  0.0336
16962TIP3    H272378   5.253   2.062  12.538 -1.6432 -0.9241  0.1255
16963TIP3   OH272379   6.712   3.827  17.079  0.1121 -0.0580  0.0158
16963TIP3    H172380   6.709   3.897  17.014 -0.7474  0.0089  0.1214
16963TIP3    H272381   6.624   3.825  17.117  0.3621 -0.6561  0.5846
16964TIP3   OH272382   0.609   2.029  11.533  0.0857 -0.1340  0.0147
16964TIP3    H172383   0.683   2.070  11.488 -0.2105  3.0028  2.0584
16964TIP3    H272384   0.532   2.064  11.488 -0.2250 -1.5921 -0.6497
16965TIP3   OH272385   5.581   4.702  16.758  0.7542 -0.2959 -0.0573
16965TIP3    H172386   5.662   4.711  16.808 -1.0988  1.0921  3.0095
16965TIP3    H272387   5.512   4.727  16.819 -2.2557 -3.3113 -1.8567
16966TIP3   OH272388   4.966   0.472   4.693  0.0928 -0.0304  0.6547
16966TIP3    H172389   4.962   0.551   4.640 -3.0878  0.0039  0.7177
16966TIP3    H272390   4.892   0.419   4.663 -0.3592 -1.1213  3.3613
16967TIP3   OH272391   4.502   3.972   0.101  0.0052 -0.2335 -0.5128
16967TIP3    H172392   4.526   3.885   0.070 -1.8853 -0.6472 -0.9445
16967TIP3    H272393   4.514   4.028   0.025  2.6906  0.2386  0.1657
16968TIP3   OH272394   6.379   2.697  10.970 -0.1219  0.1340  0.3339
16968TIP3    H172395   6.313   2.628  10.974 -1.4797  1.4256  1.3452
16968TIP3    H272396   6.381   2.723  10.877  1.7291 -2.4006 -0.4398
16969TIP3   OH272397   5.405   0.311   4.372 -0.4450 -0.2298 -0.3760
16969TIP3    H172398   5.383   0.281   4.284 -0.4100 -1.3600 -0.0208
16969TIP3    H272399   5.331   0.365   4.399 -0.9080 -0.6752 -0.7355
16970TIP3   OH272400   6.497   6.066  11.000  0.0671 -0.1349 -0.2197
16970TIP3    H172401   6.412   6.106  11.018 -0.1249 -0.1720 -0.9772
16970TIP3    H272402   6.494   6.047  10.906  0.6487 -0.7646 -0.1144
16971TIP3   OH272403   4.233   0.532  13.225  0.3217 -0.6659 -0.3816
16971TIP3    H172404   4.146   0.533  13.184 -0.3323  1.2308  0.9057
16971TIP3    H272405   4.219   0.488  13.309  0.1426  1.2610  0.6424
16972TIP3   OH272406   6.037   6.696   5.032 -0.5185 -0.3628 -0.1746
16972TIP3    H172407   6.001   6.725   4.948  0.2995  0.5965 -0.2048
16972TIP3    H272408   5.964   6.705   5.093 -0.7843  0.0486 -0.5462
16973TIP3   OH272409   1.306   0.618   1.042  0.0029 -0.3444 -0.0476
16973TIP3    H172410   1.302   0.524   1.062  1.1012 -0.2465  0.7457
16973TIP3    H272411   1.393   0.630   1.004 -0.8264  0.0557 -1.9253
16974TIP3   OH272412   2.879   2.145   4.984  0.0284 -0.3139 -0.2686
16974TIP3    H172413   2.823   2.123   4.910 -0.2420  0.0927 -0.1919
16974TIP3    H272414   2.946   2.203   4.946  0.1265 -0.4265 -0.2694
16975TIP3   OH272415   5.707   4.515  13.337  0.2720  0.6850  0.1794
16975TIP3    H172416   5.776   4.496  13.401  1.0118  0.4200 -0.6829
16975TIP3    H272417   5.753   4.544  13.259 -0.5073 -0.6365 -0.8212
16976TIP3   OH272418   5.771   6.812  14.211  0.3212  0.0144 -0.4082
16976TIP3    H172419   5.854   6.858  14.196  0.8361 -1.0173 -0.7469
16976TIP3    H272420   5.769   6.796  14.305  0.3274  0.3582 -0.3469
16977TIP3   OH272421   0.252   1.354  16.877 -0.6792  0.5895 -0.1123
16977TIP3    H172422   0.209   1.432  16.911 -0.9861  0.1276  0.5808
16977TIP3    H272423   0.281   1.307  16.955  2.2532  1.5001 -0.5327
16978TIP3   OH272424   4.075   1.851  13.060  0.2726  0.2748  0.8980
16978TIP3    H172425   3.995   1.798  13.060 -0.8100  1.8418  0.6674
16978TIP3    H272426   4.060   1.917  13.128  0.0724  2.4093 -1.1104
16979TIP3   OH272427   0.154   1.292   4.720  0.0358  0.1202 -0.2135
16979TIP3    H172428   0.113   1.273   4.636  1.0250  0.1323 -0.7061
16979TIP3    H272429   0.084   1.278   4.784  0.1373 -3.3240 -0.6735
16980TIP3   OH272430   6.066   6.626  14.250  0.1255  0.0732 -0.2985
16980TIP3    H172431   6.116   6.643  14.170 -0.6984 -3.3596 -1.7396
16980TIP3    H272432   6.051   6.712  14.288  2.0266  1.7140 -2.9248
16981TIP3   OH272433   5.674   3.054  16.453  0.4801 -0.6514  0.0788
16981TIP3    H172434   5.640   3.116  16.518 -0.2252  0.2338 -1.0864
16981TIP3    H272435   5.747   3.100  16.413  0.0155 -0.5984 -0.7275
16982TIP3   OH272436   2.619   1.592  10.829 -0.2890 -0.4382  0.4719
16982TIP3    H172437   2.613   1.688  10.830  1.0255 -0.2111 -2.4734
16982TIP3    H272438   2.703   1.574  10.786  0.8432 -2.9783  3.3642
16983TIP3   OH272439   5.320   4.050   1.421 -0.3118  0.2488  0.7840
16983TIP3    H172440   5.317   4.142   1.448 -2.4738  0.4292  0.1365
16983TIP3    H272441   5.271   4.047   1.339  3.0489 -0.8924 -1.4061
16984TIP3   OH272442   6.098   0.996  14.608 -0.2607  0.5107 -0.8123
16984TIP3    H172443   6.121   0.903  14.612 -1.5166  0.1679 -1.2591
16984TIP3    H272444   6.130   1.032  14.691 -1.3440 -0.6962  0.1738
16985TIP3   OH272445   0.953   5.856  14.827 -0.2341 -0.0646  0.0590
16985TIP3    H172446   0.895   5.846  14.751 -0.7332  1.1549  0.2679
16985TIP3    H272447   0.960   5.950  14.840  1.0533 -0.2232  0.6233
16986TIP3   OH272448   6.389   3.564   6.481 -0.5159  0.0416  0.1502
16986TIP3    H172449   6.339   3.645   6.490 -0.3927  0.1755 -0.3233
16986TIP3    H272450   6.370   3.534   6.392  2.0389  1.3352 -0.9433
16987TIP3   OH272451   0.996   5.905   3.796  0.5458 -0.2503  0.4790
16987TIP3    H172452   0.916   5.950   3.771  0.8362  0.1974  0.3345
16987TIP3    H272453   0.976   5.812   3.786 -0.1838 -0.1747  1.1503
16988TIP3   OH272454   3.004   3.037  16.436 -0.4572  0.0543  0.2041
16988TIP3    H172455   3.021   3.112  16.379  1.6680 -1.5788 -1.4723
16988TIP3    H272456   3.008   2.961  16.378 -1.5339 -1.4670  2.0131
16989TIP3   OH272457   3.420   5.240   0.265 -0.1500  0.1204 -0.5400
16989TIP3    H172458   3.364   5.165   0.246  0.6954 -1.1687  1.7251
16989TIP3    H272459   3.439   5.233   0.358 -0.4683  3.4750 -0.0867
16990TIP3   OH272460   1.379   1.069  11.332  0.4186 -0.1168 -0.6399
16990TIP3    H172461   1.372   1.164  11.342  0.1564 -0.1364 -0.6471
16990TIP3    H272462   1.314   1.047  11.266  0.8184 -0.2400 -0.9963
16991TIP3   OH272463   4.646   2.369  13.645 -0.4667 -0.3648 -0.4700
16991TIP3    H172464   4.741   2.357  13.648 -0.6520 -1.9899 -0.0516
16991TIP3    H272465   4.619   2.324  13.565 -0.7239  1.6298 -1.5481
16992TIP3   OH272466   1.602   5.116   5.507  0.1463  0.0855 -0.1825
16992TIP3    H172467   1.562   5.116   5.420 -1.4480  1.2279  0.5127
16992TIP3    H272468   1.548   5.055   5.558  3.0556 -3.3210 -0.7445
16993TIP3   OH272469   5.059   5.701   3.376 -0.1635  0.3305  0.7581
16993TIP3    H172470   4.991   5.762   3.347 -2.1126 -2.0224  0.0940
16993TIP3    H272471   5.011   5.625   3.410  2.1494 -0.6772  2.0182
16994TIP3   OH272472   3.864   1.810   2.201  0.8829  0.4124 -0.1182
16994TIP3    H172473   3.870   1.740   2.267  0.7800 -0.7782 -1.3273
16994TIP3    H272474   3.783   1.856   2.223  0.7990 -0.0194  0.5233
16995TIP3   OH272475   2.792   5.065   0.040 -0.0771 -0.1302  0.1615
16995TIP3    H172476   2.760   4.984   0.078 -1.5214 -0.8948 -2.4739
16995TIP3    H272477   2.876   5.042   0.000 -0.0872 -0.1079  0.1269
16996TIP3   OH272478   4.122   4.796  15.053 -0.1826 -0.1401 -0.5315
16996TIP3    H172479   4.142   4.750  14.971 -0.4356  1.1351 -1.3314
16996TIP3    H272480   4.193   4.771  15.112  0.2834 -0.6696 -1.2971
16997TIP3   OH272481   1.652   0.372   3.163 -0.4017 -0.3932 -0.9145
16997TIP3    H172482   1.648   0.416   3.248 -0.8216  0.3042 -1.2867
16997TIP3    H272483   1.719   0.304   3.174 -0.3189 -0.1837 -0.0892
16998TIP3   OH272484   0.141   4.846   1.006  0.1130 -0.0822  0.4308
16998TIP3    H172485   0.167   4.767   1.055 -2.3102 -0.1124  1.8072
16998TIP3    H272486   0.081   4.892   1.065 -0.3390  1.5968 -1.2662
16999TIP3   OH272487   0.854   3.487  11.163  0.3763 -0.7182 -1.0103
16999TIP3    H172488   0.898   3.475  11.079  1.5901  0.3673 -0.5650
16999TIP3    H272489   0.845   3.582  11.172 -0.2380 -0.8457 -0.1607
17000TIP3   OH272490   0.460   1.965   5.463  1.0988 -0.1261 -0.4454
17000TIP3    H172491   0.524   1.982   5.532  0.6666  2.0903 -0.5172
17000TIP3    H272492   0.404   2.042   5.463 -0.7603 -1.3936 -1.2968
17001TIP3   OH272493   2.855   1.385   4.641 -0.3775 -0.0042 -0.0798
17001TIP3    H172494   2.893   1.315   4.589 -0.8108 -0.8642  0.7225
17001TIP3    H272495   2.845   1.458   4.581  3.7861  0.7835 -0.0809
17002TIP3   OH272496   2.216   0.640  10.541  1.1183 -0.1239  0.2930
17002TIP3    H172497   2.125   0.645  10.571  0.8063 -1.3841 -0.3917
17002TIP3    H272498   2.210   0.611  10.450  2.2481 -1.6500  0.6672
17003TIP3   OH272499   2.351   3.243  17.056 -0.0254  0.1199 -0.7801
17003TIP3    H172500   2.345   3.302  16.981 -1.7069  0.2058 -0.6259
17003TIP3    H272501   2.417   3.282  17.113  0.7112  0.4667 -1.8396
17004TIP3   OH272502   4.392   0.234  13.941 -0.4961  0.3616 -0.5192
17004TIP3    H172503   4.303   0.234  13.974 -0.4101  0.0099 -0.2758
17004TIP3    H272504   4.393   0.300  13.872 -1.0303  0.1262 -0.7499
17005TIP3   OH272505   2.647   5.951   1.987  0.9245  0.3213 -0.0272
17005TIP3    H172506   2.642   5.877   2.047  3.8190  0.8871  1.0477
17005TIP3    H272507   2.558   5.986   1.986 -0.0677 -1.9393  0.9794
17006TIP3   OH272508   6.544   2.942  14.236  0.1833 -0.1443 -0.3731
17006TIP3    H172509   6.549   3.035  14.217 -0.4205 -0.3066 -1.4077
17006TIP3    H272510   6.567   2.899  14.153 -0.3637 -0.9062 -0.1439
17007TIP3   OH272511   4.125   2.027  14.602 -0.8901  0.0334  0.2801
17007TIP3    H172512   4.090   2.060  14.519 -3.0992  0.1730  1.2091
17007TIP3    H272513   4.173   2.101  14.638  1.7078 -0.5619 -1.6276
17008TIP3   OH272514   2.545   2.275   4.258 -0.2514 -0.6823 -0.1871
17008TIP3    H172515   2.617   2.323   4.217 -0.7542 -0.2390 -0.5632
17008TIP3    H272516   2.524   2.326   4.336 -1.6074  0.4230 -1.2387
17009TIP3   OH272517   6.715   2.048  11.871 -0.6858  0.3085  0.1018
17009TIP3    H172518   6.781   2.037  11.803 -0.3469 -2.4856  0.7464
17009TIP3    H272519   6.632   2.031  11.826 -0.7018  0.8161 -0.0729
17010TIP3   OH272520   3.164   4.812  11.596  0.0452 -0.0709  0.2442
17010TIP3    H172521   3.200   4.901  11.604  0.5750 -0.0295 -1.9114
17010TIP3    H272522   3.238   4.760  11.565 -0.8109 -0.7985 -0.5951
17011TIP3   OH272523   2.345   6.517   0.977 -0.4046 -0.7300  0.4949
17011TIP3    H172524   2.385   6.519   1.063  1.2674 -1.2068 -0.2424
17011TIP3    H272525   2.254   6.489   0.993 -0.3759  0.0466  2.1557
17012TIP3   OH272526   4.206   1.663  12.572  0.2778  0.3565 -0.1969
17012TIP3    H172527   4.144   1.723  12.530  0.0384 -0.4938 -1.1290
17012TIP3    H272528   4.259   1.629  12.499  1.4482  0.6151  0.5094
17013TIP3   OH272529   3.887   1.516  12.079  0.6067 -0.1460  0.1056
17013TIP3    H172530   3.962   1.458  12.091  0.0870 -1.5062 -2.4612
17013TIP3    H272531   3.812   1.457  12.075 -0.3423  1.0028  0.3713
17014TIP3   OH272532   3.039   3.465  10.517  0.0537 -0.2949 -0.3992
17014TIP3    H172533   2.949   3.479  10.488 -0.4923 -0.1399  1.2680
17014TIP3    H272534   3.073   3.553  10.536 -0.4567 -0.5362  1.7800
17015TIP3   OH272535   6.198   3.794   0.610  0.4049 -0.3487 -0.3598
17015TIP3    H172536   6.256   3.859   0.648  0.3565 -0.0554 -0.7808
17015TIP3    H272537   6.114   3.838   0.602  0.2237 -0.6492 -0.1040
17016TIP3   OH272538   3.751   4.874   5.054 -0.2393  0.5705 -0.1956
17016TIP3    H172539   3.843   4.894   5.036  0.2746  1.9155  3.2374
17016TIP3    H272540   3.703   4.951   5.023 -0.1840  0.1780 -1.3228
17017TIP3   OH272541   3.067   3.475   1.933 -0.6241 -0.0410 -0.3694
17017TIP3    H172542   2.998   3.427   1.978 -1.3018  1.7393  0.6278
17017TIP3    H272543   3.148   3.443   1.973 -1.0748 -0.1325  0.4933
17018TIP3   OH272544   0.802   1.288   5.788 -0.0620  0.3928  0.1908
17018TIP3    H172545   0.802   1.218   5.723 -1.1709  0.3599  0.2198
17018TIP3    H272546   0.889   1.281   5.829  1.1862  1.2704 -2.1324
17019TIP3   OH272547   2.047   3.127   3.381  0.1390  0.2919 -0.7084
17019TIP3    H172548   2.010   3.192   3.321 -1.2208  0.8123  0.6206
17019TIP3    H272549   2.086   3.179   3.452 -3.2982 -0.1863  1.7752
17020TIP3   OH272550   2.205   6.800   1.630  0.1927 -0.4420  0.3901
17020TIP3    H172551   2.114   6.785   1.657  0.0116 -2.0758 -0.9982
17020TIP3    H272552   2.199   6.863   1.558  0.1392 -0.7126  0.1573
17021TIP3   OH272553   2.377   4.168  16.618  0.1734 -0.1872 -0.3455
17021TIP3    H172554   2.312   4.168  16.688  0.4029 -1.2090 -0.1156
17021TIP3    H272555   2.376   4.258  16.584 -0.5287  0.1030  0.4128
17022TIP3   OH272556   6.786   5.363   4.856 -0.0495  0.9344  0.3938
17022TIP3    H172557   6.726   5.289   4.844  0.3863  0.7187 -0.5955
17022TIP3    H272558   6.751   5.411   4.931  0.7672 -1.3292  2.3144
17023TIP3   OH272559   6.362   2.774  15.766  0.3927 -0.0655  0.3016
17023TIP3    H172560   6.278   2.818  15.762  1.1203  1.3621 -0.0694
17023TIP3    H272561   6.368   2.723  15.685 -1.1317 -2.2228  1.4473
17024TIP3   OH272562   3.152   2.184  11.847  0.0145  0.3198 -0.9942
17024TIP3    H172563   3.160   2.271  11.887  1.9405 -0.4949  0.5782
17024TIP3    H272564   3.062   2.181  11.816 -0.5094  2.4006  0.0779
17025TIP3   OH272565   4.563   3.019   3.143  0.8050 -0.2505  0.5157
17025TIP3    H172566   4.523   2.950   3.089  1.0486 -0.7381  0.9517
17025TIP3    H272567   4.591   3.085   3.080 -2.7637  1.2754  0.2608
17026TIP3   OH272568   2.883   4.134  14.966  0.0099  0.2906  0.4408
17026TIP3    H172569   2.818   4.187  14.920  1.2334  1.7130  0.2746
17026TIP3    H272570   2.909   4.188  15.041  0.9057 -0.3104  0.5772
17027TIP3   OH272571   6.468   3.663   0.670  0.0334  0.6024  0.0648
17027TIP3    H172572   6.373   3.667   0.680  0.1260  1.3534  0.7370
17027TIP3    H272573   6.492   3.577   0.704 -0.2164  1.1371  1.6776
17028TIP3   OH272574   3.149   4.407   1.047  0.0165 -0.3296 -0.3840
17028TIP3    H172575   3.121   4.333   0.993 -0.0581 -1.2764  0.9057
17028TIP3    H272576   3.191   4.367   1.123 -0.2156  0.9450  0.4517
17029TIP3   OH272577   4.144   2.156  11.946 -0.4322 -0.4943 -0.2263
17029TIP3    H172578   4.074   2.108  11.989 -0.3133 -0.1474  0.3613
17029TIP3    H272579   4.113   2.168  11.856 -1.2443 -0.1096  0.0983
17030TIP3   OH272580   6.666   6.040   6.346  0.1785  0.0606  0.0592
17030TIP3    H172581   6.611   6.067   6.420  0.1993  0.3270 -0.0238
17030TIP3    H272582   6.710   6.120   6.318  0.4012 -0.0994 -0.0513
17031TIP3   OH272583   3.456   2.765  12.596  0.1049 -0.1065 -0.5605
17031TIP3    H172584   3.431   2.853  12.625  1.3948  0.5757 -1.4052
17031TIP3    H272585   3.391   2.744  12.528  0.1092  0.4478 -0.7478
17032TIP3   OH272586   4.278   0.867   3.558 -0.7303  0.8234  0.3118
17032TIP3    H172587   4.282   0.961   3.540 -0.8538  0.8670  0.5116
17032TIP3    H272588   4.198   0.838   3.514 -0.6122  0.7834  0.1224
17033TIP3   OH272589   4.044   5.253  13.571 -0.1898 -0.1632 -0.7483
17033TIP3    H172590   4.014   5.162  13.559 -0.0051 -0.3881  0.4044
17033TIP3    H272591   4.033   5.270  13.664 -1.5588  1.5009 -1.1651
17034TIP3   OH272592   1.099   1.207   6.098  0.8372 -0.5181  0.1850
17034TIP3    H172593   1.160   1.279   6.113  0.0573 -0.2241  2.5161
17034TIP3    H272594   1.109   1.151   6.175 -1.4861 -0.6475  0.4877
17035TIP3   OH272595   0.694   4.409  11.139 -0.0984 -0.2057 -0.6455
17035TIP3    H172596   0.643   4.332  11.114  1.8910 -1.9749  0.4668
17035TIP3    H272597   0.784   4.385  11.120  0.8218  0.9362  1.9149
17036TIP3   OH272598   2.443   3.205  10.249 -0.2512 -0.1960 -0.1436
17036TIP3    H172599   2.479   3.116  10.245 -1.0765 -0.6336  1.4735
17036TIP3    H272600   2.453   3.231  10.341 -2.9198  0.1239  0.1144
17037TIP3   OH272601   5.598   2.481   2.808  0.5761 -0.0578  0.8766
17037TIP3    H172602   5.519   2.488   2.753 -0.4164 -3.6534  1.5264
17037TIP3    H272603   5.670   2.484   2.745  0.2417  4.6413  0.3770
17038TIP3   OH272604   4.218   2.939  15.187  0.2724 -0.1811  0.3696
17038TIP3    H172605   4.144   2.991  15.218  0.0016  0.1860 -0.8328
17038TIP3    H272606   4.279   2.937  15.261 -0.7478 -0.1439  1.2351
17039TIP3   OH272607   6.241   2.188  15.489 -0.3224  0.7639  0.4169
17039TIP3    H172608   6.158   2.205  15.445  0.6922 -0.1869 -2.0505
17039TIP3    H272609   6.240   2.247  15.565 -2.5818  1.8576 -0.3507
17040TIP3   OH272610   5.416   4.414   4.852  0.9711  0.5558  0.0376
17040TIP3    H172611   5.376   4.449   4.931 -0.4921  0.0260 -0.4483
17040TIP3    H272612   5.376   4.463   4.781 -0.2382 -1.2080 -0.5756
17041TIP3   OH272613   4.610   6.256   3.806 -0.2978  0.2097  0.2683
17041TIP3    H172614   4.578   6.197   3.738  1.6437 -1.5417  0.7549
17041TIP3    H272615   4.534   6.308   3.832 -2.1810 -2.2614 -0.0184
17042TIP3   OH272616   2.381   3.212   3.641 -0.1190 -0.1289 -0.4380
17042TIP3    H172617   2.472   3.198   3.614 -0.5516 -2.3277 -0.9853
17042TIP3    H272618   2.374   3.167   3.725 -0.6998  0.1042 -0.3591
17043TIP3   OH272619   2.521   5.146   4.715 -0.7835  0.6522  0.2927
17043TIP3    H172620   2.564   5.141   4.630 -0.8894 -1.0183  0.3120
17043TIP3    H272621   2.546   5.232   4.749  0.9772  0.5007 -0.5128
17044TIP3   OH272622   3.536   3.784  16.815 -0.0929 -0.1230 -0.5396
17044TIP3    H172623   3.469   3.782  16.747 -0.5726 -1.1705 -0.0610
17044TIP3    H272624   3.619   3.786  16.767 -0.4335 -0.3789 -1.1540
17045TIP3   OH272625   5.267   1.820   5.427  0.2127  0.3392 -0.5947
17045TIP3    H172626   5.320   1.843   5.504  1.1198  1.4711 -1.5172
17045TIP3    H272627   5.177   1.837   5.454  0.4011 -0.4441  0.6050
17046TIP3   OH272628   6.656   3.938   4.875 -0.5043 -0.6795  0.1684
17046TIP3    H172629   6.693   4.013   4.828  0.1758 -1.4484 -0.5532
17046TIP3    H272630   6.635   3.875   4.806  0.9278 -2.0198  0.9082
17047TIP3   OH272631   5.576   6.565  14.723  0.1609  0.0509 -0.0963
17047TIP3    H172632   5.642   6.612  14.672  0.2492 -1.6655 -1.6497
17047TIP3    H272633   5.493   6.590  14.684  0.1734 -0.6587 -0.5927
17048TIP3   OH272634   2.877   0.596  11.188 -0.5272  0.7293  0.4179
17048TIP3    H172635   2.912   0.667  11.133  1.5181 -0.7348 -0.2887
17048TIP3    H272636   2.868   0.522  11.128 -2.4736  0.2914  1.1799
17049TIP3   OH272637   5.150   1.271   0.763  0.0975 -0.2513 -0.3903
17049TIP3    H172638   5.130   1.178   0.754 -0.9534 -0.1835  0.9054
17049TIP3    H272639   5.191   1.295   0.680 -1.2000 -1.4742 -1.4444
17050TIP3   OH272640   0.139   6.055   0.539  0.6017  0.2611  0.1296
17050TIP3    H172641   0.067   6.112   0.510  1.2429  1.4896  0.8802
17050TIP3    H272642   0.148   5.991   0.468  0.2948  1.4946 -1.0788
17051TIP3   OH272643   5.566   6.454   3.709 -0.5303  0.4529 -0.1023
17051TIP3    H172644   5.583   6.547   3.700  1.2314  0.4394  2.1836
17051TIP3    H272645   5.653   6.413   3.714 -1.2127 -1.5390 -2.4241
17052TIP3   OH272646   0.475   0.067  15.513  0.0235 -0.1132  0.2406
17052TIP3    H172647   0.393   0.113  15.529 -1.7793 -3.2385  0.9162
17052TIP3    H272648   0.513   0.054  15.601 -0.2987 -1.1871  0.2364
17053TIP3   OH272649   6.081   1.677   4.915  0.8360  0.3308 -0.4127
17053TIP3    H172650   6.128   1.695   4.834 -0.8468 -0.5209 -1.6326
17053TIP3    H272651   6.050   1.587   4.906  2.3609 -0.5571  2.1185
17054TIP3   OH272652   3.026   0.166   4.454  0.0485  0.0412  0.3330
17054TIP3    H172653   3.080   0.117   4.392  0.6644  1.3004 -0.1635
17054TIP3    H272654   3.071   0.155   4.538 -0.2541 -0.8673  0.3888
17055TIP3   OH272655   4.375   4.839  16.356 -0.2980  0.2979  0.1827
17055TIP3    H172656   4.453   4.869  16.403 -0.9092 -0.5184  1.7746
17055TIP3    H272657   4.328   4.920  16.335 -0.6929  0.6632  2.2305
17056TIP3   OH272658   4.695   4.845   5.849  0.6117  0.3096 -0.3340
17056TIP3    H172659   4.686   4.839   5.944 -1.0535  2.8232 -0.2499
17056TIP3    H272660   4.776   4.894   5.836  1.1344 -0.5090 -0.2767
17057TIP3   OH272661   6.631   5.128   5.947 -0.4998  0.4604 -0.0615
17057TIP3    H172662   6.597   5.041   5.969 -0.5856  0.1405 -1.3784
17057TIP3    H272663   6.694   5.148   6.016  1.3223 -1.6929 -0.9856
17058TIP3   OH272664   3.065   3.448  15.870 -0.2804 -0.0546  0.2153
17058TIP3    H172665   3.151   3.407  15.878 -0.8102 -1.2107  0.1696
17058TIP3    H272666   3.006   3.376  15.845 -1.1963  0.7821 -0.1033
17059TIP3   OH272667   3.978   0.437   4.501 -0.2002 -0.7661  0.1787
17059TIP3    H172668   4.066   0.417   4.535  0.1977 -0.5436 -0.7075
17059TIP3    H272669   3.925   0.363   4.530  0.0883 -0.5140  1.4125
17060TIP3   OH272670   2.148   1.476  13.369  0.3570 -0.2984  0.5818
17060TIP3    H172671   2.078   1.540  13.355 -0.8046 -1.8376 -1.1727
17060TIP3    H272672   2.123   1.429  13.448 -1.5841 -1.8931 -0.8550
17061TIP3   OH272673   2.660   0.195  14.778 -0.3124  0.5212 -0.4597
17061TIP3    H172674   2.652   0.123  14.715 -2.3509  2.0392 -2.0747
17061TIP3    H272675   2.742   0.239  14.753  1.6083 -1.7719  1.2983
17062TIP3   OH272676   2.335   5.692   3.910 -0.1021  0.1121  0.1477
17062TIP3    H172677   2.405   5.713   3.972  0.8722 -0.2263 -0.8133
17062TIP3    H272678   2.311   5.602   3.932  1.8105 -0.8342 -1.3655
17063TIP3   OH272679   2.381   0.012   0.078 -0.0931  0.2512 -0.2748
17063TIP3    H172680   2.437   0.009   0.000 -0.1069  1.8613 -0.3808
17063TIP3    H272681   2.331  -0.070   0.076  1.2131 -0.5628 -0.9556
17064TIP3   OH272682   0.844   2.189  14.311 -0.6959  0.1197  0.0802
17064TIP3    H172683   0.924   2.141  14.289 -0.9425 -0.1506 -0.2353
17064TIP3    H272684   0.791   2.125  14.360 -0.1041  0.7451  1.5849
17065TIP3   OH272685   2.911   4.088  16.827 -0.2168  0.4025 -0.8689
17065TIP3    H172686   2.831   4.060  16.872  1.7612 -1.1142  2.0352
17065TIP3    H272687   2.919   4.181  16.848  0.0466 -0.0123  1.0781
17066TIP3   OH272688   6.533   0.957  16.890  0.8637  0.3265 -0.1293
17066TIP3    H172689   6.528   1.022  16.959 -1.0703 -2.0543  2.2148
17066TIP3    H272690   6.594   0.891  16.923  1.2951 -0.0280 -1.5379
17067TIP3   OH272691   3.584   1.544   2.527 -0.3659  0.7682 -0.0838
17067TIP3    H172692   3.580   1.542   2.623 -0.3129 -0.7841 -0.0946
17067TIP3    H272693   3.507   1.594   2.501 -1.7085 -0.7897  0.7186
17068TIP3   OH272694   3.222   4.398  12.290  0.1598 -0.0712  0.2049
17068TIP3    H172695   3.242   4.483  12.250 -1.0066 -0.0450 -0.3694
17068TIP3    H272696   3.236   4.334  12.220 -0.6739 -0.1581  0.1096
17069TIP3   OH272697   5.101   6.663   1.869  0.0437  0.1594  0.4491
17069TIP3    H172698   5.036   6.728   1.894 -0.4280 -0.3380  0.5298
17069TIP3    H272699   5.070   6.581   1.907  1.0598  0.0336  1.0472
17070TIP3   OH272700   5.546   0.867  16.555  0.0376 -0.9847  0.6913
17070TIP3    H172701   5.487   0.889  16.482  2.8832  1.2448 -1.1922
17070TIP3    H272702   5.586   0.784  16.530  1.0138 -0.2218 -0.3974
17071TIP3   OH272703   4.906   1.016   2.666 -0.1687  0.0180  0.2428
17071TIP3    H172704   4.818   1.017   2.703 -0.1135  0.1260  0.3718
17071TIP3    H272705   4.914   0.931   2.624 -1.4185  1.0808 -2.3728
17072TIP3   OH272706   3.422   4.041  12.351  0.3021  0.5939 -0.3937
17072TIP3    H172707   3.456   3.972  12.295 -0.2022  0.4093 -0.4767
17072TIP3    H272708   3.387   3.995  12.428  2.7181  0.9458  1.0270
17073TIP3   OH272709   4.749   5.827   1.984 -0.2245 -0.0833 -0.1526
17073TIP3    H172710   4.824   5.845   2.040 -0.9833  2.1309  0.2423
17073TIP3    H272711   4.787   5.791   1.904  0.9437 -2.4749  1.3641
17074TIP3   OH272712   2.183   6.702   1.952 -0.4397  0.5987  0.0355
17074TIP3    H172713   2.222   6.672   2.034 -0.0070 -0.1371 -0.4280
17074TIP3    H272714   2.091   6.719   1.973 -0.7537 -1.2577  0.2684
17075TIP3   OH272715   2.760   0.563   5.474 -0.0217  0.1329  0.2673
17075TIP3    H172716   2.686   0.606   5.517  1.6239  3.0034  0.4696
17075TIP3    H272717   2.837   0.608   5.508  1.6478 -0.6658 -2.1927
17076TIP3   OH272718   1.683   4.865  10.202  0.1135 -0.2136 -0.0667
17076TIP3    H172719   1.635   4.941  10.234  0.6123  0.7381 -1.4934
17076TIP3    H272720   1.628   4.790  10.225 -0.3574  0.5455  1.4113
17077TIP3   OH272721   0.093   0.105  13.168  0.5203  0.4853  0.3942
17077TIP3    H172722   0.188   0.102  13.165  0.5567  1.4004  0.2892
17077TIP3    H272723   0.072   0.104  13.262  0.6623  0.7410  0.4314
17078TIP3   OH272724   6.607   4.979   0.913  0.1575  0.2035 -0.0857
17078TIP3    H172725   6.526   5.027   0.894  0.9702  1.0280 -1.7170
17078TIP3    H272726   6.584   4.920   0.985 -1.7097  0.8630 -0.0847
17079TIP3   OH272727   1.754   1.073  11.448 -0.2000 -0.6231 -0.5595
17079TIP3    H172728   1.693   1.002  11.465  0.6443 -1.3123 -0.3698
17079TIP3    H272729   1.699   1.151  11.441 -1.0445 -1.1503  0.1290
17080TIP3   OH272730   4.515   4.272  11.594 -0.4545  0.3306 -0.0987
17080TIP3    H172731   4.608   4.260  11.577  0.3524 -0.6542  4.0600
17080TIP3    H272732   4.475   4.188  11.573 -0.1725  0.3027 -0.5276
17081TIP3   OH272733   5.782   4.041   0.830  0.1587  0.3480  0.0616
17081TIP3    H172734   5.719   3.968   0.835 -0.1740  0.5140 -1.2537
17081TIP3    H272735   5.840   4.017   0.758 -0.6024  1.8485 -1.1136
17082TIP3   OH272736   4.092   4.108  15.944 -0.6774 -0.3635  0.0672
17082TIP3    H172737   4.184   4.123  15.968 -0.3720 -2.3342  0.2811
17082TIP3    H272738   4.047   4.095  16.027 -1.4722  1.9190  0.0628
17083TIP3   OH272739   0.156   6.508  14.027 -0.1121  0.2294  0.3177
17083TIP3    H172740   0.241   6.521  13.984 -0.4313  3.1056  0.3433
17083TIP3    H272741   0.151   6.579  14.091 -3.2527  1.2779 -0.9143
17084TIP3   OH272742   2.597   0.321   4.886 -0.4999  0.3843  0.3244
17084TIP3    H172743   2.680   0.286   4.918  0.1734  2.0767  0.5064
17084TIP3    H272744   2.530   0.269   4.931  0.3863 -2.1100 -1.0264
17085TIP3   OH272745   4.744   1.393   4.213 -0.1380  0.1103  0.0787
17085TIP3    H172746   4.675   1.362   4.154 -0.9058 -0.8041  1.4088
17085TIP3    H272747   4.821   1.340   4.190 -0.2160  0.2645 -0.5663
17086TIP3   OH272748   1.215   4.953  16.695 -0.0494 -0.2744 -0.0490
17086TIP3    H172749   1.297   4.909  16.718 -0.6938  0.1501  3.8181
17086TIP3    H272750   1.230   5.045  16.714 -0.9791  0.0261 -0.6903
17087TIP3   OH272751   4.557   5.574  15.163 -0.2166 -0.4234 -0.2832
17087TIP3    H172752   4.632   5.528  15.200  0.1218  1.3722  1.3966
17087TIP3    H272753   4.594   5.649  15.117 -0.9061  0.0348 -0.1175
17088TIP3   OH272754   6.382   5.109   0.812 -0.3246  0.0985  0.3706
17088TIP3    H172755   6.303   5.061   0.788  0.2822 -1.0454  0.6065
17088TIP3    H272756   6.421   5.134   0.728 -1.1977  1.1445  0.2540
17089TIP3   OH272757   0.066   0.207   2.287 -0.0187 -0.1174  0.7444
17089TIP3    H172758   0.142   0.251   2.248  1.4984 -0.9220  2.6311
17089TIP3    H272759   0.028   0.272   2.346 -0.5176  0.1161  0.1775
17090TIP3   OH272760   2.587   5.292  14.331 -0.7068 -0.4515 -0.6220
17090TIP3    H172761   2.517   5.324  14.388  0.0546  0.9979 -0.4668
17090TIP3    H272762   2.627   5.220  14.380  0.4232  1.2480  1.0637
17091TIP3   OH272763   1.642   4.322  16.357 -0.2557 -0.2302  0.0019
17091TIP3    H172764   1.657   4.229  16.341 -2.2912 -0.8233  1.0953
17091TIP3    H272765   1.670   4.366  16.277  0.7707 -1.7576 -0.5214
17092TIP3   OH272766   5.020   5.886   0.949  0.3373  0.5988  0.5076
17092TIP3    H172767   5.032   5.874   1.043 -1.8387 -1.7264  0.5633
17092TIP3    H272768   5.016   5.798   0.913 -0.2010  1.4166 -1.6016
17093TIP3   OH272769   3.412   1.748  11.454 -0.2781 -0.7112  0.1351
17093TIP3    H172770   3.441   1.664  11.418  0.7614 -1.0295  1.6235
17093TIP3    H272771   3.366   1.725  11.535  1.3380  0.1769  1.3760
17094TIP3   OH272772   3.454   3.681   5.361 -0.0793  0.4061 -0.1382
17094TIP3    H172773   3.430   3.643   5.445  2.1693  0.1735  0.4577
17094TIP3    H272774   3.527   3.627   5.330  0.0528  1.3489 -1.5739
17095TIP3   OH272775   6.819   5.374   2.818  0.1749  0.2299 -0.1393
17095TIP3    H172776   6.862   5.323   2.749  1.1966  2.6452 -1.4062
17095TIP3    H272777   6.891   5.408   2.870 -0.1396  3.3459 -1.5549
17096TIP3   OH272778   3.544   6.613  16.051 -0.0111 -0.5997  0.8767
17096TIP3    H172779   3.496   6.529  16.049  1.5847 -1.6225 -2.6146
17096TIP3    H272780   3.631   6.591  16.019 -0.4893  2.7846 -3.6515
17097TIP3   OH272781   5.373   4.371  11.521 -0.1335 -0.1347  0.4177
17097TIP3    H172782   5.311   4.444  11.528 -0.5830 -0.3236 -1.2941
17097TIP3    H272783   5.452   4.404  11.563 -1.2443  0.2396  2.3437
17098TIP3   OH272784   1.257   3.302   0.304 -0.3193 -0.0779 -0.3114
17098TIP3    H172785   1.335   3.357   0.292  0.6676 -1.8269 -2.8833
17098TIP3    H272786   1.289   3.213   0.290 -2.6834 -0.9219 -0.7988
17099TIP3   OH272787   4.871   6.777  12.203  0.0074 -0.2191  0.4987
17099TIP3    H172788   4.935   6.826  12.255 -1.4730 -0.9300  3.1482
17099TIP3    H272789   4.805   6.842  12.179  1.0258  0.2538 -1.1873
17100TIP3   OH272790   5.717   5.179   4.747 -0.8398  0.1613 -0.5032
17100TIP3    H172791   5.778   5.127   4.694 -1.6108 -0.6990 -0.5691
17100TIP3    H272792   5.718   5.138   4.833  1.5471  2.4542  0.6809
17101TIP3   OH272793   5.652   1.188   2.309  0.0087 -0.4346 -0.0024
17101TIP3    H172794   5.565   1.183   2.270 -1.3977  0.8775  2.6852
17101TIP3    H272795   5.636   1.181   2.403  2.6585  1.3865  0.6883
17102TIP3   OH272796   6.024   1.033   0.362 -0.2182 -0.1435  0.2436
17102TIP3    H172797   5.952   1.091   0.337  1.6777  2.3301  0.1229
17102TIP3    H272798   6.059   1.002   0.278 -0.0143  0.1717  0.2074
17103TIP3   OH272799   0.802   1.983   3.278  0.1253 -0.1198 -0.1989
17103TIP3    H172800   0.866   1.915   3.255 -0.2848 -0.5870  0.0249
17103TIP3    H272801   0.717   1.945   3.253 -0.1705  0.0238  0.5859
17104TIP3   OH272802   2.722   2.060   4.779  0.1865 -0.8646 -0.2784
17104TIP3    H172803   2.707   2.088   4.689  0.8343 -0.3876 -0.2439
17104TIP3    H272804   2.639   2.020   4.806  0.8658 -3.7952 -2.0735
17105TIP3   OH272805   0.054   1.743  11.419  0.1035 -0.3247  0.5631
17105TIP3    H172806   0.084   1.832  11.401 -0.1029 -0.4463 -0.4237
17105TIP3    H272807   0.021   1.747  11.509 -0.5143  0.7609  0.3058
17106TIP3   OH272808   2.532   5.052  12.096  0.2372  0.5292 -0.1390
17106TIP3    H172809   2.559   4.982  12.155 -2.9067 -3.3397 -2.7536
17106TIP3    H272810   2.449   5.084  12.133  0.3954  1.1359 -0.2909
17107TIP3   OH272811   3.271   6.705  13.011 -1.0974  0.0235 -0.2899
17107TIP3    H172812   3.297   6.735  13.098  0.3266  0.6682 -0.9038
17107TIP3    H272813   3.179   6.728  13.003 -1.1849  0.1512  0.9579
17108TIP3   OH272814   2.376   0.350   2.694  0.3735  0.3231 -0.1558
17108TIP3    H172815   2.388   0.305   2.611 -0.0065  0.4397 -0.2751
17108TIP3    H272816   2.462   0.344   2.737  0.7670  0.8348 -0.8364
17109TIP3   OH272817   3.358   5.954   2.144 -0.1670 -0.4750 -0.5529
17109TIP3    H172818   3.416   5.899   2.196  0.2946 -0.6397 -1.2318
17109TIP3    H272819   3.380   5.933   2.054 -0.1389  0.6721 -0.8205
17110TIP3   OH272820   1.398   5.342   1.778  0.2897 -0.3954  0.1210
17110TIP3    H172821   1.492   5.329   1.773  0.3466  0.0381  0.0208
17110TIP3    H272822   1.381   5.365   1.869  0.0393 -2.2547  0.5861
17111TIP3   OH272823   5.967   6.272   4.564 -0.2016  0.3394 -0.1357
17111TIP3    H172824   6.052   6.252   4.603 -0.4207 -1.6865 -0.5670
17111TIP3    H272825   5.929   6.338   4.623  1.1887  0.4724  0.6791
17112TIP3   OH272826   1.185   1.318  17.141  0.1482 -0.6060  0.4255
17112TIP3    H172827   1.163   1.225  17.129  1.6447 -0.9285  0.0037
17112TIP3    H272828   1.280   1.321  17.135  0.1364  0.9450  0.6452
17113TIP3   OH272829   5.313   4.305  13.198 -0.0989  0.4580 -0.5684
17113TIP3    H172830   5.249   4.253  13.150 -0.2015  1.6406 -1.7542
17113TIP3    H272831   5.262   4.346  13.268  0.1382 -1.6315  0.9370
17114TIP3   OH272832   3.694   0.930  15.827  0.1603  0.3631 -1.1491
17114TIP3    H172833   3.767   0.929  15.764  0.8185  0.9141 -0.4129
17114TIP3    H272834   3.653   0.844  15.817  1.6747 -0.4538 -0.7278
17115TIP3   OH272835   4.287   4.925  13.611 -0.3919 -0.1865  0.1733
17115TIP3    H172836   4.211   4.982  13.620 -1.3732 -1.3735 -0.2790
17115TIP3    H272837   4.250   4.837  13.603  0.9791 -0.6820 -1.1748
17116TIP3   OH272838   4.962   2.592   3.197 -0.1073  0.3176 -0.0643
17116TIP3    H172839   4.900   2.561   3.263  1.5535 -0.1472  1.3473
17116TIP3    H272840   5.040   2.539   3.212  1.8612  3.2043  0.5494
17117TIP3   OH272841   3.019   2.349   0.670 -0.4070  0.1475  0.0330
17117TIP3    H172842   3.090   2.349   0.607 -0.5344  0.5469 -0.1117
17117TIP3    H272843   3.042   2.417   0.733  0.1893 -0.8716  0.9601
17118TIP3   OH272844   3.061   3.120  15.295 -0.2855  0.2400  0.0452
17118TIP3    H172845   2.991   3.184  15.292 -0.7962 -0.1418  2.0790
17118TIP3    H272846   3.016   3.036  15.304  0.4014 -0.1563 -0.1600
17119TIP3   OH272847   1.914   0.482  11.661 -0.3557 -0.2352  0.0009
17119TIP3    H172848   2.002   0.495  11.625 -0.9059 -0.9784 -1.7224
17119TIP3    H272849   1.904   0.387  11.663 -0.8876 -0.1641  0.8030
17120TIP3   OH272850   4.248   0.201   5.518 -0.2299 -0.3713  0.1548
17120TIP3    H172851   4.218   0.291   5.533 -0.4443 -0.4581  0.2558
17120TIP3    H272852   4.343   0.206   5.522 -0.2076 -0.0220 -0.5354
17121TIP3   OH272853   0.667   4.776  13.413  0.2847  0.5690 -0.1919
17121TIP3    H172854   0.672   4.811  13.324 -1.5523  0.7623 -0.2475
17121TIP3    H272855   0.752   4.732  13.426  0.2603 -0.2429 -2.3532
17122TIP3   OH272856   2.286   5.857   1.074  0.7448  1.2564 -0.0694
17122TIP3    H172857   2.236   5.830   1.151  1.7941  1.4740  0.7229
17122TIP3    H272858   2.283   5.953   1.077  1.4624  1.2799  0.1849
17123TIP3   OH272859   0.886   1.654  14.075 -0.0066 -0.1501  0.0755
17123TIP3    H172860   0.798   1.623  14.097 -0.1903 -0.9943 -1.6392
17123TIP3    H272861   0.931   1.575  14.045  1.3953  0.2557  1.0355
17124TIP3   OH272862   3.224   4.538   3.614 -0.6431 -0.0703  0.2439
17124TIP3    H172863   3.277   4.613   3.640 -0.6185 -0.5026  1.5392
17124TIP3    H272864   3.285   4.464   3.617 -0.9620 -0.3358  0.2859
17125TIP3   OH272865   3.813   5.715   1.524  0.0249  0.1933  1.0112
17125TIP3    H172866   3.875   5.774   1.481  0.2666  0.7605  2.1031
17125TIP3    H272867   3.857   5.689   1.605 -0.0021 -1.6370  0.4971
17126TIP3   OH272868   4.971   3.550  16.229 -0.5603 -0.1845  0.0576
17126TIP3    H172869   4.918   3.470  16.238 -1.0847  0.1459 -0.0314
17126TIP3    H272870   5.045   3.523  16.175  1.2380 -1.5363  2.9447
17127TIP3   OH272871   0.459   0.469   4.408  0.0853 -0.1574  0.1740
17127TIP3    H172872   0.436   0.421   4.329 -0.3856 -0.1883  0.3226
17127TIP3    H272873   0.554   0.472   4.408  0.1327 -1.2582  0.2710
17128TIP3   OH272874   0.589   1.145   3.277  0.2039 -0.7086 -0.0791
17128TIP3    H172875   0.659   1.150   3.342 -0.2075  0.6631  0.2985
17128TIP3    H272876   0.510   1.169   3.325 -0.0923  0.4296 -1.0717
17129TIP3   OH272877   4.943   3.138   2.270  0.3096 -0.2241 -0.0790
17129TIP3    H172878   4.983   3.156   2.185 -0.8915 -0.0554 -0.6248
17129TIP3    H272879   4.973   3.209   2.326 -0.1301  0.5477 -0.7931
17130TIP3   OH272880   0.368   5.125  14.569 -0.2456 -0.2565 -0.0783
17130TIP3    H172881   0.444   5.144  14.623 -2.1423  0.6369  2.5051
17130TIP3    H272882   0.358   5.030  14.572 -0.5276 -0.1933  1.5291
17131TIP3   OH272883   0.114   3.986   4.536 -0.3819  0.2323 -0.5570
17131TIP3    H172884   0.203   3.988   4.501 -0.5859  0.8562 -1.0815
17131TIP3    H272885   0.098   3.894   4.556 -0.4233 -0.2592 -2.5993
17132TIP3   OH272886   5.929   2.316  11.575 -0.3064  0.7713 -0.6886
17132TIP3    H172887   5.906   2.294  11.665 -0.7191 -0.9506 -1.1744
17132TIP3    H272888   5.845   2.333  11.533 -0.1854  0.7320 -0.9461
17133TIP3   OH272889   3.380   3.689   2.908  0.2412  0.2149  0.0661
17133TIP3    H172890   3.332   3.768   2.934 -0.8466  0.5779 -2.7410
17133TIP3    H272891   3.431   3.666   2.986 -2.4093  1.3839  2.3253
17134TIP3   OH272892   4.844   2.749  14.471  0.2139 -0.3412 -0.2626
17134TIP3    H172893   4.823   2.722  14.561  1.1979 -0.3933 -0.0350
17134TIP3    H272894   4.935   2.722  14.459 -0.2886 -1.4919 -1.7246
17135TIP3   OH272895   5.731   3.821   1.867 -0.5132 -0.9511  0.0739
17135TIP3    H172896   5.669   3.871   1.920 -0.6343 -0.3318 -0.6294
17135TIP3    H272897   5.806   3.806   1.924 -0.3809  0.2378  0.2443
17136TIP3   OH272898   4.443   0.015  13.081  0.0654  0.2829  0.0060
17136TIP3    H172899   4.428  -0.077  13.058 -1.7687  0.7017 -0.7059
17136TIP3    H272900   4.534   0.032  13.057  0.3720 -1.2753 -0.0487
17137TIP3   OH272901   5.235   2.662   3.638 -0.6216  0.3326 -0.4064
17137TIP3    H172902   5.155   2.708   3.661 -1.9523 -1.9986 -0.0318
17137TIP3    H272903   5.208   2.571   3.627  1.8151 -0.3727 -1.2750
17138TIP3   OH272904   2.926   1.900   2.199 -0.4184 -0.1561 -0.5136
17138TIP3    H172905   2.947   1.949   2.279 -1.8587 -2.5124  1.4282
17138TIP3    H272906   2.830   1.903   2.194 -0.3427  0.3470 -2.4843
17139TIP3   OH272907   4.941   2.792   2.370  0.3772 -0.2838  0.0225
17139TIP3    H172908   5.023   2.743   2.378 -0.7028 -2.0769  0.7146
17139TIP3    H272909   4.920   2.789   2.277  1.5069  0.9530 -0.3037
17140TIP3   OH272910   5.781   0.989  12.424 -0.2559 -0.1863 -0.1898
17140TIP3    H172911   5.779   0.913  12.366  1.8807 -0.5067  0.0795
17140TIP3    H272912   5.714   0.971  12.490 -1.6164 -0.5596 -1.6220
17141TIP3   OH272913   6.072   1.069  14.870 -0.3350  0.1750 -0.6352
17141TIP3    H172914   6.131   1.032  14.936 -0.0204 -0.2569 -1.1533
17141TIP3    H272915   5.985   1.057  14.906 -0.1523  0.1066 -0.2144
17142TIP3   OH272916   4.905   1.449   1.859  0.1406 -0.1869 -0.3929
17142TIP3    H172917   4.883   1.375   1.803 -0.8770 -0.8932  0.8979
17142TIP3    H272918   4.823   1.498   1.868  0.2716 -0.1159  0.5127
17143TIP3   OH272919   2.236   3.743  14.623 -0.8821  0.1937  0.8891
17143TIP3    H172920   2.274   3.657  14.638 -0.4534 -0.1669 -1.8264
17143TIP3    H272921   2.142   3.726  14.616 -0.6587 -0.3644 -1.2478
17144TIP3   OH272922   5.209   4.284   2.900  0.1168  0.3030  0.1675
17144TIP3    H172923   5.225   4.346   2.971  0.5584 -1.9168  2.1576
17144TIP3    H272924   5.286   4.227   2.900 -1.2913 -1.7241  0.0966
17145TIP3   OH272925   4.560   1.476  15.154 -0.4716 -0.2958 -0.6240
17145TIP3    H172926   4.493   1.503  15.217  0.9045  1.5559  0.1600
17145TIP3    H272927   4.628   1.435  15.207  0.1602  0.1936 -1.0302
17146TIP3   OH272928   1.447   2.437   0.650  0.1900  0.5294 -0.3168
17146TIP3    H172929   1.355   2.411   0.662  0.1335 -0.4240 -2.3086
17146TIP3    H272930   1.461   2.429   0.555  2.1726  1.2360 -0.1150
17147TIP3   OH272931   4.374   4.733  13.393  0.4659 -0.2909  0.1294
17147TIP3    H172932   4.307   4.746  13.326  0.6333  2.2832  0.3553
17147TIP3    H272933   4.325   4.724  13.475  0.3248 -2.0105 -0.0963
17148TIP3   OH272934   2.663   1.994   2.241  0.0573  0.1905  0.0417
17148TIP3    H172935   2.616   1.912   2.255  0.0587  0.1303 -0.3146
17148TIP3    H272936   2.618   2.057   2.298  0.4942 -0.2089  0.8570
17149TIP3   OH272937   4.142   6.725   0.751  0.1693  0.1294 -0.1516
17149TIP3    H172938   4.057   6.708   0.712  0.0081  0.7098 -0.0652
17149TIP3    H272939   4.141   6.819   0.771  0.5764  0.0118  0.4490
17150TIP3   OH272940   1.641   4.808  10.764 -0.5186 -0.3174 -0.0949
17150TIP3    H172941   1.596   4.858  10.832  1.3742  1.6074 -0.1603
17150TIP3    H272942   1.700   4.750  10.812 -1.4478 -1.2832 -0.0710
17151TIP3   OH272943   1.419   4.006  14.912  0.3080 -0.1562 -0.2989
17151TIP3    H172944   1.473   4.011  14.990  1.3356 -0.3917 -0.9723
17151TIP3    H272945   1.478   3.973  14.844 -0.4681  0.3499 -1.2482
17152TIP3   OH272946   1.567   2.299  14.427  0.3604  0.2765  0.0592
17152TIP3    H172947   1.565   2.360  14.501  1.6273 -1.0164  1.2569
17152TIP3    H272948   1.522   2.221  14.460  0.5989 -0.1832 -0.6811
17153TIP3   OH272949   4.997   6.411  12.491 -0.3557 -0.2429 -0.1335
17153TIP3    H172950   4.941   6.489  12.491  0.4492  0.3515 -0.6267
17153TIP3    H272951   5.059   6.427  12.562  0.8161  0.3350 -1.2446
17154TIP3   OH272952   1.806   1.592   1.274 -0.6520  0.4668 -0.3089
17154TIP3    H172953   1.811   1.608   1.369  0.2018 -0.9573 -0.0867
17154TIP3    H272954   1.740   1.523   1.265 -1.0707  0.9270 -0.8100
17155TIP3   OH272955   4.883   4.956  14.489  0.0338  0.0829 -0.2419
17155TIP3    H172956   4.965   4.933  14.532  0.9494 -0.3743 -2.0996
17155TIP3    H272957   4.854   5.035  14.533  0.5315 -0.7244  1.6186
17156TIP3   OH272958   3.858   2.585   5.050  0.0904  0.4839 -0.5092
17156TIP3    H172959   3.897   2.562   5.134 -0.7236  0.8866 -0.0152
17156TIP3    H272960   3.889   2.517   4.990  1.0825  0.4772 -0.0053
17157TIP3   OH272961   5.831   1.150  13.795 -0.0459 -0.3630  0.5570
17157TIP3    H172962   5.898   1.099  13.749  0.4441  0.9628 -0.2343
17157TIP3    H272963   5.779   1.189  13.726 -0.7259 -0.1757  1.1649
17158TIP3   OH272964   3.311   2.631  16.984 -0.4701 -0.0690 -0.3245
17158TIP3    H172965   3.378   2.698  16.995 -1.6224  1.2118 -0.8109
17158TIP3    H272966   3.308   2.615  16.890  0.9020 -2.0301 -0.0948
17159TIP3   OH272967   4.071   1.704   3.387 -0.1733 -0.3441 -0.2326
17159TIP3    H172968   3.979   1.718   3.364 -0.6063 -1.1396  0.9401
17159TIP3    H272969   4.118   1.723   3.306 -1.4196 -0.5364 -1.0461
17160TIP3   OH272970   0.520   5.803   2.858 -0.5067  0.1680 -0.0559
17160TIP3    H172971   0.435   5.828   2.822 -0.9836 -0.7725  0.3791
17160TIP3    H272972   0.521   5.707   2.854 -1.3484 -0.1997  3.9062
17161TIP3   OH272973   3.030   1.636   5.502 -0.1208  0.0213  0.2613
17161TIP3    H172974   3.046   1.707   5.439  0.5821 -1.8256 -1.7670
17161TIP3    H272975   2.957   1.587   5.465 -0.4253 -0.4661  1.4844
17162TIP3   OH272976   4.639   5.284  13.791  0.1528  0.2121  0.8550
17162TIP3    H172977   4.723   5.253  13.758  0.7889  1.7046  0.9696
17162TIP3    H272978   4.619   5.227  13.866  0.8724 -0.3930  0.5923
17163TIP3   OH272979   1.193   0.852   5.967 -0.5502 -0.0885  0.1470
17163TIP3    H172980   1.106   0.834   5.931  0.0792 -2.6901 -0.2705
17163TIP3    H272981   1.187   0.824   6.058  0.1477 -1.5931 -0.2239
17164TIP3   OH272982   0.959   2.995   0.535 -0.1996 -0.3862 -0.4103
17164TIP3    H172983   0.915   3.030   0.613  0.4178 -1.6570  0.5527
17164TIP3    H272984   0.906   3.025   0.462 -1.2371  0.2101  0.5552
17165TIP3   OH272985   0.347   2.871   0.179 -0.1999  0.2796  0.0933
17165TIP3    H172986   0.404   2.862   0.255 -1.3708  0.8596  1.0825
17165TIP3    H272987   0.265   2.905   0.215 -1.1091 -0.3540 -1.2990
17166TIP3   OH272988   0.672   3.125   3.088  0.2671  0.8010 -0.7970
17166TIP3    H172989   0.710   3.212   3.103 -0.1590  0.8880 -0.1898
17166TIP3    H272990   0.609   3.114   3.159  1.0633 -0.4417 -0.2466
17167TIP3   OH272991   6.318   1.318  14.954 -0.2727 -0.1197  0.2136
17167TIP3    H172992   6.288   1.235  14.916  0.7873 -1.1896  1.5658
17167TIP3    H272993   6.241   1.354  14.998 -0.4252 -1.1345  0.8205
17168TIP3   OH272994   2.493   6.379   2.629 -0.1078 -0.3519  0.2766
17168TIP3    H172995   2.543   6.382   2.711  0.6408 -2.0165 -0.0660
17168TIP3    H272996   2.547   6.326   2.571 -1.3802 -0.5427 -0.7673
17169TIP3   OH272997   3.108   3.738  10.543  0.4957 -0.4226 -0.4054
17169TIP3    H172998   3.146   3.704  10.623  0.8568  0.6480 -0.1084
17169TIP3    H272999   3.103   3.832  10.557 -2.7037 -0.5085 -0.2246
17170TIP3   OH273000   1.852   5.745   2.203 -0.3414  0.7046  0.4898
17170TIP3    H173001   1.794   5.696   2.260 -0.6190  2.1074  1.4482
17170TIP3    H273002   1.794   5.798   2.148 -0.0339  0.3408 -0.2024
17171TIP3   OH273003   2.365   0.999  11.395  0.6228  0.0261 -0.2414
17171TIP3    H173004   2.455   0.990  11.426  1.1463  3.0587 -0.5312
17171TIP3    H273005   2.311   0.985  11.473  1.6233  2.1448  0.9172
17172TIP3   OH273006   4.330   3.662  16.972  0.0796  0.0945 -0.0166
17172TIP3    H173007   4.423   3.678  16.988 -0.5508  2.4613  1.8357
17172TIP3    H273008   4.286   3.743  17.000 -2.7777 -1.8303  1.6091
17173TIP3   OH273009   5.188   6.543  17.119  0.6080  0.2395  0.0376
17173TIP3    H173010   5.123   6.611  17.100 -0.1787 -0.0325  1.6021
17173TIP3    H273011   5.168   6.514  17.207  0.9187 -2.0728 -0.5824
17174TIP3   OH273012   1.279   6.570  14.256 -0.2644  0.3666  0.5911
17174TIP3    H173013   1.189   6.571  14.288 -0.1742  0.7290  0.8419
17174TIP3    H273014   1.275   6.519  14.175 -0.9307  1.3720 -0.0396
17175TIP3   OH273015   6.254   5.069  12.924  0.1827  0.1218 -0.4402
17175TIP3    H173016   6.344   5.098  12.909  1.3051 -3.3879 -1.5107
17175TIP3    H273017   6.237   5.089  13.016  2.3071  0.3023 -0.0440
17176TIP3   OH273018   5.037   0.976  13.591  0.0225  0.1673 -0.4792
17176TIP3    H173019   5.077   1.027  13.520 -0.5392  1.8542  0.3665
17176TIP3    H273020   5.098   0.986  13.664  0.3550 -1.1663 -0.5452
17177TIP3   OH273021   5.738   2.168   0.136 -0.3537  0.0654  0.2469
17177TIP3    H173022   5.795   2.091   0.137  1.8770  1.5779 -1.2284
17177TIP3    H273023   5.694   2.164   0.051  1.9769  1.8374 -1.1238
17178TIP3   OH273024   6.322   2.742   5.684 -0.1633 -0.1666  0.4846
17178TIP3    H173025   6.292   2.745   5.593 -0.4551 -1.7774  0.5023
17178TIP3    H273026   6.383   2.669   5.686  0.6950  0.5607  1.3546
17179TIP3   OH273027   3.480   3.129   1.365 -0.0994 -0.7951  0.1078
17179TIP3    H173028   3.510   3.167   1.448  0.0552 -0.3867 -0.1308
17179TIP3    H273029   3.532   3.173   1.298 -1.8648  0.6542 -0.3949
17180TIP3   OH273030   1.145   4.630   5.330  0.1216  0.2423  0.4818
17180TIP3    H173031   1.189   4.656   5.411 -1.9595  1.4722  1.3249
17180TIP3    H273032   1.114   4.541   5.347  1.1666 -0.1659  0.3377
17181TIP3   OH273033   0.825   2.343  16.270 -0.6153  0.0025 -0.4694
17181TIP3    H173034   0.900   2.285  16.257 -0.4983 -0.0964  0.5863
17181TIP3    H273035   0.834   2.374  16.360 -1.1558  0.9784 -0.7312
17182TIP3   OH273036   0.172   2.607  11.437 -0.3808 -0.5415  0.0254
17182TIP3    H173037   0.089   2.635  11.398 -0.6375 -1.9030 -0.4532
17182TIP3    H273038   0.175   2.653  11.521 -1.5753 -0.3873  0.0116
17183TIP3   OH273039   3.183   3.642   2.368 -0.1672  0.0295 -0.4325
17183TIP3    H173040   3.214   3.610   2.453 -1.1034  2.8040  1.1091
17183TIP3    H273041   3.224   3.728   2.359 -2.4995  1.1320 -1.2773
17184TIP3   OH273042   4.329   4.507   3.109  0.0948 -0.2119 -0.8477
17184TIP3    H173043   4.366   4.449   3.043  0.4425 -1.6627  0.5345
17184TIP3    H273044   4.242   4.470   3.128  1.0950 -1.6109  1.4833
17185TIP3   OH273045   6.391   1.028   3.261  0.4501 -0.5790 -0.0612
17185TIP3    H173046   6.457   0.963   3.239  0.1214 -1.0482  0.3292
17185TIP3    H273047   6.364   1.065   3.177  1.7548  0.1669 -0.1865
17186TIP3   OH273048   4.198   0.613  15.479 -0.7763  0.2746 -0.5773
17186TIP3    H173049   4.290   0.630  15.497 -0.3013 -2.2240 -0.1985
17186TIP3    H273050   4.151   0.684  15.521  0.9761  2.0560 -1.4701
17187TIP3   OH273051   5.356   3.612   3.404  1.0225 -0.1677 -0.3082
17187TIP3    H173052   5.435   3.656   3.437  0.9744  0.4833 -1.0171
17187TIP3    H273053   5.306   3.591   3.482  1.0881  0.9865  0.0699
17188TIP3   OH273054   5.537   0.141   2.566  0.2458  0.6181 -0.2763
17188TIP3    H173055   5.547   0.070   2.503 -1.4034  0.3097 -0.2301
17188TIP3    H273056   5.483   0.104   2.636 -0.0522  1.7024  0.0972
17189TIP3   OH273057   4.740   2.368   6.020  0.4538  0.6224 -0.3743
17189TIP3    H173058   4.808   2.372   6.088  0.4014  0.2556 -0.2970
17189TIP3    H273059   4.663   2.407   6.061 -0.5585 -2.4734  0.9711
17190TIP3   OH273060   6.187   4.927   4.967 -0.3427  0.2297 -0.4127
17190TIP3    H173061   6.253   4.971   5.021  0.1014 -0.7368 -0.1606
17190TIP3    H273062   6.147   4.998   4.917  0.0756  0.9823  0.2931
17191TIP3   OH273063   4.443   4.362   0.938 -0.3150 -0.0953  0.0217
17191TIP3    H173064   4.498   4.285   0.926 -0.4800 -0.1603 -0.3365
17191TIP3    H273065   4.498   4.435   0.909 -0.1608 -0.0779  0.3565
17192TIP3   OH273066   6.563   5.656  13.142 -0.7618  0.8028 -0.2133
17192TIP3    H173067   6.582   5.686  13.230  3.0775 -3.5711  0.8388
17192TIP3    H273068   6.625   5.704  13.086  1.8128 -1.2571  0.6944
17193TIP3   OH273069   4.880   1.478  15.769 -0.3346  0.0098  0.6898
17193TIP3    H173070   4.962   1.528  15.768  0.1683 -0.7639 -1.3205
17193TIP3    H273071   4.906   1.388  15.749 -1.7191 -0.1071 -0.8461
17194TIP3   OH273072   6.004   2.548  13.093 -0.4943 -0.0247  0.5112
17194TIP3    H173073   5.915   2.577  13.112 -0.5066  1.2747 -1.2247
17194TIP3    H273074   6.031   2.602  13.018  2.5307  1.1604  2.2661
17195TIP3   OH273075   4.050   0.995   1.655 -0.2048  0.0095 -0.3715
17195TIP3    H173076   3.960   0.972   1.633 -0.5175  0.4646  0.3642
17195TIP3    H273077   4.053   0.992   1.751  0.7095 -0.5188 -0.3991
17196TIP3   OH273078   0.400   4.706   3.367 -0.2746 -0.5775  0.0824
17196TIP3    H173079   0.456   4.631   3.345 -2.1360 -2.0308  0.0896
17196TIP3    H273080   0.428   4.776   3.308  0.9025 -1.5497 -0.5444
17197TIP3   OH273081   2.013   4.186   4.566 -0.0063  0.0921  0.2659
17197TIP3    H173082   1.987   4.190   4.474  0.0039  0.0206  0.2599
17197TIP3    H273083   2.102   4.223   4.568  0.1943 -0.3773  0.1696
17198TIP3   OH273084   3.542   3.848  11.924  0.0737  0.1075  0.1262
17198TIP3    H173085   3.502   3.761  11.926  0.8483 -0.2516  0.8215
17198TIP3    H273086   3.631   3.834  11.890 -0.6974  1.0639 -2.5345
17199TIP3   OH273087   6.267   5.524  16.024  0.4653 -0.1177 -0.5679
17199TIP3    H173088   6.275   5.491  15.934 -0.2953  0.8140 -0.9978
17199TIP3    H273089   6.222   5.608  16.014  0.2117 -0.0911  0.7111
17200TIP3   OH273090   2.586   0.017   4.059  0.2824  0.1636  0.5855
17200TIP3    H173091   2.545   0.062   3.986 -0.4180 -0.6187  0.4865
17200TIP3    H273092   2.672  -0.011   4.025  0.0239 -0.0610  0.1082
17201TIP3   OH273093   1.472   2.836   3.466 -0.3899  0.1104  0.1530
17201TIP3    H173094   1.465   2.745   3.437 -1.2790  0.4246 -0.6606
17201TIP3    H273095   1.482   2.887   3.386  0.2014  0.7392  0.6069
17202TIP3   OH273096   0.412   2.574   0.027 -0.8812 -0.1376 -0.2819
17202TIP3    H173097   0.465   2.568  -0.053 -0.6584 -0.8989 -0.0827
17202TIP3    H273098   0.381   2.485   0.042 -1.8581  0.2070 -0.1387
17203TIP3   OH273099   1.587   6.046  11.466  0.1124  0.1264  0.4308
17203TIP3    H173100   1.612   6.134  11.439 -0.3490 -0.6926 -3.2031
17203TIP3    H273101   1.661   5.991  11.439 -0.5704 -0.8696  0.5576
17204TIP3   OH273102   0.769   2.010   2.404  0.0997  0.0519  0.1167
17204TIP3    H173103   0.707   2.077   2.375 -0.3396 -0.6880 -0.7091
17204TIP3    H273104   0.745   1.932   2.354  0.2164 -0.9046  1.4879
17205TIP3   OH273105   4.815   0.393   1.782  0.0862 -0.0863 -0.4692
17205TIP3    H173106   4.829   0.309   1.739  3.2629  0.6942 -1.2209
17205TIP3    H273107   4.739   0.430   1.738 -1.5609 -2.5964  0.0542
17206TIP3   OH273108   3.635   3.860   2.134 -0.0841 -0.4509  0.4001
17206TIP3    H173109   3.716   3.845   2.085 -0.2087  0.9923 -0.2969
17206TIP3    H273110   3.657   3.931   2.194 -0.8107 -0.1100  0.2648
17207TIP3   OH273111   1.160   3.151  14.215 -0.5051 -0.3903  0.1999
17207TIP3    H173112   1.131   3.178  14.302  0.8639  0.8921  0.2929
17207TIP3    H273113   1.113   3.208  14.155  2.0251  2.0909  0.3752
17208TIP3   OH273114   0.200   2.030   6.652 -0.0636 -0.3640  0.4140
17208TIP3    H173115   0.235   1.941   6.657 -0.4874 -0.5629 -0.0642
17208TIP3    H273116   0.111   2.022   6.687 -0.3285 -0.2544 -0.2264
17209TIP3   OH273117   4.229   5.510   3.889 -0.2478 -0.4962 -0.4636
17209TIP3    H173118   4.144   5.550   3.909  0.1465 -0.4136  1.1813
17209TIP3    H273119   4.228   5.427   3.937  1.1941  0.2161  0.8451
17210TIP3   OH273120   1.328   5.510  16.694  0.6552 -0.4447 -0.1921
17210TIP3    H173121   1.269   5.487  16.623 -1.0581  1.1635  0.6072
17210TIP3    H273122   1.412   5.530  16.652  0.3954 -1.8790 -1.4547
17211TIP3   OH273123   3.263   2.674  11.047  0.4433  0.2106  0.0923
17211TIP3    H173124   3.350   2.707  11.027  0.6493 -0.2726  0.1819
17211TIP3    H273125   3.218   2.672  10.962  1.7789 -3.2159 -0.6905
17212TIP3   OH273126   4.927   4.127   1.152  0.1948 -0.3391  0.2178
17212TIP3    H173127   4.883   4.166   1.227 -0.0178 -0.0165 -0.0669
17212TIP3    H273128   4.990   4.194   1.124 -0.0473 -0.2642 -0.1662
17213TIP3   OH273129   4.419   1.414  12.794  0.1454  0.2096 -0.0897
17213TIP3    H173130   4.374   1.489  12.755  0.0507  0.3263  0.2437
17213TIP3    H273131   4.350   1.367  12.842  0.7438  1.5495  2.2233
17214TIP3   OH273132   1.378   5.888   2.242 -0.1718 -0.4990  0.0206
17214TIP3    H173133   1.310   5.854   2.299 -1.7160  1.1326 -0.7257
17214TIP3    H273134   1.389   5.821   2.174 -2.2742 -0.1387 -0.7666
17215TIP3   OH273135   5.284   6.211   4.553  0.0868 -0.0137 -0.1607
17215TIP3    H173136   5.248   6.224   4.466 -0.7255 -1.5488 -0.0855
17215TIP3    H273137   5.207   6.206   4.610  0.2848 -3.4683 -0.0151
17216TIP3   OH273138   1.869   2.611  13.976 -0.5301  0.2841 -0.6088
17216TIP3    H173139   1.856   2.535  13.920 -0.9057 -0.1705  0.0850
17216TIP3    H273140   1.814   2.679  13.937 -1.2650 -0.2091 -0.4545
17217TIP3   OH273141   1.453   4.078  11.941 -0.2888 -0.0946  0.5033
17217TIP3    H173142   1.466   3.996  11.988  2.1369  0.6650  1.2941
17217TIP3    H273143   1.521   4.078  11.873 -1.2688  0.5791 -0.5173
17218TIP3   OH273144   1.063   4.991   4.462 -0.1005 -0.1409  0.0844
17218TIP3    H173145   0.974   4.984   4.497  0.0411  0.1192  0.5009
17218TIP3    H273146   1.120   4.967   4.536  0.2153  0.8055  0.1632
17219TIP3   OH273147   1.045   3.443  14.908 -0.3438 -0.8619  0.1978
17219TIP3    H173148   1.042   3.527  14.953  0.3811  0.9364 -2.8314
17219TIP3    H273149   0.999   3.458  14.826 -0.8821 -3.6947 -0.1206
17220TIP3   OH273150   5.142   5.634   5.137  0.4271 -0.4315  0.6568
17220TIP3    H173151   5.158   5.725   5.162  0.2757 -0.9467  2.7775
17220TIP3    H273152   5.143   5.585   5.219 -1.8318 -2.0225 -0.1559
17221TIP3   OH273153   3.643   5.560   2.625 -0.0708 -0.2589 -0.0615
17221TIP3    H173154   3.586   5.531   2.696  1.6481 -0.4605  1.2965
17221TIP3    H273155   3.635   5.491   2.558 -2.8832  0.6878 -0.8318
17222TIP3   OH273156   2.887   3.851   2.382 -0.2821  0.6896  0.1745
17222TIP3    H173157   2.920   3.940   2.392  0.7427  0.2879  0.4682
17222TIP3    H273158   2.890   3.814   2.470  1.1043 -0.2347 -0.2320
17223TIP3   OH273159   0.156   3.551   6.067  0.7244 -0.8732 -0.7392
17223TIP3    H173160   0.101   3.487   6.021 -0.3669 -0.4360 -0.0949
17223TIP3    H273161   0.241   3.508   6.076 -0.2349 -2.6497  0.4956
17224TIP3   OH273162   6.519   5.833   1.056 -0.0533 -0.2456  0.5017
17224TIP3    H173163   6.538   5.825   0.963 -0.5596  0.2892  0.3427
17224TIP3    H273164   6.467   5.913   1.063  0.8264  0.2714  1.3776
17225TIP3   OH273165   2.558   0.778  11.712 -0.4541  0.0177  0.5993
17225TIP3    H173166   2.469   0.800  11.738 -0.3298  1.8389 -0.3649
17225TIP3    H273167   2.559   0.682  11.708 -3.2861 -0.0617 -2.2495
17226TIP3   OH273168   5.737   1.468   6.190 -0.7066  0.0681 -0.2662
17226TIP3    H173169   5.833   1.470   6.183 -0.5602 -0.8872  0.9673
17226TIP3    H273170   5.721   1.430   6.276 -2.2097 -0.0470 -0.5759
17227TIP3   OH273171   2.608   5.527   5.236 -0.1302  0.6867  0.0136
17227TIP3    H173172   2.513   5.527   5.235 -0.1670  0.8776  1.4587
17227TIP3    H273173   2.632   5.580   5.312  1.1173  0.1825  0.0105
17228TIP3   OH273174   0.302   4.188   5.683  0.4198  0.4375 -0.1846
17228TIP3    H173175   0.326   4.098   5.662  1.0773  0.6058 -0.1621
17228TIP3    H273176   0.376   4.222   5.733  1.1879  1.6840 -2.0431
17229TIP3   OH273177   5.544   1.663  16.257 -0.0673 -0.6838  0.8625
17229TIP3    H173178   5.567   1.729  16.323  0.7102 -0.6194  0.5405
17229TIP3    H273179   5.463   1.624  16.289  0.3521 -0.7242  1.9148
17230TIP3   OH273180   3.621   5.111   4.565 -0.9055  0.0178 -0.2188
17230TIP3    H173181   3.714   5.091   4.576 -0.4429  1.9848 -0.1814
17230TIP3    H273182   3.577   5.028   4.582  0.9810 -1.9833 -3.7383
17231TIP3   OH273183   6.158   5.934   4.664 -0.3874 -0.2322  0.3359
17231TIP3    H173184   6.223   5.902   4.726  2.7793  1.6624 -1.7470
17231TIP3    H273185   6.156   5.869   4.594  2.3955  1.4350 -1.4954
17232TIP3   OH273186   6.598   2.819  11.668  0.2334  0.4488 -0.4270
17232TIP3    H173187   6.555   2.817  11.582 -0.8170 -0.1551  0.0917
17232TIP3    H273188   6.526   2.826  11.731  0.6306 -2.8216  0.5989
17233TIP3   OH273189   4.496   4.924  11.526  0.2955  0.2019 -0.2960
17233TIP3    H173190   4.476   4.925  11.619 -0.7369  0.6786 -0.5166
17233TIP3    H273191   4.549   5.003  11.512  2.6738 -1.1632  0.3208
17234TIP3   OH273192   0.077   1.188   5.992 -0.4516 -0.2025 -0.7928
17234TIP3    H173193   0.169   1.189   6.017 -0.7218 -0.2192  0.2367
17234TIP3    H273194   0.054   1.280   5.978  0.3083 -0.3280 -3.4001
17235TIP3   OH273195   6.771   0.823   4.744 -0.2591  0.1970 -0.6820
17235TIP3    H173196   6.821   0.843   4.666 -0.8344  1.7767 -0.6775
17235TIP3    H273197   6.837   0.814   4.813  0.1178  0.7779 -0.9607
17236TIP3   OH273198   2.201   5.872  10.242 -0.0483 -0.2472 -0.5413
17236TIP3    H173199   2.266   5.932  10.277  0.4735 -0.7079 -0.6937
17236TIP3    H273200   2.124   5.885  10.296 -0.1790  1.0415 -1.0044
17237TIP3   OH273201   5.636   3.194   0.356  0.3199  0.0472 -0.1066
17237TIP3    H173202   5.554   3.144   0.355 -0.2594  0.9209  0.9604
17237TIP3    H273203   5.617   3.271   0.303  0.6440 -0.0091 -0.3093
17238TIP3   OH273204   3.763   0.601   2.861  0.2402  0.0139 -0.2738
17238TIP3    H173205   3.853   0.586   2.891 -0.0834  0.0142  0.7554
17238TIP3    H273206   3.719   0.639   2.937 -0.1294  1.9407 -1.3968
17239TIP3   OH273207   0.327   2.317  13.327  0.5686  0.5913 -0.1174
17239TIP3    H173208   0.265   2.389  13.337  0.7102  0.6529  0.3406
17239TIP3    H273209   0.361   2.302  13.415 -2.1202 -2.4422  0.5961
17240TIP3   OH273210   0.966   3.832   3.207 -0.1464 -0.0547  0.3738
17240TIP3    H173211   1.052   3.795   3.228 -0.2989 -1.4028 -1.1726
17240TIP3    H273212   0.980   3.926   3.203  0.9889 -0.1636  1.2941
17241TIP3   OH273213   6.635   2.400  13.653  0.0371  0.0540 -0.5066
17241TIP3    H173214   6.610   2.318  13.612  0.5641 -0.2973 -0.1440
17241TIP3    H273215   6.556   2.430  13.697 -0.7514  0.8249 -2.3651
17242TIP3   OH273216   3.738   1.973   1.868  0.3085  0.6474 -0.0452
17242TIP3    H173217   3.819   2.023   1.879  0.2891  0.7940 -0.5313
17242TIP3    H273218   3.763   1.900   1.811  0.0145  0.8977 -0.4918
17243TIP3   OH273219   0.037   5.489   3.179  0.5321 -0.4683 -0.2625
17243TIP3    H173220   0.075   5.563   3.227  1.3872 -0.7704 -0.4401
17243TIP3    H273221   0.038   5.518   3.088 -0.8720  0.0140 -0.1460
17244TIP3   OH273222   0.523   0.624   0.365 -0.1219  0.2604  0.6105
17244TIP3    H173223   0.429   0.642   0.367 -0.0061  1.1867 -1.0090
17244TIP3    H273224   0.563   0.698   0.410 -0.1583 -0.2753  1.5567
17245TIP3   OH273225   1.527   6.312   4.728  0.2199  0.0224  0.5367
17245TIP3    H173226   1.504   6.271   4.812  0.6413  0.0613  0.6774
17245TIP3    H273227   1.458   6.376   4.713 -0.2558 -0.4855  0.4938
17246TIP3   OH273228   5.550   5.835  12.258 -0.0424  0.2080  0.5011
17246TIP3    H173229   5.490   5.894  12.212 -0.1911 -0.6976 -0.4965
17246TIP3    H273230   5.635   5.850  12.216  0.0330  0.0972  0.6119
17247TIP3   OH273231   4.144   3.055  11.087  0.0555  0.0924  0.0734
17247TIP3    H173232   4.088   3.131  11.070 -0.2374  0.2690  1.7293
17247TIP3    H273233   4.217   3.065  11.026 -1.0189  0.5745 -1.1795
17248TIP3   OH273234   6.666   3.148  14.958 -0.0823 -0.8160  0.0570
17248TIP3    H173235   6.597   3.139  14.892 -0.0651 -2.1124  0.1898
17248TIP3    H273236   6.627   3.205  15.025 -0.9657 -1.3678  0.0384
17249TIP3   OH273237   6.711   2.107  14.371  0.3494  0.1118 -0.4132
17249TIP3    H173238   6.760   2.025  14.372  0.3049  0.0336  2.1405
17249TIP3    H273239   6.626   2.084  14.333  1.2256 -0.3776 -2.1998
17250TIP3   OH273240   3.648   0.129  12.886 -0.0191  0.0197  0.2285
17250TIP3    H173241   3.584   0.058  12.878 -0.3417  0.2038  1.0427
17250TIP3    H273242   3.602   0.206  12.851 -1.2771  0.7355  3.1444
17251TIP3   OH273243   2.077   1.385   0.357 -0.1678  0.0045  0.1288
17251TIP3    H173244   2.120   1.363   0.274 -1.9905 -0.7248 -0.6759
17251TIP3    H273245   2.147   1.379   0.422  0.6324 -2.9222 -0.8266
17252TIP3   OH273246   0.583   5.158  10.499  0.3746  0.2481  0.3023
17252TIP3    H173247   0.568   5.110  10.418  0.9967 -0.0517  0.3494
17252TIP3    H273248   0.497   5.168  10.538  0.1315 -0.0601 -0.1460
17253TIP3   OH273249   5.054   4.625   3.918 -0.6499  0.7758  0.4038
17253TIP3    H173250   5.034   4.704   3.970 -1.7632  0.4200  0.5431
17253TIP3    H273251   4.968   4.585   3.901 -0.0284 -1.1873  1.5611
17254TIP3   OH273252   1.043   2.889  14.279 -0.5611  0.3584 -0.0629
17254TIP3    H173253   1.064   2.980  14.300 -1.1165  0.7006 -0.9599
17254TIP3    H273254   1.085   2.839  14.349  2.4864  1.0352 -1.2836
17255TIP3   OH273255   4.771   0.810   2.907  0.2530  0.0412 -0.4303
17255TIP3    H173256   4.704   0.878   2.910 -1.3187 -1.4450  0.3427
17255TIP3    H273257   4.744   0.753   2.834  0.5966 -0.6473 -0.0336
17256TIP3   OH273258   3.443   0.839  17.139 -0.4134  0.0522 -0.1427
17256TIP3    H173259   3.371   0.795  17.094 -0.7143  0.5953 -0.1921
17256TIP3    H273260   3.480   0.772  17.196 -0.6255 -0.3746 -0.5012
17257TIP3   OH273261   1.415   4.779  15.938 -0.3341 -0.1842 -0.8936
17257TIP3    H173262   1.438   4.858  15.889 -1.0340 -0.0140 -0.9594
17257TIP3    H273263   1.358   4.810  16.008  1.4860 -0.2730  0.7081
17258TIP3   OH273264   3.189   2.213   5.480  0.1298 -0.2941 -0.2425
17258TIP3    H173265   3.202   2.205   5.385  0.0266  0.3180 -0.3117
17258TIP3    H273266   3.211   2.127   5.514  0.3987 -0.4529 -0.8015
17259TIP3   OH273267   4.617   3.196   5.118  0.7249 -0.0656 -0.1884
17259TIP3    H173268   4.532   3.156   5.102  0.9649  0.1505 -2.2148
17259TIP3    H273269   4.604   3.289   5.101  1.7027 -0.2416 -2.1631
17260TIP3   OH273270   5.105   1.310  11.673 -0.4788 -0.3372  0.2037
17260TIP3    H173271   5.182   1.257  11.695  0.3778  1.2752  1.2852
17260TIP3    H273272   5.031   1.260  11.708  0.0998 -1.6372 -0.3482
17261TIP3   OH273273   5.046   6.134   5.398 -0.1246 -0.1418  0.3045
17261TIP3    H173274   5.112   6.075   5.432  0.9125  0.2540 -0.9242
17261TIP3    H273275   5.046   6.208   5.459 -0.4511 -0.7619  1.0761
17262TIP3   OH273276   4.605   3.919  11.206  0.4650  0.0413  0.0655
17262TIP3    H173277   4.589   3.884  11.294  1.2991  0.3831  0.3607
17262TIP3    H273278   4.518   3.928  11.168  0.1140 -0.3893  0.7503
17263TIP3   OH273279   1.993   3.629   6.200 -0.3054 -0.1552 -0.1786
17263TIP3    H173280   1.951   3.695   6.145 -4.9881 -2.2618  0.4234
17263TIP3    H273281   1.988   3.549   6.148  0.1939 -1.1228  1.2198
17264TIP3   OH273282   1.731   2.191  12.551  0.0777  0.2692  0.4855
17264TIP3    H173283   1.718   2.232  12.466 -0.9830  2.2943  1.5412
17264TIP3    H273284   1.797   2.245  12.594 -0.2889  0.0297  1.3873
17265TIP3   OH273285   6.222   3.764  13.784 -0.4012  1.0156  0.4788
17265TIP3    H173286   6.178   3.813  13.854 -0.1389 -1.1112  2.2308
17265TIP3    H273287   6.314   3.791  13.790 -0.4969  1.3472  0.4840
17266TIP3   OH273288   0.263   5.242   3.964  0.1870 -0.0943 -0.3307
17266TIP3    H173289   0.310   5.310   3.915 -1.5129  1.9769  0.7672
17266TIP3    H273290   0.221   5.189   3.896  0.3820  0.8224 -1.1958
17267TIP3   OH273291   4.765   0.293  15.187  0.3824  0.1219 -0.4676
17267TIP3    H173292   4.733   0.307  15.098 -2.5275  1.6497  0.6898
17267TIP3    H273293   4.750   0.376  15.232  0.6802 -0.9567  1.7770
17268TIP3   OH273294   0.764   3.197  10.961 -0.1744  0.0464 -0.4487
17268TIP3    H173295   0.722   3.166  10.881  0.3322  0.4267 -0.8654
17268TIP3    H273296   0.822   3.267  10.932  0.8564 -0.5548  0.1064
17269TIP3   OH273297   4.230   2.574   5.793  0.4381  0.3819 -0.3341
17269TIP3    H173298   4.271   2.641   5.738  2.2452 -0.0301  0.4359
17269TIP3    H273299   4.261   2.491   5.757 -1.0456 -0.0502 -0.7097
17270TIP3   OH273300   3.014   2.676  15.960  0.3438 -0.4478  0.3574
17270TIP3    H173301   3.024   2.585  15.989  2.7731 -0.0099  1.1596
17270TIP3    H273302   3.021   2.672  15.864  0.5192 -1.1078  0.3963
17271TIP3   OH273303   2.137   3.425  13.344  0.6123  0.3033 -0.1734
17271TIP3    H173304   2.201   3.443  13.413  0.1033  1.4380  0.0377
17271TIP3    H273305   2.065   3.485  13.363  0.3246  0.4114 -1.5204
17272TIP3   OH273306   1.980   5.912   5.190 -0.5593  0.3618  0.1585
17272TIP3    H173307   2.004   6.001   5.213 -1.4358  0.6971 -0.1657
17272TIP3    H273308   1.905   5.892   5.246 -0.4466 -0.1274  0.1414
17273TIP3   OH273309   3.177   0.201   1.409 -0.0819 -0.0797 -0.4481
17273TIP3    H173310   3.165   0.219   1.316  0.7813 -0.3571 -0.6238
17273TIP3    H273311   3.203   0.109   1.413  1.6602  0.3848 -0.1034
17274TIP3   OH273312   6.314   1.740   3.654 -0.3978  0.4403 -0.1561
17274TIP3    H173313   6.287   1.669   3.713  1.2998 -0.1287  0.0001
17274TIP3    H273314   6.365   1.696   3.586 -1.6763  1.1937 -1.6416
17275TIP3   OH273315   5.223   0.262   4.665  0.2152 -0.2364 -0.0581
17275TIP3    H173316   5.287   0.198   4.634  0.7420  0.3748 -0.2539
17275TIP3    H273317   5.205   0.318   4.589 -0.0810 -0.0246  0.1637
17276TIP3   OH273318   6.047   5.007  11.304 -0.3757  0.1844  0.0342
17276TIP3    H173319   5.978   5.073  11.299 -0.4690  0.0429 -0.5694
17276TIP3    H273320   6.065   4.999  11.398  0.1099  1.5520  0.0964
17277TIP3   OH273321   1.727   5.922   6.419 -0.6768 -0.2187 -0.2971
17277TIP3    H173322   1.690   5.960   6.340  0.8646  1.4302 -0.2850
17277TIP3    H273323   1.785   5.852   6.388  0.2462  0.6947 -0.7031
17278TIP3   OH273324   0.542   6.030  17.105 -0.8772  0.5405  0.0290
17278TIP3    H173325   0.499   6.080  17.173 -1.3938 -1.0170  0.8779
17278TIP3    H273326   0.508   5.941  17.114  1.6729 -0.5237  0.0487
17279TIP3   OH273327   1.507   4.684   2.316 -0.1321  0.5569 -0.2133
17279TIP3    H173328   1.491   4.655   2.406 -2.5996 -1.0192 -1.0569
17279TIP3    H273329   1.602   4.678   2.306  0.1597  0.2802  2.1103
17280TIP3   OH273330   1.273   3.581   1.843 -0.4506 -0.2132  0.3648
17280TIP3    H173331   1.245   3.671   1.826 -2.2290 -0.5177  1.3997
17280TIP3    H273332   1.202   3.527   1.808  1.0984 -1.3140 -1.2545
17281TIP3   OH273333   2.690   3.559   0.535 -0.4887 -0.3444 -0.2573
17281TIP3    H173334   2.618   3.581   0.476  0.1676  0.7667 -0.6908
17281TIP3    H273335   2.759   3.527   0.478 -0.5200 -1.1339  0.1277
17282TIP3   OH273336   5.170   4.715   6.534 -0.8438  0.6056 -0.4041
17282TIP3    H173337   5.108   4.778   6.498 -0.9408  2.5261  2.6632
17282TIP3    H273338   5.235   4.770   6.579  1.1877 -1.4378 -0.6788
17283TIP3   OH273339   5.501   3.187  15.923 -0.2468  1.1984 -0.5691
17283TIP3    H173340   5.505   3.192  15.827 -1.4301  1.5580 -0.6288
17283TIP3    H273341   5.483   3.277  15.950  1.1929  1.3099  0.0895
17284TIP3   OH273342   5.385   1.483  10.812 -0.6068  0.8633  0.1007
17284TIP3    H173343   5.291   1.480  10.799 -0.3779 -1.3707 -1.8317
17284TIP3    H273344   5.421   1.467  10.724  1.5777  1.6455  0.7905
17285TIP3   OH273345   4.509   0.747  10.400 -0.0045  0.0459 -0.4925
17285TIP3    H173346   4.527   0.653  10.396  0.4350  0.0525  0.8130
17285TIP3    H273347   4.449   0.763  10.327 -1.3951 -1.5629  0.2133
17286TIP3   OH273348   4.140   1.963  15.715 -0.6587 -0.0509 -0.1757
17286TIP3    H173349   4.185   1.883  15.688 -2.1511 -1.1932  0.6045
17286TIP3    H273350   4.199   2.003  15.779 -0.7881 -1.6267  0.9880
17287TIP3   OH273351   4.767   4.856   0.747 -0.0599  0.1086  0.1656
17287TIP3    H173352   4.818   4.793   0.798 -0.2242 -0.4475 -0.3456
17287TIP3    H273353   4.712   4.802   0.690 -1.1855  0.6937  0.6686
17288TIP3   OH273354   3.074   4.606   3.901  0.0530 -0.2381  0.1017
17288TIP3    H173355   3.150   4.662   3.885 -0.8816  1.5220  1.3592
17288TIP3    H273356   3.053   4.568   3.816  0.1619  2.1664 -1.0788
17289TIP3   OH273357   6.112   5.808   3.817 -0.1229  0.4755 -0.3438
17289TIP3    H173358   6.148   5.743   3.757 -0.7662 -2.1644  1.8962
17289TIP3    H273359   6.183   5.871   3.830  0.2658  0.7661 -3.2125
17290TIP3   OH273360   5.402   0.619   0.835 -0.0300  0.3779  0.8391
17290TIP3    H173361   5.401   0.658   0.922  0.9744 -0.2676  1.1541
17290TIP3    H273362   5.392   0.693   0.775  0.9117  1.0150  1.4544
17291TIP3   OH273363   1.758   2.230  13.357  0.0400 -0.0273 -0.5722
17291TIP3    H173364   1.747   2.210  13.264 -2.2470  0.5914 -0.5069
17291TIP3    H273365   1.758   2.326  13.361  0.2110 -0.0461  0.0644
17292TIP3   OH273366   3.694   2.715  15.527  0.5196  0.7494  0.2775
17292TIP3    H173367   3.773   2.720  15.474  0.7362 -0.4534  0.4441
17292TIP3    H273368   3.685   2.621  15.548  0.1017  1.0991  1.8250
17293TIP3   OH273369   1.988   0.547   3.923 -0.6765 -0.2622 -0.6739
17293TIP3    H173370   1.932   0.470   3.930 -2.4184  0.9999  0.2272
17293TIP3    H273371   2.046   0.542   3.999  0.3465 -1.4778 -1.4990
17294TIP3   OH273372   4.763   5.658  13.383  0.1053  0.1186  0.2106
17294TIP3    H173373   4.843   5.701  13.414 -0.5369  0.4682  1.4735
17294TIP3    H273374   4.762   5.574  13.429  1.0061 -1.0116 -1.7324
17295TIP3   OH273375   2.215   6.349  14.729 -0.1024  0.3110 -0.0725
17295TIP3    H173376   2.233   6.368  14.821  1.6920 -0.3073 -0.2702
17295TIP3    H273377   2.288   6.295  14.700 -0.7863  0.2320 -1.8003
17296TIP3   OH273378   6.594   6.079   4.875 -0.3288  0.3719  0.3690
17296TIP3    H173379   6.651   6.057   4.948 -1.2718 -1.3603  0.6359
17296TIP3    H273380   6.653   6.103   4.804  0.6255  1.2308  1.4150
17297TIP3   OH273381   5.108   1.673   0.702  0.4570  0.6669  0.0545
17297TIP3    H173382   5.030   1.649   0.751  0.0823 -0.2595 -0.9598
17297TIP3    H273383   5.076   1.732   0.633  0.5780 -0.0034 -0.5875
17298TIP3   OH273384   2.510   4.832  13.318  0.4961 -0.0230 -0.4357
17298TIP3    H173385   2.489   4.749  13.277 -3.4561  0.7259 -0.3159
17298TIP3    H273386   2.477   4.898  13.256  2.1439  1.4428  0.1638
17299TIP3   OH273387   3.383   2.499  15.980  0.1576 -0.5528  0.3151
17299TIP3    H173388   3.409   2.434  15.915  2.6286  1.6746 -1.1250
17299TIP3    H273389   3.455   2.500  16.043 -0.3020  0.1414  0.8458
17300TIP3   OH273390   2.467   2.914  11.547 -0.0181 -0.1782  0.3769
17300TIP3    H173391   2.410   2.945  11.476  0.5236 -2.4038 -1.1392
17300TIP3    H273392   2.514   2.992  11.575 -0.8627  0.9515 -1.1263
17301TIP3   OH273393   1.822   0.414   1.529  0.3161  0.4193 -0.1404
17301TIP3    H173394   1.792   0.382   1.614  0.1353  0.0732 -0.3300
17301TIP3    H273395   1.758   0.480   1.504  0.6417  0.8789  0.2132
17302TIP3   OH273396   3.019   2.568   0.383 -0.3024  0.5224  0.3301
17302TIP3    H173397   2.931   2.530   0.385 -0.7835  1.5687 -0.2219
17302TIP3    H273398   3.004   2.662   0.379  0.8146  0.6544 -1.8320
17303TIP3   OH273399   6.311   5.853   4.228  0.1521 -0.3051 -0.5043
17303TIP3    H173400   6.322   5.848   4.323 -0.2907  1.8321 -0.3000
17303TIP3    H273401   6.216   5.858   4.215  0.2582  1.0508 -0.9215
17304TIP3   OH273402   0.524   6.221  16.397 -0.0266  0.5659  0.3394
17304TIP3    H173403   0.599   6.211  16.338 -0.6876 -0.4457 -0.3590
17304TIP3    H273404   0.452   6.248  16.340 -0.5108  0.2160  0.7789
17305TIP3   OH273405   1.855   4.942  14.031  0.2355  0.2950 -0.3445
17305TIP3    H173406   1.808   4.880  13.976  1.0479  2.8314 -4.3112
17305TIP3    H273407   1.939   4.953  13.988  1.3365  1.8271  2.0063
17306TIP3   OH273408   4.351   4.611   5.535  0.3010 -0.0375 -0.0464
17306TIP3    H173409   4.321   4.570   5.617  1.1877  0.1027  0.3569
17306TIP3    H273410   4.436   4.649   5.557  0.3021  0.4706 -0.8987
17307TIP3   OH273411   2.685   3.182   2.506  0.0121 -0.1321 -0.1898
17307TIP3    H173412   2.656   3.263   2.464  1.2519 -0.0480 -0.9418
17307TIP3    H273413   2.645   3.113   2.453  0.5767 -0.0144 -0.7898
17308TIP3   OH273414   6.332   1.116   2.512 -0.1452  0.4469 -0.0837
17308TIP3    H173415   6.376   1.085   2.433 -1.3352 -1.0019 -0.2218
17308TIP3    H273416   6.384   1.192   2.540  1.0797  0.1772 -1.4827
17309TIP3   OH273417   3.631   5.017  14.342  0.8289  0.1889  0.1004
17309TIP3    H173418   3.645   5.018  14.437  2.8210 -0.1056 -0.1411
17309TIP3    H273419   3.622   5.109  14.318 -1.3867  0.1972  0.7408
17310TIP3   OH273420   2.635   5.388   4.745 -0.3970  0.1378 -0.2657
17310TIP3    H173421   2.558   5.433   4.779 -2.3916 -1.5856 -2.1885
17310TIP3    H273422   2.681   5.454   4.693  0.4599  1.6411  2.2217
17311TIP3   OH273423   1.235   3.616  16.067  0.4905  0.2306 -0.2643
17311TIP3    H173424   1.284   3.558  16.008 -0.4974 -0.6337 -0.2682
17311TIP3    H273425   1.146   3.583  16.063 -0.0552  1.6217 -0.0685
17312TIP3   OH273426   0.464   2.489   0.454 -0.4389  0.1014  0.1955
17312TIP3    H173427   0.395   2.545   0.418  1.0397  0.3188 -2.6139
17312TIP3    H273428   0.545   2.522   0.414  1.0844 -1.2891  1.9337
17313TIP3   OH273429   4.199   6.718  15.503  0.5710 -0.1286  0.1066
17313TIP3    H173430   4.138   6.762  15.563 -0.2961 -0.4648 -0.5124
17313TIP3    H273431   4.271   6.779  15.494  1.2347 -0.4808  2.2989
17314TIP3   OH273432   4.918   5.505   2.157 -0.1523 -0.0817  0.7040
17314TIP3    H173433   4.978   5.445   2.202 -1.3081 -0.9853  1.0960
17314TIP3    H273434   4.951   5.508   2.067 -1.5178 -3.4458 -0.0568
17315TIP3   OH273435   4.046   3.797   1.789  0.4683  0.4243 -0.0305
17315TIP3    H173436   4.129   3.781   1.744 -1.0472  0.6006 -3.2449
17315TIP3    H273437   3.994   3.718   1.771 -0.9651  1.4372 -0.5410
17316TIP3   OH273438   3.058   5.827  11.523 -0.3643  0.2969 -0.1265
17316TIP3    H173439   3.139   5.776  11.517 -0.5212  0.0832 -0.4410
17316TIP3    H273440   3.087   5.918  11.512 -0.1234  0.2551  0.1288
17317TIP3   OH273441   0.494   3.782  10.584  0.2341  0.0288  0.3842
17317TIP3    H173442   0.523   3.694  10.607 -1.0777 -0.0720  1.8030
17317TIP3    H273443   0.530   3.839  10.653  1.3468  0.6798 -0.6951
17318TIP3   OH273444   1.156   4.752   1.232  0.0180 -0.5685  0.0199
17318TIP3    H173445   1.064   4.730   1.241  0.0816 -1.2137 -0.7665
17318TIP3    H273446   1.176   4.807   1.307 -1.1327  0.0049 -0.0874
17319TIP3   OH273447   0.908   5.382  14.645 -0.3895  0.2286 -0.1911
17319TIP3    H173448   0.846   5.312  14.665 -2.5718  2.0670 -0.0432
17319TIP3    H273449   0.950   5.402  14.729 -1.3836  0.5441  0.2425
17320TIP3   OH273450   5.520   4.255  15.771 -0.3036 -0.0036 -0.5303
17320TIP3    H173451   5.610   4.262  15.739  0.1900 -0.2243  0.7659
17320TIP3    H273452   5.528   4.255  15.866 -1.7113  0.3711 -0.3905
17321TIP3   OH273453   6.269   5.597   4.028 -0.1793  0.2971  0.0837
17321TIP3    H173454   6.295   5.674   4.079  0.9511 -1.2366  1.9407
17321TIP3    H273455   6.198   5.558   4.079  0.5661 -0.9403  0.2025
17322TIP3   OH273456   5.701   0.697   1.017  0.1603 -0.0490 -0.2951
17322TIP3    H173457   5.695   0.775   1.073 -0.5190  0.5757 -1.1966
17322TIP3    H273458   5.751   0.726   0.942 -0.5601 -0.3179 -0.8931
17323TIP3   OH273459   0.348   0.925  15.785  0.3136  0.3447  0.8263
17323TIP3    H173460   0.368   0.963  15.871 -2.1145  3.0733  0.3379
17323TIP3    H273461   0.295   0.992  15.741 -1.5657 -2.4130 -1.4346
17324TIP3   OH273462   0.672   2.678  12.496  0.4285 -0.5532 -0.2680
17324TIP3    H173463   0.679   2.584  12.476 -1.1755 -0.7978  0.2176
17324TIP3    H273464   0.714   2.688  12.581 -0.5251 -1.0749  0.2773
17325TIP3   OH273465   2.008   2.449  15.313 -0.8690 -0.4472 -0.2753
17325TIP3    H173466   1.967   2.365  15.292  0.6472 -0.8705 -1.7581
17325TIP3    H273467   2.097   2.426  15.339 -0.0674  0.7347 -1.8027
17326TIP3   OH273468   1.217   1.307   2.390  0.7057  0.3768 -0.6408
17326TIP3    H173469   1.173   1.252   2.325  0.2989  2.0649 -1.8708
17326TIP3    H273470   1.158   1.309   2.464  0.2563 -0.0229 -0.9832
17327TIP3   OH273471   4.874   2.121  11.758 -0.4380  0.4123 -0.0851
17327TIP3    H173472   4.936   2.071  11.706 -0.5576  0.8331 -0.6421
17327TIP3    H273473   4.887   2.090  11.848 -0.3830 -0.4729 -0.3880
17328TIP3   OH273474   1.844   2.733  10.949  0.1409  0.3278  0.0326
17328TIP3    H173475   1.908   2.794  10.985  2.4991 -1.3406 -1.0517
17328TIP3    H273476   1.867   2.726  10.857 -0.2475 -1.8520  0.0381
17329TIP3   OH273477   6.235   0.500  14.296  0.5911 -0.0420  0.3057
17329TIP3    H173478   6.178   0.544  14.359  0.2302  0.1387 -0.1459
17329TIP3    H273479   6.175   0.463  14.231  0.9634 -0.1880  0.0416
17330TIP3   OH273480   3.047   5.334  11.476 -0.0484  0.3034 -0.3940
17330TIP3    H173481   3.071   5.242  11.479  0.3268  0.4015 -0.2841
17330TIP3    H273482   3.081   5.370  11.558 -0.5798  0.4506 -0.2278
17331TIP3   OH273483   1.819   3.938  13.923 -0.5802 -0.1628  0.3323
17331TIP3    H173484   1.789   4.027  13.942 -0.8921 -0.5730  1.8248
17331TIP3    H273485   1.810   3.930  13.828  1.0338  1.9606 -0.0699
17332TIP3   OH273486   0.583   3.114  15.923 -0.1793 -0.4221  0.0234
17332TIP3    H173487   0.576   3.187  15.983 -0.9901  2.0410 -2.8499
17332TIP3    H273488   0.667   3.073  15.946 -0.8696 -0.2833  3.3408
17333TIP3   OH273489   0.209   2.582  13.372  0.2079  0.2638 -0.2217
17333TIP3    H173490   0.240   2.573  13.281 -1.7348  0.6342 -0.9703
17333TIP3    H273491   0.219   2.675  13.392 -2.1025  0.8042 -1.1924
17334TIP3   OH273492   5.054   0.219   4.888  0.2029 -0.4669  0.0184
17334TIP3    H173493   5.087   0.192   4.803 -1.2344 -1.0431 -0.3786
17334TIP3    H273494   5.085   0.309   4.899 -0.3257 -0.0800 -1.5041
17335TIP3   OH273495   3.559   1.871   4.337  0.1656  0.4893 -0.3301
17335TIP3    H173496   3.557   1.797   4.397 -0.3119  2.5770  2.4484
17335TIP3    H273497   3.473   1.872   4.296  0.3780 -0.7788 -0.8345
17336TIP3   OH273498   3.436   1.763   5.413 -0.1723 -0.4617 -0.0589
17336TIP3    H173499   3.421   1.712   5.333 -0.8225  0.7805 -0.7580
17336TIP3    H273500   3.512   1.721   5.453 -1.2037 -2.5363 -0.1162
17337TIP3   OH273501   5.904   0.861  12.751  0.0193  0.0170 -0.0004
17337TIP3    H173502   5.936   0.837  12.664  2.5324  0.2446  0.7654
17337TIP3    H273503   5.949   0.802  12.811 -2.1737 -0.5954  1.1625
17338TIP3   OH273504   0.743   4.472   5.680 -0.2516 -0.6093 -0.0942
17338TIP3    H173505   0.713   4.542   5.738  0.3410  1.3208 -1.9749
17338TIP3    H273506   0.665   4.419   5.664 -1.5971  1.4971 -1.0730
17339TIP3   OH273507   3.965   3.770  15.702 -0.3449  0.1959  0.3045
17339TIP3    H173508   3.983   3.689  15.655 -0.4886 -0.2085  0.9442
17339TIP3    H273509   4.048   3.818  15.700 -0.2582  0.0295 -0.0653
17340TIP3   OH273510   1.632   2.066  14.079 -0.3990 -0.2607  0.8033
17340TIP3    H173511   1.676   2.089  14.162 -0.5325 -1.2829  1.1672
17340TIP3    H273512   1.553   2.120  14.079  0.2774  0.7669  0.6726
17341TIP3   OH273513   6.260   3.487  12.808 -0.4635 -0.1750 -0.6116
17341TIP3    H173514   6.271   3.581  12.794  0.9945 -0.1458  0.5677
17341TIP3    H273515   6.337   3.448  12.767  0.6261 -0.5635  1.6702
17342TIP3   OH273516   4.056   4.678   6.512  0.5593  0.8149  0.0832
17342TIP3    H173517   3.966   4.707   6.495  1.0918  2.2044 -0.4929
17342TIP3    H273518   4.095   4.750   6.561  1.0499 -0.2563  1.3031
17343TIP3   OH273519   2.793   2.946   0.583  0.2232 -0.1853  0.0741
17343TIP3    H173520   2.724   2.880   0.573 -0.8651  1.0484 -1.0229
17343TIP3    H273521   2.745   3.027   0.603  1.2685  0.8562 -1.4337
17344TIP3   OH273522   5.869   5.137  12.886 -0.3053  0.2024 -0.4822
17344TIP3    H173523   5.895   5.198  12.817 -1.5797  1.3622  0.0354
17344TIP3    H273524   5.859   5.053  12.841 -0.0824  0.7144 -1.5033
17345TIP3   OH273525   6.718   6.435   0.595  0.4983 -0.2329  0.5729
17345TIP3    H173526   6.666   6.510   0.624  1.1934  0.3793  0.2589
17345TIP3    H273527   6.808   6.462   0.608  0.7660 -0.8503  0.0334
17346TIP3   OH273528   5.518   5.734   3.025 -0.3427 -0.3268 -0.1485
17346TIP3    H173529   5.478   5.740   2.938 -2.1868 -0.2730  0.6482
17346TIP3    H273530   5.570   5.814   3.034 -0.2751 -0.2560 -1.1250
17347TIP3   OH273531   0.917   5.367   0.813  0.4400  0.1288  0.2412
17347TIP3    H173532   0.882   5.360   0.725 -0.3936  0.1230  0.5614
17347TIP3    H273533   0.987   5.302   0.816  0.6043  0.2658 -0.4712
17348TIP3   OH273534   5.352   2.787  11.774 -0.1846  0.4164  0.0856
17348TIP3    H173535   5.322   2.820  11.690 -0.7939  0.2621  0.2387
17348TIP3    H273536   5.443   2.817  11.781  0.5754 -1.2789 -1.5526
17349TIP3   OH273537   2.035   3.880  15.583  0.2184 -0.2250 -0.6019
17349TIP3    H173538   2.067   3.970  15.593  1.4193 -0.8142  1.6783
17349TIP3    H273539   2.114   3.826  15.589 -0.4774 -1.4551 -1.9992
17350TIP3   OH273540   4.144   1.983   0.159  0.2370 -0.2699 -0.0773
17350TIP3    H173541   4.111   2.010   0.244 -0.5506 -1.0729 -0.1180
17350TIP3    H273542   4.077   1.924   0.125  0.2153  0.5446 -1.5369
17351TIP3   OH273543   2.641   3.069  14.669 -0.1794 -0.8532  0.3395
17351TIP3    H173544   2.592   3.020  14.602  0.5067 -0.9856 -0.0738
17351TIP3    H273545   2.680   3.001  14.724 -0.2502 -0.7494  0.5193
17352TIP3   OH273546   3.165   1.235   6.072 -0.3034 -0.3260 -0.2979
17352TIP3    H173547   3.103   1.166   6.051 -0.2697 -0.5187  0.2132
17352TIP3    H273548   3.110   1.312   6.089 -0.3011 -0.0329 -1.5738
17353TIP3   OH273549   2.031   0.312  13.660 -0.2372  0.2108  0.1599
17353TIP3    H173550   2.045   0.330  13.753 -0.3707  0.5229  0.1209
17353TIP3    H273551   2.049   0.395  13.616  0.1487 -0.0206 -0.1282
17354TIP3   OH273552   4.736   1.591   1.153 -0.1691  0.5019 -0.6152
17354TIP3    H173553   4.755   1.610   1.245  0.4221  1.2067 -0.8698
17354TIP3    H273554   4.653   1.544   1.155  0.2746 -0.2981  0.3486
17355TIP3   OH273555   6.496   0.514   5.658 -0.2421 -0.0190  0.2096
17355TIP3    H173556   6.410   0.472   5.657 -0.3027  0.1056  0.0974
17355TIP3    H273557   6.552   0.454   5.608 -0.6279  0.6437 -1.0625
17356TIP3   OH273558   0.603   2.553   4.328 -0.7354 -0.8810 -0.2877
17356TIP3    H173559   0.695   2.539   4.351 -0.9773 -0.8844  0.7505
17356TIP3    H273560   0.568   2.464   4.317 -0.5788 -0.8755 -0.8611
17357TIP3   OH273561   0.291   1.005  16.761  0.0672 -0.7470  0.1657
17357TIP3    H173562   0.348   0.929  16.774 -0.2088 -0.7954  1.1510
17357TIP3    H273563   0.206   0.977  16.795 -0.0770 -0.0536  0.3747
17358TIP3   OH273564   2.819   3.565  16.867 -0.2742  0.5390  0.2656
17358TIP3    H173565   2.800   3.583  16.775  0.1070  0.1630  0.1091
17358TIP3    H273566   2.846   3.473  16.868 -1.3877  0.2156  0.9343
17359TIP3   OH273567   0.057   1.836   3.879 -0.4162  0.4400 -0.0041
17359TIP3    H173568   0.004   1.890   3.821  0.6117  0.6192 -0.8074
17359TIP3    H273569   0.078   1.758   3.827 -1.3400 -0.4440  0.9128
17360TIP3   OH273570   4.139   2.047   5.330 -0.0546 -0.2334  0.0883
17360TIP3    H173571   4.073   2.000   5.280  0.6261 -0.7902 -0.3102
17360TIP3    H273572   4.139   2.135   5.293 -0.2353 -0.3724 -0.2428
17361TIP3   OH273573   2.693   4.533  13.332 -0.4300  0.3528 -0.1745
17361TIP3    H173574   2.718   4.572  13.248 -0.4137  0.9810  0.1178
17361TIP3    H273575   2.728   4.444  13.329 -0.1456  0.4829 -0.6976
17362TIP3   OH273576   6.043   6.404  15.808  0.2799 -0.0542 -0.2091
17362TIP3    H173577   6.138   6.409  15.807  0.2566  0.3706 -0.2524
17362TIP3    H273578   6.015   6.482  15.856  0.0088 -0.9161  1.1064
17363TIP3   OH273579   1.000   5.337   1.083  0.2065  0.2243  0.1453
17363TIP3    H173580   0.993   5.424   1.122  1.5575  0.8109 -0.8271
17363TIP3    H273581   0.981   5.351   0.990 -1.2247 -0.8299  0.2572
17364TIP3   OH273582   4.440   6.790  13.481  0.3243 -0.0596  0.4945
17364TIP3    H173583   4.477   6.749  13.559  1.4404 -2.7545 -1.3106
17364TIP3    H273584   4.511   6.845  13.447  0.4119 -0.1648  0.5077
17365TIP3   OH273585   3.602   3.156   2.894 -0.2636 -0.2476  0.0598
17365TIP3    H173586   3.615   3.203   2.811  0.1816 -0.8850 -0.2434
17365TIP3    H273587   3.565   3.072   2.868 -1.7404  0.1918  0.6590
17366TIP3   OH273588   5.461   1.805  14.590 -0.2328  0.2171  0.0952
17366TIP3    H173589   5.483   1.896  14.606  0.4554 -0.0439  0.6678
17366TIP3    H273590   5.369   1.807  14.562 -0.3335  1.0456  0.4607
17367TIP3   OH273591   2.504   5.317   2.597  0.2045  0.1373  0.0286
17367TIP3    H173592   2.594   5.340   2.572  0.0404 -0.9152 -1.6895
17367TIP3    H273593   2.464   5.286   2.516 -1.1925 -1.0592  1.1233
17368TIP3   OH273594   5.820   2.890   4.882 -0.0819 -0.4119  1.2922
17368TIP3    H173595   5.803   2.797   4.901 -0.4798 -0.5960  0.0824
17368TIP3    H273596   5.787   2.936   4.959 -0.4352 -1.2303  1.6460
17369TIP3   OH273597   0.911   0.558  12.096  0.2583  0.1916  0.2681
17369TIP3    H173598   0.940   0.571  12.187  0.6007  1.7351 -0.0436
17369TIP3    H273599   0.890   0.464  12.092 -3.2684  0.6542  2.9279
17370TIP3   OH273600   0.408   3.072   4.909  0.3471 -0.2940  0.2141
17370TIP3    H173601   0.347   3.096   4.839  1.2850 -0.7303 -0.7764
17370TIP3    H273602   0.357   3.084   4.990 -2.1648 -3.5272 -0.6271
17371TIP3   OH273603   0.573   1.129  16.706  0.3531  0.5797  0.1642
17371TIP3    H173604   0.651   1.085  16.739 -1.1827 -3.9084 -1.3957
17371TIP3    H273605   0.509   1.121  16.777  0.1293  0.4941 -0.0455
17372TIP3   OH273606   1.799   4.387  16.132 -0.1832 -0.0388 -0.6858
17372TIP3    H173607   1.770   4.476  16.112  1.1078  0.2280 -1.4516
17372TIP3    H273608   1.893   4.395  16.148 -0.2768 -1.0733  0.5692
17373TIP3   OH273609   4.805   0.184   2.050 -0.3611  0.1832 -0.1552
17373TIP3    H173610   4.789   0.148   1.962  1.4095 -3.3260  0.7749
17373TIP3    H273611   4.739   0.142   2.105 -0.2053  0.8033  0.5147
17374TIP3   OH273612   5.033   1.966   1.317  0.5609  0.1992  0.2532
17374TIP3    H173613   5.066   1.967   1.407  1.1286  0.0107  0.0532
17374TIP3    H273614   5.111   1.950   1.264 -0.0514 -1.8368 -0.1332
17375TIP3   OH273615   3.322   2.995   4.456  0.0089 -0.1642 -0.1916
17375TIP3    H173616   3.407   2.987   4.499  0.8903  0.5200 -1.7610
17375TIP3    H273617   3.342   3.006   4.363 -1.7742  0.5570 -0.5344
17376TIP3   OH273618   2.862   2.470   5.431 -0.1353 -0.3062  0.3155
17376TIP3    H173619   2.840   2.401   5.493  0.3064  0.4102  1.2951
17376TIP3    H273620   2.864   2.550   5.483 -2.4476  0.7978 -1.1205
17377TIP3   OH273621   4.984   1.067  12.124  0.1103 -0.2560  0.0957
17377TIP3    H173622   4.922   0.994  12.116 -0.2701 -0.0748  1.1656
17377TIP3    H273623   4.934   1.135  12.169  0.3051  0.8697 -1.3406
17378TIP3   OH273624   5.904   0.990   6.107 -0.1509 -0.0157  0.3093
17378TIP3    H173625   5.957   1.023   6.034 -0.7208 -0.3502 -0.2641
17378TIP3    H273626   5.966   0.981   6.179  0.6581 -0.7617 -0.4560
17379TIP3   OH273627   0.626   6.264  12.127  0.6038 -0.1522 -0.6331
17379TIP3    H173628   0.620   6.170  12.108  0.3255 -0.1919 -0.3443
17379TIP3    H273629   0.712   6.274  12.168 -0.3643 -0.7005  1.6929
17380TIP3   OH273630   6.287   1.617  14.886  0.0952 -0.2456  0.0152
17380TIP3    H173631   6.331   1.693  14.848 -2.0330  0.5120 -1.0855
17380TIP3    H273632   6.295   1.548  14.820 -1.6446  0.3752 -0.8905
17381TIP3   OH273633   4.162   2.441   5.440  0.2163 -0.0044  0.3156
17381TIP3    H173634   4.152   2.393   5.358  0.7643  0.7014 -0.1719
17381TIP3    H273635   4.164   2.372   5.507 -2.0198 -0.5009 -0.0601
17382TIP3   OH273636   3.604   3.433  14.139 -0.0236  0.0818  0.4958
17382TIP3    H173637   3.561   3.357  14.099 -1.3214  0.1344  1.6934
17382TIP3    H273638   3.669   3.395  14.198 -1.8031 -0.2531  2.3738
17383TIP3   OH273639   4.366   3.758   2.945 -0.1166  0.1310 -0.3876
17383TIP3    H173640   4.297   3.762   2.880  0.9160  1.5428 -1.4611
17383TIP3    H273641   4.335   3.813   3.017 -0.6875 -0.3509 -0.2643
17384TIP3   OH273642   1.058   1.289   6.438  0.1574  0.2506  0.2036
17384TIP3    H173643   1.081   1.277   6.530 -1.2046  1.3958  0.7169
17384TIP3    H273644   1.061   1.201   6.401 -0.7679 -0.4486  1.7085
17385TIP3   OH273645   3.958   0.172   2.412  0.2437 -0.0916 -0.1967
17385TIP3    H173646   3.959   0.248   2.354  0.6054 -0.6387 -0.9224
17385TIP3    H273647   3.903   0.108   2.367 -0.5283 -0.0724  0.6740
17386TIP3   OH273648   6.565   5.668  10.980 -0.0675 -0.2512 -0.7293
17386TIP3    H173649   6.476   5.700  10.992 -0.2785 -1.1893  0.3598
17386TIP3    H273650   6.608   5.735  10.927  0.0995  2.8807  2.9460
17387TIP3   OH273651   1.030   3.458   6.566  0.1557  0.6847 -0.1187
17387TIP3    H173652   1.074   3.534   6.604 -0.2990  0.2290  1.3729
17387TIP3    H273653   1.091   3.385   6.579  0.4217  0.6891 -1.1923
17388TIP3   OH273654   4.917   1.806  14.750  0.3062  0.7209  0.6862
17388TIP3    H173655   4.878   1.719  14.747 -0.1300  0.8878  1.3579
17388TIP3    H273656   4.872   1.856  14.682  0.0212  0.6417  0.8184
17389TIP3   OH273657   2.478   4.800   1.432  0.1286 -0.2530  0.7658
17389TIP3    H173658   2.394   4.842   1.416  1.2003  1.0774 -2.0753
17389TIP3    H273659   2.517   4.849   1.504 -0.0821  1.4886 -0.2573
17390TIP3   OH273660   1.791   5.644  12.811 -0.2590  0.0562  0.4657
17390TIP3    H173661   1.855   5.672  12.877 -1.4492 -0.0180  1.7135
17390TIP3    H273662   1.731   5.717  12.804 -0.8749 -0.4431  0.4392
17391TIP3   OH273663   5.636   0.112  16.823  0.1590 -0.5217 -0.3496
17391TIP3    H173664   5.610   0.025  16.793  0.1206 -0.3305 -0.8832
17391TIP3    H273665   5.731   0.108  16.829  0.1768 -0.5238 -0.6209
17392TIP3   OH273666   5.622   1.919   3.707 -0.2127 -0.6252  0.2950
17392TIP3    H173667   5.601   1.887   3.795  3.1773  0.4245  1.6544
17392TIP3    H273668   5.630   1.840   3.654 -1.9110 -1.3020  0.9716
17393TIP3   OH273669   5.710   4.059  15.947 -0.7213 -0.0687  0.2105
17393TIP3    H173670   5.636   4.087  16.001 -1.4344 -3.3218  1.1129
17393TIP3    H273671   5.669   4.019  15.870  0.0653 -1.6589  0.5897
17394TIP3   OH273672   6.781   3.600  15.904 -0.1166 -0.1746 -0.5481
17394TIP3    H173673   6.762   3.560  15.819  0.7465  0.5211 -1.0913
17394TIP3    H273674   6.810   3.689  15.882  0.2940 -0.0447  0.4715
17395TIP3   OH273675   0.760   1.373   1.721 -0.1625 -0.7126 -0.0496
17395TIP3    H173676   0.853   1.374   1.701  0.0542 -1.7958  0.8720
17395TIP3    H273677   0.720   1.425   1.650  1.0868 -0.4939 -0.6148
17396TIP3   OH273678   0.054   0.701   3.576  0.6165  0.2078  0.0470
17396TIP3    H173679   0.130   0.670   3.528  1.0134  0.8409  0.2523
17396TIP3    H273680   0.071   0.794   3.591  0.2090  0.1642  0.8545
17397TIP3   OH273681   1.000   2.876   2.210 -0.4574 -0.4764  0.0162
17397TIP3    H173682   0.970   2.801   2.261 -1.0531  0.5108  1.1569
17397TIP3    H273683   0.919   2.919   2.181 -0.1810  1.0973  1.4503
17398TIP3   OH273684   4.053   2.188  11.431  0.6891 -0.0524 -0.1583
17398TIP3    H173685   4.148   2.186  11.423  1.0119 -0.1426  2.8121
17398TIP3    H273686   4.022   2.146  11.350  3.1142  0.3333 -1.3882
17399TIP3   OH273687   4.803   6.275   5.994  0.2008 -1.0734 -0.2249
17399TIP3    H173688   4.858   6.350   5.971 -2.2888  0.9572  0.0467
17399TIP3    H273689   4.790   6.229   5.911  1.4250 -1.0163 -0.4713
17400TIP3   OH273690   6.641   4.873  14.197  0.0842  0.0383  0.7897
17400TIP3    H173691   6.652   4.922  14.116  1.6026  1.7692  1.9662
17400TIP3    H273692   6.654   4.782  14.172 -0.6665  0.4056 -1.0952
17401TIP3   OH273693   6.665   6.112  12.817  0.1741 -0.3909  0.3388
17401TIP3    H173694   6.683   6.154  12.901  1.3425 -0.4062  0.1041
17401TIP3    H273695   6.744   6.062  12.797 -0.0968 -0.4053 -0.7693
17402TIP3   OH273696   4.924   4.855   2.634 -0.1121  0.1275 -0.7039
17402TIP3    H173697   4.933   4.920   2.565 -0.2454 -0.1192 -0.9573
17402TIP3    H273698   4.841   4.876   2.677  0.4157  0.8506 -0.0105
17403TIP3   OH273699   1.141   4.621  13.676  0.1989  0.4995  0.0909
17403TIP3    H173700   1.185   4.624  13.591  0.7540  0.8462  0.3822
17403TIP3    H273701   1.212   4.612  13.740 -0.3434 -2.0797  0.4132
17404TIP3   OH273702   6.562   5.046   5.639 -0.2679  0.2568  0.8230
17404TIP3    H173703   6.601   5.122   5.683  1.2988  0.0708 -0.1710
17404TIP3    H273704   6.482   5.080   5.599  1.3914  1.9531 -1.3073
17405TIP3   OH273705   3.441   2.293  16.660 -0.1196 -0.4189 -0.1081
17405TIP3    H173706   3.446   2.280  16.566 -0.5811 -1.9521  0.0502
17405TIP3    H273707   3.532   2.289  16.690 -0.1062 -1.9566 -0.2761
17406TIP3   OH273708   0.648   0.592  13.568  0.0770 -0.1026 -0.1902
17406TIP3    H173709   0.567   0.641  13.584 -0.0661 -0.2430 -0.4863
17406TIP3    H273710   0.715   0.641  13.616  0.3887  1.7403 -2.3195
17407TIP3   OH273711   0.511   2.907   5.258  0.8158  0.5723  0.3154
17407TIP3    H173712   0.546   2.887   5.345  1.6003 -0.2712 -0.1669
17407TIP3    H273713   0.470   2.826   5.229 -0.1667  1.0905  0.2168
17408TIP3   OH273714   6.176   4.541  14.612  0.2319  0.0508  0.2841
17408TIP3    H173715   6.261   4.507  14.637  0.2574  0.2707  0.5072
17408TIP3    H273716   6.113   4.488  14.661  0.1644 -1.0126 -0.9085
17409TIP3   OH273717   1.693   2.120  13.110  0.0928  0.0988  0.4849
17409TIP3    H173718   1.761   2.086  13.052 -1.6795 -1.9556 -0.5215
17409TIP3    H273719   1.639   2.175  13.055 -0.1518  0.1961  0.8175
17410TIP3   OH273720   2.827   5.044  14.032  0.2231  0.1403  0.1400
17410TIP3    H173721   2.861   4.970  14.083 -0.5470 -0.3359 -0.0246
17410TIP3    H273722   2.826   5.012  13.942  1.2027  0.8436 -0.1366
17411TIP3   OH273723   1.525   4.828  14.096  1.2327 -0.0441 -0.1014
17411TIP3    H173724   1.587   4.817  14.168  1.6870 -1.0503 -0.6231
17411TIP3    H273725   1.445   4.858  14.138  0.8755 -2.4471  1.1388
17412TIP3   OH273726   2.715   1.656   2.940  0.1949 -0.1049 -0.6434
17412TIP3    H173727   2.668   1.583   2.981 -3.0571  1.6392 -0.9246
17412TIP3    H273728   2.783   1.679   3.004  0.6239 -2.6377 -0.0807
17413TIP3   OH273729   2.065   6.582   0.759  0.2334  0.1424 -0.3782
17413TIP3    H173730   2.043   6.645   0.828 -0.6152 -0.1710 -0.3460
17413TIP3    H273731   1.987   6.580   0.704  0.3403 -0.7168 -0.5041
17414TIP3   OH273732   5.265   2.966   5.852  0.1356 -0.2299 -0.3194
17414TIP3    H173733   5.201   2.905   5.889 -1.0073  0.3024 -1.3150
17414TIP3    H273734   5.350   2.926   5.868 -0.5022 -1.3309  0.3899
17415TIP3   OH273735   0.081   2.514  12.906 -0.2375 -0.2171  0.6078
17415TIP3    H173736   0.112   2.514  12.815  0.7774 -0.5861  0.9369
17415TIP3    H273737   0.082   2.421  12.931  0.2523 -0.0457  1.2410
17416TIP3   OH273738   3.622   1.553   5.396  0.5535  0.0552  0.3205
17416TIP3    H173739   3.584   1.486   5.453  2.7347  0.7213  2.8108
17416TIP3    H273740   3.593   1.529   5.308 -1.9618 -1.8308  1.5172
17417TIP3   OH273741   5.740   0.557  12.563 -0.5577 -0.0773  0.9864
17417TIP3    H173742   5.814   0.496  12.560 -1.4542 -1.1487 -0.1391
17417TIP3    H273743   5.734   0.582  12.655  0.7088 -0.5903  1.2305
17418TIP3   OH273744   1.053   5.119  13.053  0.4892  0.3933 -0.4349
17418TIP3    H173745   1.120   5.096  12.989  0.3700  0.3021 -0.5283
17418TIP3    H273746   1.088   5.195  13.100  0.0833  1.1931 -1.3920
17419TIP3   OH273747   1.198   4.244  15.608 -0.0633  0.2201  0.1731
17419TIP3    H173748   1.107   4.256  15.578 -0.8983 -0.8161  2.1230
17419TIP3    H273749   1.249   4.305  15.554 -1.6552 -0.3508 -2.1419
17420TIP3   OH273750   5.674   5.177   3.468  0.3222  0.5365 -0.2533
17420TIP3    H173751   5.714   5.126   3.398  0.7674 -0.2602  0.5608
17420TIP3    H273752   5.634   5.252   3.423  0.8728  0.2187 -1.3145
17421TIP3   OH273753   2.746   2.224  13.632 -0.4790  0.0978  0.4031
17421TIP3    H173754   2.741   2.146  13.687  0.4000 -0.9840 -0.9848
17421TIP3    H273755   2.674   2.214  13.570  0.4138 -0.2954 -0.5983
17422TIP3   OH273756   1.264   4.376   1.018 -0.1524 -0.4896 -0.2180
17422TIP3    H173757   1.256   4.471   1.009  0.1371 -0.3894  0.5223
17422TIP3    H273758   1.349   4.355   0.980  0.5921 -0.2080  1.2340
17423TIP3   OH273759   1.427   0.458  15.379 -0.5964  0.1051  0.2382
17423TIP3    H173760   1.372   0.496  15.448  0.5775  0.8108  0.8067
17423TIP3    H273761   1.411   0.364  15.386 -2.2024  0.3252 -0.0291
17424TIP3   OH273762   3.674   3.763  12.183  0.3571  0.3641  0.0721
17424TIP3    H173763   3.664   3.858  12.174  0.5604  0.2799 -1.2634
17424TIP3    H273764   3.591   3.734  12.222  0.2289  1.0622  0.3423
17425TIP3   OH273765   2.904   2.304   1.902 -0.4299 -0.3988  0.1864
17425TIP3    H173766   2.857   2.229   1.938 -0.7821 -0.9725 -1.3639
17425TIP3    H273767   2.835   2.361   1.868 -0.0727 -1.0018 -1.6488
17426TIP3   OH273768   3.046   4.406   0.530  0.2162 -0.4838 -0.6477
17426TIP3    H173769   3.091   4.469   0.587  1.5579 -1.1986 -0.8790
17426TIP3    H273770   3.057   4.442   0.442  0.4332 -0.7034 -0.7129
17427TIP3   OH273771   6.670   1.445  14.307  0.9386  0.4462  0.4945
17427TIP3    H173772   6.650   1.352  14.309  1.5311  0.3126  0.3100
17427TIP3    H273773   6.764   1.450  14.288  1.5473  0.9912  3.1788
17428TIP3   OH273774   0.691   3.222   6.064 -0.4587 -0.1759  0.1325
17428TIP3    H173775   0.742   3.213   6.144 -0.4087 -0.4515  0.0704
17428TIP3    H273776   0.656   3.311   6.067 -2.5278 -0.9776  1.6702
17429TIP3   OH273777   0.767   2.809  15.989  0.5951  0.1380  0.4996
17429TIP3    H173778   0.716   2.752  16.048  0.2804  1.3443  1.4309
17429TIP3    H273779   0.713   2.815  15.910 -0.6217  1.1480  1.3532
17430TIP3   OH273780   5.050   0.322  12.800 -0.1530  1.1808  0.1343
17430TIP3    H173781   4.976   0.351  12.746 -0.2606 -0.7298 -0.8340
17430TIP3    H273782   5.082   0.243  12.756  0.6717  0.3599  2.0985
17431TIP3   OH273783   2.429   1.684   4.054 -0.4058 -0.6490 -0.2499
17431TIP3    H173784   2.345   1.637   4.052  0.0830 -1.5159 -1.7846
17431TIP3    H273785   2.469   1.657   4.137 -0.7625 -1.8293 -0.4494
17432TIP3   OH273786   3.285   3.163   3.759  0.7210  0.7938  0.8795
17432TIP3    H173787   3.212   3.104   3.779  0.5354  1.7218  3.3552
17432TIP3    H273788   3.360   3.123   3.803  1.6784  0.0861 -1.2732
17433TIP3   OH273789   3.554   0.290  16.400  0.0809 -0.1115  0.1928
17433TIP3    H173790   3.639   0.325  16.426  0.3214 -0.8195  0.3738
17433TIP3    H273791   3.551   0.203  16.439 -0.8111 -0.0163  0.3574
17434TIP3   OH273792   1.925   1.452  14.286  0.2830 -0.4541 -1.4072
17434TIP3    H173793   1.980   1.530  14.286  0.0422 -0.2056  0.9194
17434TIP3    H273794   1.986   1.380  14.267  1.2922 -0.0873  0.2344
17435TIP3   OH273795   6.423   3.700  14.376 -0.3573 -0.8585 -0.4902
17435TIP3    H173796   6.511   3.700  14.338  0.4178  3.8511  0.6907
17435TIP3    H273797   6.437   3.683  14.469 -0.9164 -1.6642 -0.5499
17436TIP3   OH273798   4.627   4.471  12.071  0.1479 -0.4338  0.4134
17436TIP3    H173799   4.658   4.388  12.034 -1.0961 -0.0998 -1.5500
17436TIP3    H273800   4.692   4.494  12.137  0.4701 -3.0102  1.1113
17437TIP3   OH273801   0.016   5.143  12.264 -0.0035  0.3340 -0.1640
17437TIP3    H173802   0.008   5.055  12.227 -0.5608  0.6591 -0.8612
17437TIP3    H273803   0.102   5.145  12.304 -0.0950 -0.6180  0.0968
17438TIP3   OH273804   4.990   6.073  11.652 -0.1059 -0.8884 -0.0278
17438TIP3    H173805   5.050   6.034  11.589 -0.2284  0.6006 -1.1305
17438TIP3    H273806   4.905   6.035  11.630 -0.2833  0.1429 -1.3126
17439TIP3   OH273807   0.112   0.047   3.004 -0.1120 -0.5006  0.2797
17439TIP3    H173808   0.103  -0.046   2.979  0.9604 -0.3364 -0.7836
17439TIP3    H273809   0.022   0.075   3.021 -0.5026 -1.6178  0.1659
17440TIP3   OH273810   3.974   5.766   3.316  0.1389  0.1365  0.2334
17440TIP3    H173811   4.011   5.720   3.241 -0.4074 -0.7424  0.4864
17440TIP3    H273812   3.957   5.855   3.284 -0.1633 -0.2518 -0.7069
17441TIP3   OH273813   6.057   3.286  13.914 -0.0738  0.8351 -0.0387
17441TIP3    H173814   6.105   3.351  13.862  3.4146  0.1983  2.0781
17441TIP3    H273815   6.021   3.335  13.987  1.5541  0.6540  0.9267
17442TIP3   OH273816   2.810   2.216   3.705 -0.2812  0.4083 -0.0739
17442TIP3    H173817   2.746   2.163   3.752 -0.1116 -0.1387 -0.4437
17442TIP3    H273818   2.765   2.299   3.689 -1.3527 -0.3662 -1.3592
17443TIP3   OH273819   3.421   1.631   4.788 -0.5621  0.0569 -0.1948
17443TIP3    H173820   3.407   1.725   4.795  1.4772  0.4053 -0.2889
17443TIP3    H273821   3.355   1.602   4.724 -1.9896  1.1773  0.7089
17444TIP3   OH273822   5.834   6.298   2.332  0.2806 -0.0803 -0.3790
17444TIP3    H173823   5.814   6.293   2.426 -0.1650  1.2312 -0.3897
17444TIP3    H273824   5.893   6.224   2.317 -0.4475 -0.9159  0.7212
17445TIP3   OH273825   4.513   6.029  11.154  0.3191 -0.1073  0.0037
17445TIP3    H173826   4.497   5.978  11.075  0.9531  1.4636 -1.1928
17445TIP3    H273827   4.560   6.106  11.123 -1.2244  1.5823  1.6111
17446TIP3   OH273828   0.520   2.112  13.719  0.4516  0.0628  0.2117
17446TIP3    H173829   0.455   2.067  13.774  0.2727 -1.5123 -1.2131
17446TIP3    H273830   0.604   2.096  13.763  0.3103 -1.1345  0.0720
17447TIP3   OH273831   3.952   2.758   3.696  0.4959  0.6334 -0.0846
17447TIP3    H173832   3.985   2.848   3.697  1.0786  0.5657 -2.8727
17447TIP3    H273833   4.021   2.709   3.652 -1.8278 -0.1366 -3.2499
17448TIP3   OH273834   6.769   6.725   6.380  0.0664  0.4923 -0.2811
17448TIP3    H173835   6.821   6.654   6.342  0.4935  0.1645  0.8604
17448TIP3    H273836   6.711   6.680   6.442  0.9834  1.2125  1.1495
17449TIP3   OH273837   0.090   1.740  16.615  0.0117 -0.3991 -0.1092
17449TIP3    H173838   0.145   1.714  16.541  1.2442 -0.2415  0.7216
17449TIP3    H273839   0.152   1.762  16.684 -0.7874  4.6207 -0.6275
17450TIP3   OH273840   2.991   6.589   1.159 -0.0732 -0.1024  0.3066
17450TIP3    H173841   2.992   6.579   1.064 -0.5152  0.9470  0.1800
17450TIP3    H273842   3.057   6.528   1.190  1.3055  0.7647 -0.8085
17451TIP3   OH273843   1.511   2.802   1.779 -0.1428  0.0191 -0.2806
17451TIP3    H173844   1.424   2.814   1.740 -0.3255  0.5311  0.2818
17451TIP3    H273845   1.556   2.742   1.718 -2.0445 -3.1324  1.1389
17452TIP3   OH273846   0.893   6.056   1.216  0.0758 -0.1592  0.1642
17452TIP3    H173847   0.809   6.030   1.255  0.7059 -2.6309  0.0140
17452TIP3    H273848   0.938   6.102   1.287 -1.0873  0.5701  0.4701
17453TIP3   OH273849   4.778   1.299  11.603  0.0463 -0.3512  0.1698
17453TIP3    H173850   4.763   1.282  11.696  0.4272 -0.6567  0.1773
17453TIP3    H273851   4.782   1.212  11.563 -1.8005 -0.2027 -0.4173
17454TIP3   OH273852   1.135   1.838  14.460  0.9878  0.2986 -0.0653
17454TIP3    H173853   1.225   1.863  14.482  0.3272  0.3084  3.0074
17454TIP3    H273854   1.118   1.761  14.514 -0.3305 -0.8093 -1.9451
17455TIP3   OH273855   1.193   2.338   5.327 -0.0865 -0.1053 -0.1929
17455TIP3    H173856   1.253   2.394   5.375 -0.6240 -0.2900  0.7259
17455TIP3    H273857   1.144   2.292   5.395 -0.3875 -0.8970 -0.9289
17456TIP3   OH273858   2.085   4.185  15.670 -0.0382  0.5785 -0.2294
17456TIP3    H173859   1.992   4.161  15.665  0.3786 -1.2031  0.0279
17456TIP3    H273860   2.098   4.210  15.761 -0.4718  1.8851 -0.4975
17457TIP3   OH273861   3.009   0.025  12.253 -0.0703  0.1988 -0.4204
17457TIP3    H173862   3.008   0.116  12.283 -2.2277  0.8301 -2.1979
17457TIP3    H273863   2.965  -0.024  12.323  0.4532  0.5995  0.2066
17458TIP3   OH273864   0.559   6.646   4.250 -0.7692  0.1739  0.2547
17458TIP3    H173865   0.654   6.640   4.243 -0.7037 -0.6933  1.4834
17458TIP3    H273866   0.538   6.737   4.229  0.2962  0.3222 -0.2233
17459TIP3   OH273867   4.471   3.986  16.657 -0.7179  0.1769 -0.2526
17459TIP3    H173868   4.418   4.011  16.734 -0.4503 -0.4076  0.1312
17459TIP3    H273869   4.449   3.894  16.643 -0.0470  0.0229 -0.2940
17460TIP3   OH273870   5.716   0.690  11.671  0.2923  0.2663 -0.3585
17460TIP3    H173871   5.801   0.717  11.636 -0.5069  3.1969 -0.3682
17460TIP3    H273872   5.680   0.631  11.605  1.0024  1.5630 -1.9835
17461TIP3   OH273873   5.910   6.661  13.786  0.0641  0.0708 -0.4130
17461TIP3    H173874   5.998   6.662  13.826  0.8326  1.2691 -2.0361
17461TIP3    H273875   5.924   6.687  13.695 -1.9521 -0.0585 -0.8113
17462TIP3   OH273876   0.514   5.043  13.921 -0.3446 -0.0398  0.1055
17462TIP3    H173877   0.528   5.042  14.016 -1.3533 -3.7509  0.3588
17462TIP3    H273878   0.584   4.989  13.885 -0.1111  1.1232 -1.3253
17463TIP3   OH273879   4.519   3.397   4.493  0.0602  0.3415 -0.6355
17463TIP3    H173880   4.568   3.330   4.444  0.3710  0.5793 -0.6536
17463TIP3    H273881   4.577   3.473   4.493 -0.7631  1.0002 -1.6264
17464TIP3   OH273882   4.468   1.926   0.775  0.4452  0.2286  0.6297
17464TIP3    H173883   4.376   1.924   0.803 -0.0405  2.4753 -0.5506
17464TIP3    H273884   4.517   1.935   0.856 -0.3717 -0.8547  1.2737
17465TIP3   OH273885   2.261   4.205   0.264  0.2597 -0.4397 -0.0501
17465TIP3    H173886   2.235   4.120   0.230 -2.1592  0.2699 -0.1592
17465TIP3    H273887   2.249   4.199   0.358  0.3923 -0.3071 -0.0228
17466TIP3   OH273888   4.313   1.039  15.347 -0.2366 -0.3682  0.2489
17466TIP3    H173889   4.300   1.110  15.285 -1.9591  0.1771  1.1698
17466TIP3    H273890   4.391   1.065  15.396 -0.9345  1.0111  0.6896
17467TIP3   OH273891   6.435   2.132   1.484  0.3299  0.3999  0.0406
17467TIP3    H173892   6.372   2.158   1.551 -0.0585  0.9287 -0.5154
17467TIP3    H273893   6.443   2.209   1.427 -0.0679 -0.3372 -1.0546
17468TIP3   OH273894   0.020   4.417   5.782 -0.8874  0.0381  0.1807
17468TIP3    H173895   0.055   4.428   5.871 -0.6762  0.9505 -0.0028
17468TIP3    H273896  -0.029   4.497   5.766 -2.9029 -1.0900  0.3275
17469TIP3   OH273897   3.920   5.297  11.200 -0.1795  0.6416  0.3521
17469TIP3    H173898   4.015   5.288  11.194 -0.2118  0.2535  0.4260
17469TIP3    H273899   3.896   5.354  11.126 -0.2445 -1.6866 -1.5163
17470TIP3   OH273900   4.982   5.474   3.119 -0.9448 -0.1495 -0.2790
17470TIP3    H173901   4.941   5.468   3.032 -3.0429 -0.4059  0.6598
17470TIP3    H273902   5.074   5.495   3.101 -1.2257 -0.6021 -2.5619
17471TIP3   OH273903   0.777   5.699  14.240  0.2870 -0.0753 -0.1491
17471TIP3    H173904   0.767   5.662  14.328  0.3490 -1.9906 -0.8974
17471TIP3    H273905   0.850   5.760  14.247  1.6665 -1.7288  0.7268
17472TIP3   OH273906   0.070   5.517   3.703  0.0460  0.9014  0.2931
17472TIP3    H173907  -0.015   5.551   3.730 -0.7922 -0.8375 -0.0207
17472TIP3    H273908   0.080   5.436   3.752  0.2904 -0.2872 -1.6261
17473TIP3   OH273909   2.744   5.422   1.794 -0.1495  0.5328  0.3997
17473TIP3    H173910   2.697   5.505   1.789 -0.8065  0.1745  0.3957
17473TIP3    H273911   2.781   5.409   1.707  1.1000  1.4587  0.7724
17474TIP3   OH273912   5.996   5.241  15.531 -0.1459  0.1988  0.0911
17474TIP3    H173913   6.001   5.271  15.440  0.8860  0.1065  0.1075
17474TIP3    H273914   6.087   5.239  15.561 -0.6273  3.2106  2.1204
17475TIP3   OH273915   1.420   4.352  16.767 -0.3425 -0.2663  1.0958
17475TIP3    H173916   1.510   4.379  16.786 -0.0795 -1.5540  1.7974
17475TIP3    H273917   1.370   4.379  16.843 -0.3339 -0.5346  1.1978
17476TIP3   OH273918   3.035   1.619  13.835  0.6548  0.0424  0.0209
17476TIP3    H173919   2.967   1.640  13.899 -0.9373  1.2906 -1.9579
17476TIP3    H273920   2.988   1.583  13.760  2.0506  1.5373 -1.6827
17477TIP3   OH273921   2.662   1.944   5.923 -0.0133 -0.0290  0.2183
17477TIP3    H173922   2.754   1.921   5.934  0.2991  0.4012 -1.2414
17477TIP3    H273923   2.622   1.866   5.884 -0.5205 -0.5982  1.8196
17478TIP3   OH273924   5.276   1.032   4.854 -0.0622 -0.1121  0.1630
17478TIP3    H173925   5.323   1.024   4.937 -1.6100  0.1605  1.1064
17478TIP3    H273926   5.307   1.114   4.816 -1.1787  1.1166  1.7479
17479TIP3   OH273927   2.864   3.353  16.469  0.4295 -0.0694 -0.1056
17479TIP3    H173928   2.859   3.424  16.406  1.2152 -1.1652 -1.4834
17479TIP3    H273929   2.833   3.276  16.422 -0.2006 -0.6976  1.2651
17480TIP3   OH273930   4.748   0.483   0.377  0.3829  0.4572  0.3875
17480TIP3    H173931   4.654   0.467   0.373  0.6265 -0.9167 -0.4808
17480TIP3    H273932   4.788   0.396   0.371  1.6968  0.8555  2.3678
17481TIP3   OH273933   6.202   6.084  16.037 -0.4444 -0.0848 -0.5663
17481TIP3    H173934   6.298   6.085  16.034 -0.3701  0.9995  1.0066
17481TIP3    H273935   6.180   6.034  16.115 -1.1594 -0.0549 -0.7373
17482TIP3   OH273936   4.258   4.318  12.961 -0.1127 -0.5558  0.2430
17482TIP3    H173937   4.270   4.224  12.979  2.2209 -0.1315  1.2448
17482TIP3    H273938   4.226   4.320  12.871  0.3447 -2.3016 -0.0089
17483TIP3   OH273939   2.107   6.711   4.628 -0.0914 -0.0304  0.0086
17483TIP3    H173940   2.118   6.659   4.549  1.0320 -0.9386  0.7394
17483TIP3    H273941   2.160   6.789   4.613  1.2455 -0.8283  0.3768
17484TIP3   OH273942   0.442   1.702  12.378  0.2404  0.1537  0.5029
17484TIP3    H173943   0.426   1.699  12.284 -3.0891 -1.6095  0.9669
17484TIP3    H273944   0.479   1.616  12.399 -3.2551 -1.3526  1.2302
17485TIP3   OH273945   2.479   0.726  13.997  0.2900  0.4771  0.0137
17485TIP3    H173946   2.463   0.775  13.916  0.3475 -1.8687 -1.5086
17485TIP3    H273947   2.569   0.694  13.988 -0.0524 -0.6828  0.4764
17486TIP3   OH273948   4.333   6.015  15.003 -0.2856  0.0614 -0.4623
17486TIP3    H173949   4.373   5.944  14.954  1.8771  1.5551 -1.0168
17486TIP3    H273950   4.240   6.011  14.981  0.0909 -1.4142 -1.9309
17487TIP3   OH273951   3.611   0.407   4.709  0.2857 -0.0689 -0.1058
17487TIP3    H173952   3.653   0.491   4.724  0.6583 -0.1620 -0.5717
17487TIP3    H273953   3.670   0.343   4.751  0.9214 -0.2519 -1.2155
17488TIP3   OH273954   3.971   6.416  11.662 -0.4076  0.4107  0.0652
17488TIP3    H173955   3.927   6.486  11.613 -2.0541 -0.9612 -0.4671
17488TIP3    H273956   3.907   6.346  11.669  0.5788 -0.3809  2.1896
17489TIP3   OH273957   0.196   6.644  15.207 -0.3101  0.1273  0.0482
17489TIP3    H173958   0.237   6.607  15.129  1.2114 -0.4992  1.1046
17489TIP3    H273959   0.156   6.569  15.251 -1.5364  0.5422 -0.3089
17490TIP3   OH273960   1.893   0.608   0.941 -0.5005  0.0475  0.0574
17490TIP3    H173961   1.816   0.625   0.995 -0.2607  0.3531  0.3097
17490TIP3    H273962   1.948   0.686   0.952  0.2005 -0.4839  0.4963
17491TIP3   OH273963   3.624   6.317   3.872  0.1250  0.1533  0.2000
17491TIP3    H173964   3.605   6.398   3.826  1.9129 -0.2279 -1.3815
17491TIP3    H273965   3.555   6.256   3.844  1.5856 -0.3197 -2.8697
17492TIP3   OH273966   0.685   0.189   4.268 -0.2196 -0.6244  0.3816
17492TIP3    H173967   0.641   0.151   4.344  0.0913 -1.3371  0.2109
17492TIP3    H273968   0.667   0.127   4.196  1.3014 -1.1008  0.3753
17493TIP3   OH273969   1.935   6.354  15.832 -0.2443 -1.1601 -0.1294
17493TIP3    H173970   1.955   6.307  15.751 -0.5943 -0.6955 -0.4876
17493TIP3    H273971   1.933   6.446  15.806 -1.3216 -1.0847  0.2106
17494TIP3   OH273972   2.149   3.528  10.226 -0.1911 -0.1170  0.3462
17494TIP3    H173973   2.091   3.523  10.302  1.3606  1.1074  1.7016
17494TIP3    H273974   2.124   3.609  10.182 -1.3832 -1.0449 -0.7663
17495TIP3   OH273975   2.296   3.739  14.320  0.6357  0.0146 -0.1166
17495TIP3    H173976   2.390   3.757  14.315  0.3454  1.9035  0.4487
17495TIP3    H273977   2.266   3.788  14.396 -1.0292  0.4938 -1.0291
17496TIP3   OH273978   0.190   4.563   3.917 -0.9090 -0.3325  0.2696
17496TIP3    H173979   0.168   4.510   3.993  1.0109 -0.1563  1.0082
17496TIP3    H273980   0.219   4.647   3.953  0.7058 -0.4763 -0.5639
17497TIP3   OH273981   1.663   4.684  11.726  0.5712  0.3057 -0.4849
17497TIP3    H173982   1.602   4.685  11.799  0.3785 -1.2439 -0.6055
17497TIP3    H273983   1.644   4.765  11.678 -1.1174  0.0369 -0.3114
17498TIP3   OH273984   4.988   5.009  13.751 -1.1298 -0.7103 -0.1849
17498TIP3    H173985   4.924   4.974  13.813 -0.7312 -0.4986  0.3494
17498TIP3    H273986   5.009   5.096  13.785  0.5294 -1.3151  0.4761
17499TIP3   OH273987   2.465   6.644  16.238 -0.3839 -0.0393  0.1322
17499TIP3    H173988   2.528   6.706  16.274  0.0028 -0.6348  0.5013
17499TIP3    H273989   2.487   6.640  16.145  1.0522 -1.2749  0.4904
17500TIP3   OH273990   3.233   4.697   0.507  0.6946 -0.3744 -0.3612
17500TIP3    H173991   3.257   4.627   0.568 -0.1861 -0.4889 -0.1313
17500TIP3    H273992   3.306   4.700   0.445  1.1023 -0.9808  0.0684
17501TIP3   OH273993   2.055   0.378  12.240 -0.3558  0.2888 -0.2101
17501TIP3    H173994   2.027   0.469  12.254 -1.8879  0.1379 -1.9135
17501TIP3    H273995   1.975   0.327  12.248 -0.0587 -0.5634 -2.0972
17502TIP3   OH273996   4.082   5.454  12.992  0.1960 -0.1560  0.4913
17502TIP3    H173997   4.090   5.506  12.912  1.0490 -1.9080 -0.6428
17502TIP3    H273998   4.148   5.385  12.981 -2.6384 -3.1065  0.5915
17503TIP3   OH273999   5.847   4.500   0.889  0.1515  0.2574 -0.1049
17503TIP3    H174000   5.853   4.520   0.983 -2.2044  3.5242 -0.4823
17503TIP3    H274001   5.935   4.519   0.855  0.7105  0.1652  1.2225
17504TIP3   OH274002   3.318   4.989   5.614 -0.6502  0.0455 -0.2127
17504TIP3    H174003   3.235   4.990   5.566 -0.1959 -0.2423 -1.0361
17504TIP3    H274004   3.308   4.921   5.680 -0.7302 -0.6905 -0.9597
17505TIP3   OH274005   5.758   1.594  12.858  0.2557 -0.1021 -0.0697
17505TIP3    H174006   5.678   1.570  12.905  0.7589  1.3273  1.6270
17505TIP3    H274007   5.733   1.591  12.766 -1.8370  0.4671  0.4207
17506TIP3   OH274008   3.261   5.211   1.174  0.2589  0.4943 -0.9303
17506TIP3    H174009   3.331   5.146   1.165 -0.4661 -0.3730 -0.5509
17506TIP3    H274010   3.221   5.214   1.087  0.6828  0.8998 -1.1146
17507TIP3   OH274011   1.948   2.586  11.776  0.2149 -0.2224  0.2215
17507TIP3    H174012   1.896   2.628  11.708 -1.2054  0.3460  1.5953
17507TIP3    H274013   2.005   2.526  11.728 -1.3939 -0.5573 -1.4187
17508TIP3   OH274014   1.591   1.643  15.456  0.2775  0.0879 -0.0039
17508TIP3    H174015   1.641   1.596  15.523  0.3950  0.7313  0.3746
17508TIP3    H274016   1.517   1.585  15.437  0.5324 -0.3455  0.2916
17509TIP3   OH274017   3.509   1.738  15.598  0.1597  0.3148 -0.3947
17509TIP3    H174018   3.543   1.743  15.687 -0.8342  4.1187 -0.0723
17509TIP3    H274019   3.423   1.699  15.607  0.3474  0.0285  0.1831
17510TIP3   OH274020   1.785   5.936   2.964  0.0872 -0.2412 -0.0386
17510TIP3    H174021   1.767   5.910   2.874 -1.1180 -1.0351  0.4032
17510TIP3    H274022   1.767   6.031   2.966 -2.1416 -0.6023 -0.1418
17511TIP3   OH274023   5.382   3.724   2.159 -0.2636  0.4959 -0.2696
17511TIP3    H174024   5.314   3.748   2.222  0.6984 -0.4028  1.1498
17511TIP3    H274025   5.355   3.639   2.125  0.2139  0.0736  0.3995
17512TIP3   OH274026   0.165   1.422   2.358 -0.2270  0.0420  0.4266
17512TIP3    H174027   0.122   1.357   2.303  0.4699 -1.0344  1.1095
17512TIP3    H274028   0.220   1.472   2.298 -2.2712  1.3794 -0.4464
17513TIP3   OH274029   4.186   3.216   4.500  0.0082  0.2595 -0.0806
17513TIP3    H174030   4.183   3.286   4.566  0.9874  0.0181  0.2516
17513TIP3    H274031   4.252   3.155   4.534  1.8261  0.9794 -2.1065
17514TIP3   OH274032   1.779   6.096   4.893  0.3897 -0.4177  0.1465
17514TIP3    H174033   1.856   6.040   4.885  1.1094  0.5968 -0.1574
17514TIP3    H274034   1.810   6.172   4.942 -0.2079  0.3924 -0.7148
17515TIP3   OH274035   1.764   2.472  11.566  0.1501  0.2580 -0.3014
17515TIP3    H174036   1.833   2.531  11.537  0.6024 -1.0836 -2.1091
17515TIP3    H274037   1.684   2.507  11.526  0.3474 -0.0998 -1.0159
17516TIP3   OH274038   3.048   4.930   3.884 -0.5283  0.3096 -0.2961
17516TIP3    H174039   3.020   4.943   3.794 -1.0355 -0.3249 -0.2395
17516TIP3    H274040   3.111   4.999   3.900 -0.0011  0.0843 -1.3209
17517TIP3   OH274041   1.815   2.320  11.085 -0.2236  0.6938  0.4280
17517TIP3    H174042   1.738   2.297  11.033  1.3595 -2.5396 -0.7267
17517TIP3    H274043   1.793   2.292  11.174 -0.6741  0.5401  0.2710
17518TIP3   OH274044   3.154   3.173   5.539  1.0385  0.1032  0.2830
17518TIP3    H174045   3.083   3.147   5.481  0.8293  2.1744 -0.4875
17518TIP3    H274046   3.155   3.106   5.607 -0.3467 -1.0424 -0.7480
17519TIP3   OH274047   0.589   0.435  14.239 -0.1030  0.2335  0.6227
17519TIP3    H174048   0.603   0.406  14.149  0.0895 -0.8781  0.9993
17519TIP3    H274049   0.633   0.520  14.244  1.9823 -0.7766  0.3186
17520TIP3   OH274050   6.581   4.911   4.385 -0.1350 -0.1680 -0.1400
17520TIP3    H174051   6.538   4.945   4.307  2.3991 -1.1987 -2.1328
17520TIP3    H274052   6.645   4.978   4.408 -2.6942  1.5084  2.9949
17521TIP3   OH274053   3.273   1.991  11.710 -0.4211 -0.2754 -0.2512
17521TIP3    H174054   3.232   2.042  11.780 -0.4541 -0.5993 -0.0287
17521TIP3    H274055   3.219   1.913  11.702 -2.0087  0.9426 -2.4764
17522TIP3   OH274056   4.942   1.017  16.098  0.2478 -0.3572 -0.7768
17522TIP3    H174057   4.939   1.027  16.003 -2.4563 -0.6256 -0.7957
17522TIP3    H274058   4.953   1.106  16.132 -0.6751 -0.0181 -1.3392
17523TIP3   OH274059   5.116   1.306  14.612  0.4356 -0.0419  0.1276
17523TIP3    H174060   5.152   1.219  14.594 -1.6300 -0.6579 -1.5165
17523TIP3    H274061   5.056   1.292  14.685  1.2166  0.3375  0.8517
17524TIP3   OH274062   0.778   6.328   6.550  0.0547  0.4369 -0.1036
17524TIP3    H174063   0.698   6.348   6.501  0.6995 -0.4498 -1.5859
17524TIP3    H274064   0.829   6.409   6.547 -0.6488  0.9245  0.6274
17525TIP3   OH274065   0.213   0.411   0.928 -0.4517  0.0056  0.1841
17525TIP3    H174066   0.215   0.429   0.834  2.6617  1.7760  0.4498
17525TIP3    H274067   0.133   0.454   0.959 -0.5026  1.1373 -1.3890
17526TIP3   OH274068   4.790   3.623   6.002 -0.4681 -0.2229 -0.1550
17526TIP3    H174069   4.726   3.592   6.067  0.4037 -0.4041  0.6370
17526TIP3    H274070   4.871   3.632   6.051 -0.2179  1.4377 -0.8136
17527TIP3   OH274071   0.302   0.607   6.549 -0.3996  0.1056  0.4515
17527TIP3    H174072   0.242   0.667   6.506  1.1364 -0.2738 -2.4923
17527TIP3    H274073   0.386   0.654   6.550  0.7453 -1.7008 -1.5754
17528TIP3   OH274074   5.075   1.476   3.541  0.1549  0.2214  0.0103
17528TIP3    H174075   5.060   1.534   3.467  0.2478 -0.0522 -0.2280
17528TIP3    H274076   5.103   1.393   3.501 -0.0750 -0.0189  0.3377
17529TIP3   OH274077   0.218   0.039  16.171 -0.4977 -0.2120  0.6001
17529TIP3    H174078   0.188   0.090  16.246  1.2739 -2.2682  2.8230
17529TIP3    H274079   0.308   0.067  16.157 -1.0160  0.7086 -1.3742
17530TIP3   OH274080   5.718   1.075   5.651  0.1756  0.6179 -0.2432
17530TIP3    H174081   5.715   1.140   5.722 -0.0533  0.8064 -0.4235
17530TIP3    H274082   5.758   1.121   5.578 -2.2869  1.3978 -1.2125
17531TIP3   OH274083   0.851   3.032  15.372  0.1448  0.3552 -0.4754
17531TIP3    H174084   0.884   3.112  15.412 -0.0085  0.6336 -0.8906
17531TIP3    H274085   0.822   3.059  15.285  1.9211 -0.5371 -1.3874
17532TIP3   OH274086   3.967   0.272   0.886  0.2724 -0.1703 -0.4988
17532TIP3    H174087   4.052   0.271   0.842  0.6456 -0.1558  0.2231
17532TIP3    H274088   3.977   0.213   0.960 -1.1529 -2.3049 -1.8870
17533TIP3   OH274089   2.969   0.745   3.913  0.2519  0.3244 -0.2729
17533TIP3    H174090   3.043   0.745   3.852  0.8245 -0.9722  0.3777
17533TIP3    H274091   3.009   0.750   3.999 -0.2409 -2.3631  0.1947
17534TIP3   OH274092   2.792   5.010  15.632  0.0135 -0.3885 -0.6572
17534TIP3    H174093   2.868   4.977  15.585 -0.0246  0.9431 -1.7098
17534TIP3    H274094   2.763   5.085  15.581 -0.9624  0.1856  0.6871
17535TIP3   OH274095   0.678   5.690   1.703 -0.0499 -0.1371  0.2527
17535TIP3    H174096   0.734   5.727   1.771 -0.5645  1.4411 -0.1524
17535TIP3    H274097   0.708   5.730   1.622 -0.4534 -0.8308 -0.2521
17536TIP3   OH274098   6.095   0.159   1.801  0.2121  0.1654 -0.4940
17536TIP3    H174099   6.026   0.218   1.770  0.5367  1.1719  0.5855
17536TIP3    H274100   6.102   0.092   1.734 -1.5621  0.2441 -0.7999
17537TIP3   OH274101   5.973   3.561   1.474  0.1082  0.2092  0.0507
17537TIP3    H174102   5.900   3.622   1.468  1.8812  2.3710 -1.2023
17537TIP3    H274103   5.978   3.520   1.387  1.0577  0.9774 -0.2812
17538TIP3   OH274104   3.195   3.142   1.428  0.4648 -0.0606  0.3699
17538TIP3    H174105   3.201   3.079   1.356  0.9491 -0.3658  0.6772
17538TIP3    H274106   3.281   3.141   1.470  0.7390  1.3668 -0.0775
17539TIP3   OH274107   6.030   5.383  10.701 -0.3495  0.3928 -0.3449
17539TIP3    H174108   5.972   5.388  10.625 -1.6892 -0.1337  0.6110
17539TIP3    H274109   5.993   5.445  10.763 -1.5135 -1.8534  1.3144
17540TIP3   OH274110   0.705   3.288   0.600  0.1738  0.4019  0.3943
17540TIP3    H174111   0.653   3.354   0.646  0.4571  1.4766 -0.7613
17540TIP3    H274112   0.755   3.244   0.668 -1.7169 -0.2219  1.4712
17541TIP3   OH274113   0.599   1.690   0.438  0.0005 -0.6410  0.2393
17541TIP3    H174114   0.607   1.684   0.342 -1.4973  0.7614 -0.0121
17541TIP3    H274115   0.660   1.759   0.463 -0.9901  0.3265  0.0398
17542TIP3   OH274116   1.284   4.772   2.213 -0.1009  0.5074 -0.2138
17542TIP3    H174117   1.359   4.722   2.244 -0.4701  0.0149 -0.1048
17542TIP3    H274118   1.317   4.822   2.138 -0.1598 -1.3423 -1.5484
17543TIP3   OH274119   1.416   4.992   5.663  0.1828  0.2236  0.0613
17543TIP3    H174120   1.408   4.948   5.748 -0.3480  0.6128  0.2170
17543TIP3    H274121   1.407   5.085   5.683 -1.7717  0.2119 -0.6320
17544TIP3   OH274122   4.392   0.927   5.392  0.2535 -0.0768 -0.2446
17544TIP3    H174123   4.331   0.867   5.435  1.6780 -2.1648 -0.9721
17544TIP3    H274124   4.447   0.870   5.337  2.9691  1.6264  0.5056
17545TIP3   OH274125   0.437   5.073   3.802  0.0300 -0.0047  0.6844
17545TIP3    H174126   0.515   5.101   3.755 -0.6181  0.8530  0.0872
17545TIP3    H274127   0.429   5.135   3.875  1.0236 -1.3213  1.9574
17546TIP3   OH274128   2.266   5.457   0.605 -0.1277 -0.2559  0.1156
17546TIP3    H174129   2.277   5.552   0.612 -2.0721  0.0736 -0.6711
17546TIP3    H274130   2.217   5.444   0.524 -1.0507 -1.8379  0.8856
17547TIP3   OH274131   5.899   4.909  13.825  0.0315  0.4412  0.1822
17547TIP3    H174132   5.860   4.926  13.911  0.3221 -1.2593  0.6897
17547TIP3    H274133   5.856   4.829  13.794 -0.0467  1.0190 -1.2542
17548TIP3   OH274134   4.515   2.098   6.479 -0.2631 -0.3435 -0.8253
17548TIP3    H174135   4.558   2.049   6.549 -0.7616  1.0414  0.5027
17548TIP3    H274136   4.473   2.032   6.425 -0.8797 -1.4075  0.8785
17549TIP3   OH274137   1.797   5.780   0.335  0.0485  0.1708  0.5327
17549TIP3    H174138   1.736   5.801   0.407  0.4281 -1.6749  1.4558
17549TIP3    H274139   1.847   5.705   0.367  1.8635  0.7584 -0.7715
17550TIP3   OH274140   2.702   2.469   1.825 -0.7758  0.4160  0.2576
17550TIP3    H174141   2.670   2.531   1.891 -2.8723 -1.0059  0.6804
17550TIP3    H274142   2.631   2.406   1.816  1.9928 -3.2251  1.4203
17551TIP3   OH274143   4.232   3.853   3.171  0.4790 -0.2869 -0.1704
17551TIP3    H174144   4.220   3.933   3.223  2.5305  0.4285 -0.7060
17551TIP3    H274145   4.143   3.822   3.154 -0.3113  0.3519  2.3503
17552TIP3   OH274146   1.418   3.538   3.938  0.1407 -0.2394 -0.0829
17552TIP3    H174147   1.324   3.551   3.927 -0.0052 -1.1767 -0.0464
17552TIP3    H274148   1.428   3.443   3.947  1.0786 -0.1401  0.0214
17553TIP3   OH274149   3.074   4.868   6.293  0.5091  0.0832  0.2735
17553TIP3    H174150   3.144   4.823   6.342 -1.2484 -0.5460  2.4021
17553TIP3    H274151   3.105   4.958   6.283  2.4184 -0.6187 -0.5676
17554TIP3   OH274152   6.438   1.838   4.017 -0.0659  0.6622 -0.1272
17554TIP3    H174153   6.345   1.823   3.999  0.2957  0.3199 -1.9636
17554TIP3    H274154   6.478   1.752   4.001  0.7053  1.0916 -0.5336
17555TIP3   OH274155   1.334   5.632  11.962 -0.7459  0.5585 -0.6197
17555TIP3    H174156   1.424   5.660  11.944 -0.5647  0.5028  0.1721
17555TIP3    H274157   1.280   5.701  11.924 -0.3535  0.9109 -0.5440
17556TIP3   OH274158   6.000   1.924  13.310  0.0464  0.0978 -0.3038
17556TIP3    H174159   5.909   1.897  13.313  0.3481 -0.9101  0.1287
17556TIP3    H274160   5.997   2.019  13.327 -0.8872  0.0104  0.0847
17557TIP3   OH274161   2.738   5.963  11.673  0.1087 -0.0370 -0.3290
17557TIP3    H174162   2.742   6.021  11.598  1.8343  0.4587  0.1071
17557TIP3    H274163   2.771   5.879  11.640  1.3219  0.3064 -0.0525
17558TIP3   OH274164   6.454   5.319  15.443  0.0741  0.0901 -0.2505
17558TIP3    H174165   6.482   5.305  15.353 -0.9593 -1.4643 -0.3826
17558TIP3    H274166   6.480   5.409  15.463  1.3319  0.0941 -1.7007
17559TIP3   OH274167   6.186   0.935   0.107 -0.0549 -0.3802  0.5268
17559TIP3    H174168   6.169   0.981   0.025 -0.2214 -0.5403  0.4720
17559TIP3    H274169   6.136   0.854   0.101 -0.3538 -0.2329  0.9334
17560TIP3   OH274170   4.701   3.114   6.747  0.3849 -0.2269 -0.5456
17560TIP3    H174171   4.779   3.169   6.755 -0.8688  1.5236  0.2922
17560TIP3    H274172   4.652   3.153   6.674  0.8096 -2.0403 -1.8707
17561TIP3   OH274173   0.013   6.005   4.993 -0.4276 -0.2520  0.4773
17561TIP3    H174174   0.076   6.048   4.936 -0.6890  1.3846  1.3567
17561TIP3    H274175   0.066   5.944   5.045  0.3576  0.6981  0.8246
17562TIP3   OH274176   5.553   6.617   4.650  0.6821 -0.3906  0.2860
17562TIP3    H174177   5.580   6.563   4.724 -0.3681 -0.5284  0.5881
17562TIP3    H274178   5.517   6.554   4.587 -1.9848 -0.0030  1.2649
17563TIP3   OH274179   5.238   6.368   1.172 -0.2264 -1.0166 -0.2250
17563TIP3    H174180   5.257   6.442   1.113  0.1560  0.1340  1.2795
17563TIP3    H274181   5.294   6.298   1.140  0.6610 -0.1314 -0.6855
17564TIP3   OH274182   0.010   4.795   0.275  0.1190 -0.1137  0.1627
17564TIP3    H174183  -0.069   4.743   0.258  0.5488 -0.4520 -0.8299
17564TIP3    H274184   0.070   4.734   0.317  0.3056 -0.1872 -0.2106
17565TIP3   OH274185   2.529   0.660   3.406 -0.3411 -0.4588  0.3787
17565TIP3    H174186   2.467   0.635   3.474  1.3103  0.1395  2.2122
17565TIP3    H274187   2.596   0.710   3.453  0.0440  1.4083 -1.9673
17566TIP3   OH274188   1.767   6.830  14.459 -0.1498 -0.2356  0.1602
17566TIP3    H174189   1.719   6.906  14.426  0.3569  0.9517  1.9458
17566TIP3    H274190   1.726   6.811  14.544  0.4594 -1.2569  0.2397
17567TIP3   OH274191   1.811   3.492   5.888  0.0624 -0.0362  0.5421
17567TIP3    H174192   1.730   3.441   5.877  0.1346 -0.1048  0.3276
17567TIP3    H274193   1.781   3.583   5.886  0.3873  0.2559 -4.1844
17568TIP3   OH274194   2.964   5.049   1.052  0.2141  0.2414 -0.3384
17568TIP3    H174195   2.879   5.064   1.010  0.9844  0.7458 -1.7814
17568TIP3    H274196   2.958   5.096   1.135 -1.7556 -1.7091  0.7067
17569TIP3   OH274197   4.549   1.843  13.337 -0.2704 -0.7651  0.3714
17569TIP3    H174198   4.627   1.870  13.288 -0.4086 -2.3635 -0.8309
17569TIP3    H274199   4.573   1.759  13.376 -1.5351 -1.6051 -0.5445
17570TIP3   OH274200   5.953   3.088  12.354 -0.5874 -0.3158 -0.7423
17570TIP3    H174201   5.951   3.163  12.413 -1.4407 -1.4229  0.7059
17570TIP3    H274202   5.965   3.013  12.412 -1.0454 -1.4114 -2.0319
17571TIP3   OH274203   0.562   4.177  15.330  0.2955 -0.3707 -0.0871
17571TIP3    H174204   0.623   4.165  15.403 -0.0104 -2.5411 -0.1355
17571TIP3    H274205   0.619   4.199  15.256  0.5518  2.7364  0.8610
17572TIP3   OH274206   5.899   3.241  14.161  0.3347 -0.2259 -0.1133
17572TIP3    H174207   5.940   3.192  14.232 -1.6056  0.0179  1.2912
17572TIP3    H274208   5.820   3.190  14.140 -1.1721  1.6451  0.6622
17573TIP3   OH274209   4.856   4.641   5.507 -0.6414  0.2221 -0.2193
17573TIP3    H174210   4.915   4.611   5.577 -0.8578 -0.5832 -0.3696
17573TIP3    H274211   4.859   4.736   5.513 -1.2461  0.1836  1.4095
17574TIP3   OH274212   5.207   0.546  15.934  0.4708  0.2352 -0.1605
17574TIP3    H174213   5.151   0.593  15.872 -0.8532 -1.4029 -0.2875
17574TIP3    H274214   5.289   0.596  15.935 -1.0062  2.8389  0.1656
17575TIP3   OH274215   6.090   3.058  14.382  0.0756  0.1505 -0.0977
17575TIP3    H174216   6.158   3.109  14.427 -0.7306  0.0583  1.2797
17575TIP3    H274217   6.127   2.971  14.372  0.3943  0.2685  0.0628
17576TIP3   OH274218   1.274   5.978   0.758 -0.4794  0.5700  0.0579
17576TIP3    H174219   1.229   5.914   0.814  0.7073 -0.7992 -0.4928
17576TIP3    H274220   1.224   5.977   0.676 -0.7399  0.7029  0.2135
17577TIP3   OH274221   5.305   6.254  12.419  0.5427  0.8492  0.4664
17577TIP3    H174222   5.273   6.223  12.503  0.6815  2.4843  1.1687
17577TIP3    H274223   5.260   6.338  12.405  0.1294  0.3802 -1.3501
17578TIP3   OH274224   5.631   2.184   6.286  0.1495 -0.3688 -0.0587
17578TIP3    H174225   5.587   2.146   6.362 -1.5053  1.4687 -0.0255
17578TIP3    H274226   5.687   2.253   6.323 -0.1727  0.1022 -0.4373
17579TIP3   OH274227   4.420   5.412  16.306 -1.2256 -0.0501 -0.2663
17579TIP3    H174228   4.399   5.323  16.279 -1.3720 -0.1735  0.2468
17579TIP3    H274229   4.439   5.458  16.224 -1.0721 -0.5711 -0.5263
17580TIP3   OH274230   0.127   0.070  11.732  1.2123  0.3289  0.1447
17580TIP3    H174231   0.056   0.077  11.668  1.0788  0.8750  0.3452
17580TIP3    H274232   0.086   0.094  11.815  1.1790 -1.2159  0.5865
17581TIP3   OH274233   3.196   0.612   0.618  0.2933 -0.2045  0.0635
17581TIP3    H174234   3.247   0.532   0.606 -0.4997 -0.8083  0.6085
17581TIP3    H274235   3.130   0.589   0.683  0.4029  1.0643  0.6498
17582TIP3   OH274236   2.900   2.434   4.980  0.2579  0.0451 -0.3412
17582TIP3    H174237   2.920   2.391   4.897  1.6718  0.9558 -0.5094
17582TIP3    H274238   2.950   2.515   4.978  0.6969 -0.1126  1.5969
17583TIP3   OH274239   2.253   1.405   1.708  0.5519  0.1428  0.0063
17583TIP3    H174240   2.171   1.442   1.740  0.3668 -0.1507 -0.1204
17583TIP3    H274241   2.238   1.392   1.614  0.8559  0.3805 -0.0778
17584TIP3   OH274242   5.100   5.713   0.376  0.3216  0.2336  0.6690
17584TIP3    H174243   5.005   5.707   0.370  0.4283 -0.3894 -1.9593
17584TIP3    H274244   5.118   5.732   0.468 -2.3967  1.9225  0.9557
17585TIP3   OH274245   3.046   0.498  12.494  0.0283  0.2264  0.4656
17585TIP3    H174246   3.076   0.554  12.422  1.3033  0.3760  1.0848
17585TIP3    H274247   2.962   0.534  12.520  0.4038  1.2828  0.2384
17586TIP3   OH274248   1.574   0.408  14.072 -0.4930  0.0169 -0.5726
17586TIP3    H174249   1.546   0.486  14.120 -1.3171 -1.1329  0.8783
17586TIP3    H274250   1.588   0.440  13.982 -2.4494  1.5043 -0.4241
17587TIP3   OH274251   4.288   1.317   3.300 -0.2693  0.1204 -0.6120
17587TIP3    H174252   4.207   1.368   3.300 -0.7479 -0.6186 -0.4602
17587TIP3    H274253   4.307   1.304   3.207 -1.2483 -1.1082 -0.6635
17588TIP3   OH274254   4.160   5.001   1.393  0.3233  0.0760 -0.0171
17588TIP3    H174255   4.227   5.067   1.412  1.7179 -0.6721 -1.8606
17588TIP3    H274256   4.083   5.051   1.369  0.4908  0.9880  1.2486
17589TIP3   OH274257   4.091   2.646  15.237 -0.3837 -0.2001  0.5255
17589TIP3    H174258   4.154   2.576  15.253  0.9113  0.9869  0.7428
17589TIP3    H274259   4.141   2.713  15.191 -1.4824  0.7903  0.7425
17590TIP3   OH274260   6.603   3.191   5.918  0.1002  0.6728  0.3156
17590TIP3    H174261   6.595   3.182   5.823 -1.4262  1.7643  0.3014
17590TIP3    H274262   6.566   3.278   5.937  0.6701  0.6089  1.8719
17591TIP3   OH274263   3.059   0.548   0.974 -0.4236  0.6472 -0.6049
17591TIP3    H174264   3.109   0.628   0.987 -0.4256  0.7933 -1.4367
17591TIP3    H274265   2.978   0.562   1.024  0.1470  0.5934  0.3665
17592TIP3   OH274266   1.492   0.113   2.083  0.0153  0.5182  0.1993
17592TIP3    H174267   1.406   0.155   2.087  0.0743  0.5349  2.2720
17592TIP3    H274268   1.473   0.019   2.090  0.0860  0.3856 -1.1444
17593TIP3   OH274269   0.047   0.187  16.752  0.2615  0.5107  0.1005
17593TIP3    H174270  -0.022   0.169  16.816  1.5331 -0.8684  1.1389
17593TIP3    H274271   0.128   0.190  16.803  1.2558 -0.1690 -1.3549
17594TIP3   OH274272   6.698   6.444   1.194  0.0919 -0.1680  0.5626
17594TIP3    H174273   6.729   6.433   1.104  0.9338  1.4330  0.6210
17594TIP3    H274274   6.755   6.387   1.246 -1.0246 -1.8573  0.0176
17595TIP3   OH274275   2.511   0.752   2.510  0.4801 -0.3067 -0.6233
17595TIP3    H174276   2.523   0.685   2.443 -0.8015 -0.4470 -0.7239
17595TIP3    H274277   2.453   0.816   2.470  3.3217  2.0551 -1.3361
17596TIP3   OH274278   2.248   2.405  15.425  0.1074 -0.3224  0.7723
17596TIP3    H174279   2.284   2.476  15.480  0.3376  0.7937 -0.7503
17596TIP3    H274280   2.266   2.325  15.475 -2.1841  0.7814  3.6506
17597TIP3   OH274281   0.530   6.582  11.313 -0.1045  0.2930  0.0911
17597TIP3    H174282   0.448   6.621  11.282 -1.1088 -2.2837 -0.7020
17597TIP3    H274283   0.591   6.593  11.240 -0.0866  1.0914  0.2103
17598TIP3   OH274284   1.969   1.597  11.573  0.3579 -0.0320 -0.4667
17598TIP3    H174285   2.027   1.656  11.620 -0.3321 -0.1783  0.6088
17598TIP3    H274286   1.892   1.589  11.630  0.2942 -1.6945 -0.7487
17599TIP3   OH274287   1.438   1.796   0.168 -0.2078  0.3738  0.1002
17599TIP3    H174288   1.430   1.890   0.186 -2.0566 -0.0313  1.7486
17599TIP3    H274289   1.348   1.764   0.170  0.2565 -1.2663 -1.7049
17600TIP3   OH274290   4.200   0.280  15.317  0.2988 -0.3596  0.0735
17600TIP3    H174291   4.293   0.272  15.340  0.0611 -1.5316  0.7375
17600TIP3    H274292   4.154   0.264  15.400 -0.5255 -1.8339 -0.6286
17601TIP3   OH274293   4.752   6.040   5.395  0.5003 -0.0286 -0.1940
17601TIP3    H174294   4.805   6.080   5.326 -0.6007  2.6598  0.4009
17601TIP3    H274295   4.815   6.021   5.465  0.9978  1.3422 -0.2410
17602TIP3   OH274296   2.963   0.665   4.387  0.4556  0.8396 -0.2650
17602TIP3    H174297   2.991   0.605   4.456  0.0055  0.3733 -0.4750
17602TIP3    H274298   2.877   0.631   4.360 -0.2243  2.1015  0.2311
17603TIP3   OH274299   0.910   5.347  10.926  0.2288  0.0797 -0.0534
17603TIP3    H174300   0.963   5.300  10.863 -1.2430 -0.2546 -1.0998
17603TIP3    H274301   0.859   5.409  10.873 -1.1910 -0.3538  0.7526
17604TIP3   OH274302   0.302   3.980  13.479  0.1269 -0.2862 -0.5340
17604TIP3    H174303   0.292   4.004  13.387  3.5990  2.4582 -0.4095
17604TIP3    H274304   0.242   4.040  13.525  0.7139  0.5842 -0.8738
17605TIP3   OH274305   3.245   5.590  13.454 -0.0284 -0.0924 -0.4681
17605TIP3    H174306   3.179   5.522  13.468  1.1405 -2.0483 -3.5854
17605TIP3    H274307   3.205   5.669  13.492 -3.3710 -1.5463 -0.5726
17606TIP3   OH274308   4.618   2.227   0.628  0.6259  0.1325 -0.1060
17606TIP3    H174309   4.574   2.265   0.703  0.9021  1.5542 -0.6311
17606TIP3    H274310   4.634   2.136   0.653 -0.9187  0.0793  0.8142
17607TIP3   OH274311   4.626   2.571   3.088 -0.6815 -0.4130  0.0621
17607TIP3    H174312   4.648   2.660   3.116 -0.3385 -1.1141  2.1400
17607TIP3    H274313   4.680   2.514   3.142 -0.6988 -1.9075 -1.4134
17608TIP3   OH274314   6.799   2.847   1.358 -0.3135 -0.2738 -0.4867
17608TIP3    H174315   6.816   2.900   1.435 -1.4078  1.2581 -1.2496
17608TIP3    H274316   6.704   2.853   1.345 -0.3363 -1.6250 -1.1677
17609TIP3   OH274317   5.066   4.842  15.013  0.0046 -0.4083 -0.5194
17609TIP3    H174318   5.093   4.930  14.987  1.8552 -1.0822 -1.0726
17609TIP3    H274319   5.010   4.811  14.942  0.9827 -0.3884 -1.3250
17610TIP3   OH274320   6.081   1.050  15.724 -0.4413  0.4412 -0.6223
17610TIP3    H174321   6.049   0.961  15.739 -0.5922  0.4644 -0.8070
17610TIP3    H274322   6.176   1.043  15.733 -0.5115  0.4225  0.1740
17611TIP3   OH274323   6.801   5.976  12.173  0.0873 -0.0521 -0.3693
17611TIP3    H174324   6.849   5.904  12.213 -1.9497 -1.5373 -0.4519
17611TIP3    H274325   6.855   6.003  12.099  2.4732  0.7533  1.5601
17612TIP3   OH274326   4.500   5.734  15.388  0.0823 -0.1030 -0.2289
17612TIP3    H174327   4.499   5.671  15.316 -1.2582 -0.0509 -0.2773
17612TIP3    H274328   4.455   5.689  15.460  0.6789  0.1559  0.3209
17613TIP3   OH274329   1.891   4.256   2.654 -0.1393 -0.2903  0.4341
17613TIP3    H174330   1.910   4.333   2.707  1.0623  0.8781 -1.5741
17613TIP3    H274331   1.970   4.243   2.602 -0.9264 -1.9220 -0.4079
17614TIP3   OH274332   0.571   6.383   0.151  0.3676  0.1433  0.0569
17614TIP3    H174333   0.520   6.324   0.096 -0.5405  1.6075 -0.7285
17614TIP3    H274334   0.577   6.464   0.101 -1.7294  2.0684  2.5693
17615TIP3   OH274335   0.195   3.842   5.353 -0.1589 -0.5073 -0.1297
17615TIP3    H174336   0.126   3.778   5.366  0.5913 -0.9132  2.5114
17615TIP3    H274337   0.238   3.815   5.272 -1.9802 -1.2485 -0.9025
17616TIP3   OH274338   0.784   2.550  15.191  0.1004  0.0768  0.3178
17616TIP3    H174339   0.839   2.505  15.255  1.6422  1.1349 -0.1967
17616TIP3    H274340   0.820   2.638  15.187 -0.6286  0.3278 -1.2335
17617TIP3   OH274341   6.556   2.684   5.926 -0.1022  0.0617 -0.2981
17617TIP3    H174342   6.534   2.772   5.895  1.1690 -0.1793 -2.0380
17617TIP3    H274343   6.526   2.682   6.017  2.5146  3.3476  0.8478
17618TIP3   OH274344   4.039   5.413  15.294 -0.6362 -0.3521 -0.4695
17618TIP3    H174345   4.005   5.326  15.315 -0.6072 -0.0175  1.0866
17618TIP3    H274346   4.134   5.401  15.291 -0.6557 -0.4575 -0.6617
17619TIP3   OH274347   5.369   4.057  13.688 -0.1266 -0.0209 -0.5748
17619TIP3    H174348   5.291   4.043  13.742 -0.2937 -0.7559 -0.9873
17619TIP3    H274349   5.397   4.146  13.708 -0.0833 -0.3433  0.8426
17620TIP3   OH274350   4.985   0.405  15.478  0.2743 -0.6971  0.2661
17620TIP3    H174351   4.945   0.335  15.529  1.8384 -2.2069 -0.4396
17620TIP3    H274352   5.065   0.427  15.526  0.7552 -0.7475 -0.4885
17621TIP3   OH274353   2.703   3.113  13.191 -0.2156  0.1253 -0.4891
17621TIP3    H174354   2.742   3.062  13.120 -1.0510  0.4195 -1.1741
17621TIP3    H274355   2.723   3.063  13.270 -0.7825 -1.1281 -1.1129
17622TIP3   OH274356   0.053   6.253   2.236 -0.0771 -0.3788 -0.0474
17622TIP3    H174357   0.023   6.310   2.307  0.5678  0.2301 -0.2493
17622TIP3    H274358  -0.011   6.182   2.233 -1.2550  0.6601 -0.1923
17623TIP3   OH274359   4.393   5.637  16.708  0.4273 -0.1762  0.0534
17623TIP3    H174360   4.388   5.625  16.614 -0.4313 -1.2449  0.2212
17623TIP3    H274361   4.312   5.682  16.731  1.6211  2.1716  0.0241
17624TIP3   OH274362   2.518   5.005  13.998 -0.5162 -0.4285 -0.2150
17624TIP3    H174363   2.609   5.033  14.008  0.5743 -3.4043 -0.6258
17624TIP3    H274364   2.502   5.009  13.904 -0.8299  0.0618 -0.1460
17625TIP3   OH274365   0.996   1.662  16.633 -0.1269 -0.1187  0.0070
17625TIP3    H174366   0.943   1.636  16.708  2.2909 -1.4673  1.3896
17625TIP3    H274367   1.044   1.583  16.609  1.9571  1.2013 -0.4881
17626TIP3   OH274368   4.455   0.441  12.737 -0.2855  0.3070 -0.4072
17626TIP3    H174369   4.424   0.528  12.712 -0.8984 -0.0887 -1.0816
17626TIP3    H274370   4.388   0.381  12.703  0.1321 -0.4262  0.0350
17627TIP3   OH274371   4.587   2.033  16.286  0.5969  0.0655  0.0365
17627TIP3    H174372   4.646   1.957  16.292  1.2879  0.5656 -0.3413
17627TIP3    H274373   4.508   1.998  16.244  0.0449 -0.9286  1.7694
17628TIP3   OH274374   6.001   2.206  13.420  0.5821  0.2497  0.4211
17628TIP3    H174375   5.984   2.298  13.438  0.2667  0.0901  1.0106
17628TIP3    H274376   5.930   2.160  13.467  1.6348 -0.3648  1.4649
17629TIP3   OH274377   3.564   3.265   0.077 -0.2426 -0.5014 -0.2697
17629TIP3    H174378   3.650   3.302   0.060  0.8072 -2.3593  0.7461
17629TIP3    H274379   3.538   3.304   0.161  0.5898 -1.5729  0.4986
17630TIP3   OH274380   3.040   1.675   5.073  0.3202 -0.2259  0.2081
17630TIP3    H174381   3.062   1.597   5.123  1.3890 -0.4283 -0.5345
17630TIP3    H274382   2.974   1.645   5.010 -0.0882 -0.2691  0.6590
17631TIP3   OH274383   1.215   3.406   5.234  0.1079  0.0625 -0.0616
17631TIP3    H174384   1.172   3.436   5.314  1.1604  1.2619  0.1009
17631TIP3    H274385   1.290   3.355   5.264  0.8251  0.9782 -0.2466
17632TIP3   OH274386   3.149   1.158  14.314  0.2096  0.1728  0.0095
17632TIP3    H174387   3.196   1.076  14.300  1.4085  0.5152  1.7502
17632TIP3    H274388   3.161   1.177  14.407 -0.9480  1.7873 -0.1281
17633TIP3   OH274389   3.261   3.271   5.976  0.0360  0.0063  0.1466
17633TIP3    H174390   3.293   3.348   6.022 -0.7623  1.0942 -1.0663
17633TIP3    H274391   3.285   3.286   5.885  0.0835 -1.3056 -0.0752
17634TIP3   OH274392   6.273   2.855  14.341 -0.1523 -0.3666 -0.2263
17634TIP3    H174393   6.292   2.787  14.406  1.3900  1.7827  1.7344
17634TIP3    H274394   6.359   2.877  14.304 -0.6837  0.2542 -1.1322
17635TIP3   OH274395   6.553   5.321   0.880  0.0973 -0.1001 -0.2712
17635TIP3    H174396   6.635   5.278   0.905  1.4165  1.7173 -1.2731
17635TIP3    H274397   6.488   5.251   0.884  1.5399 -1.4637  1.1978
17636TIP3   OH274398   5.395   6.666   1.801 -0.2998 -0.2184 -0.5072
17636TIP3    H174399   5.309   6.653   1.841  0.1868 -0.2124  0.5660
17636TIP3    H274400   5.399   6.600   1.731 -0.3196 -1.7172  0.8495
17637TIP3   OH274401   5.137   4.576   4.393  0.0743  0.4992 -0.5797
17637TIP3    H174402   5.050   4.586   4.355 -0.2310  0.3056  0.0594
17637TIP3    H274403   5.167   4.490   4.362 -0.7665 -0.3070  0.7634
17638TIP3   OH274404   3.198   3.100   0.224  0.2224 -0.0864 -0.4382
17638TIP3    H174405   3.173   3.192   0.237  0.8780 -0.1535  1.6079
17638TIP3    H274406   3.162   3.078   0.138  0.7415  2.3106 -1.3479
17639TIP3   OH274407   6.498   5.200   4.256 -0.0712 -0.5169 -0.0799
17639TIP3    H174408   6.507   5.251   4.336  0.5119 -0.7860  0.0267
17639TIP3    H274409   6.577   5.219   4.206  0.5841 -1.9822  0.3457
17640TIP3   OH274410   3.019   2.349   4.078 -0.7160 -0.0608 -0.0599
17640TIP3    H174411   3.068   2.346   3.996 -0.5827  2.7217 -0.1888
17640TIP3    H274412   3.085   2.369   4.145 -0.8352 -2.2208  0.7900
17641TIP3   OH274413   1.219   4.003  15.824 -0.1475 -0.1921 -0.5302
17641TIP3    H174414   1.138   3.952  15.815 -1.0206  0.7939  1.2140
17641TIP3    H274415   1.204   4.080  15.769 -1.0823  0.7267  0.9375
17642TIP3   OH274416   3.715   6.558   0.713  0.1602  0.4026  0.6281
17642TIP3    H174417   3.647   6.620   0.738 -0.4431 -0.1046  0.3017
17642TIP3    H274418   3.741   6.516   0.795 -1.5476 -1.0018  0.5159
17643TIP3   OH274419   3.169   3.041   4.971  0.3490  0.0762 -0.3182
17643TIP3    H174420   3.099   3.032   4.906 -0.4043 -0.4453  0.5327
17643TIP3    H274421   3.207   2.953   4.978 -0.2018 -0.1076  0.6030
17644TIP3   OH274422   3.291   3.980   2.690 -0.1065 -0.3095  1.0923
17644TIP3    H174423   3.358   3.946   2.631  0.0197  1.5048  0.1055
17644TIP3    H274424   3.338   4.005   2.769  0.4719  1.1141  0.3406
17645TIP3   OH274425   3.493   2.718   1.397 -0.2643 -0.2232 -0.1431
17645TIP3    H174426   3.556   2.650   1.418  0.7524  0.6877 -0.1292
17645TIP3    H274427   3.420   2.672   1.355  0.7840 -1.2059 -0.9491
17646TIP3   OH274428   1.003   1.451  16.177 -0.3666  0.3649  0.1873
17646TIP3    H174429   0.935   1.478  16.238  0.9273 -0.1603  1.9275
17646TIP3    H274430   1.039   1.370  16.214  1.6089  0.9403 -0.3211
17647TIP3   OH274431   2.651   6.209  12.381  0.0447 -0.2855 -0.2801
17647TIP3    H174432   2.608   6.269  12.320 -0.3743  0.2039  0.4742
17647TIP3    H274433   2.723   6.171  12.331 -0.9118 -0.6988 -1.4056
17648TIP3   OH274434   2.748   6.165   4.468  0.0908  0.1813  0.2666
17648TIP3    H174435   2.656   6.140   4.464 -0.3703  1.9590 -2.5051
17648TIP3    H274436   2.795   6.087   4.439 -0.8739  0.4053 -2.1010
17649TIP3   OH274437   3.630   6.669  15.270  0.8264 -0.4136  0.3759
17649TIP3    H174438   3.725   6.665  15.263  0.8176 -0.1921  0.1286
17649TIP3    H274439   3.599   6.583  15.242  0.8373  0.1643 -1.5165
17650TIP3   OH274440   5.911   4.021  11.757  0.0332 -0.0911  0.1743
17650TIP3    H174441   5.979   3.958  11.730  0.7182  0.9001 -0.4828
17650TIP3    H274442   5.951   4.107  11.742 -1.7082  0.5347 -1.1531
17651TIP3   OH274443   6.037   0.290  13.670  0.6358  0.4243 -0.1865
17651TIP3    H174444   6.118   0.341  13.669 -0.0482  1.5626 -1.5095
17651TIP3    H274445   5.992   0.315  13.589 -1.9897  1.3716  1.4379
17652TIP3   OH274446   0.908   5.951   5.443  0.3897  0.2950 -0.0761
17652TIP3    H174447   0.948   5.882   5.496  1.6786  1.0349 -0.0527
17652TIP3    H274448   0.814   5.930   5.444  0.5036 -0.3196  1.5960
17653TIP3   OH274449   3.549   6.626  14.399  0.3571  0.0054 -0.1138
17653TIP3    H174450   3.511   6.702  14.442  0.9150 -1.8299  4.0277
17653TIP3    H274451   3.632   6.612  14.443  0.4276 -2.8126 -0.9530
17654TIP3   OH274452   5.166   2.767  13.905 -0.4872  0.6699  0.6290
17654TIP3    H174453   5.094   2.822  13.936 -0.8567  0.3269  0.3873
17654TIP3    H274454   5.200   2.814  13.829 -1.3907  0.1223 -0.1297
17655TIP3   OH274455   3.375   0.769  15.483 -0.4894  0.4418  0.4081
17655TIP3    H174456   3.455   0.748  15.531 -1.7031 -1.5304  1.6948
17655TIP3    H274457   3.398   0.755  15.391  1.0011  1.3239  0.6082
17656TIP3   OH274458   0.342   2.432  12.039  0.4339  0.2707  0.1950
17656TIP3    H174459   0.354   2.424  11.944  0.5886  3.5270 -0.1859
17656TIP3    H274460   0.314   2.523  12.051 -0.5038 -0.3279  3.2238
17657TIP3   OH274461   3.075   4.627  11.375 -0.3434 -0.0163 -0.0111
17657TIP3    H174462   3.013   4.660  11.310  2.5954  0.8728 -2.6021
17657TIP3    H274463   3.100   4.705  11.425  0.0597 -0.0075 -0.2258
17658TIP3   OH274464   0.567   4.103  11.501 -0.2710 -0.1135  0.3227
17658TIP3    H174465   0.633   4.125  11.436 -0.6511  0.2918  0.0724
17658TIP3    H274466   0.499   4.056  11.452 -0.5746  0.2227  0.4171
17659TIP3   OH274467   4.419   3.022  13.375 -0.0599 -0.2380  0.5139
17659TIP3    H174468   4.422   2.933  13.341 -1.7731 -1.0775  2.3635
17659TIP3    H274469   4.380   3.014  13.462  1.1407  2.1575  1.3838
17660TIP3   OH274470   6.116   4.313  11.022 -0.3274 -0.5110 -0.1622
17660TIP3    H174471   6.044   4.364  10.985 -1.0795 -1.1581  0.3762
17660TIP3    H274472   6.158   4.372  11.085 -0.2680 -0.0736 -0.6076
17661TIP3   OH274473   5.325   3.865  11.985 -0.2233  0.3234 -0.5613
17661TIP3    H174474   5.419   3.860  11.997 -0.6256 -1.0000  2.9720
17661TIP3    H274475   5.298   3.776  11.963 -0.6192  0.9249 -2.8047
17662TIP3   OH274476   0.309   2.939   1.134  0.0059 -0.1152  1.0127
17662TIP3    H174477   0.375   2.871   1.121  1.0750  1.1558 -0.6868
17662TIP3    H274478   0.336   2.985   1.213  1.7509  0.9592 -0.1496
17663TIP3   OH274479   2.988   4.736   2.870  0.2548 -0.2821  0.0195
17663TIP3    H174480   3.074   4.773   2.889  0.1378 -0.3254  0.6712
17663TIP3    H274481   2.937   4.753   2.949 -0.1146 -0.8971 -0.0804
17664TIP3   OH274482   0.186   3.071   3.088 -0.5556  0.3662 -0.0341
17664TIP3    H174483   0.159   3.091   3.177  0.1947  0.3866  0.1951
17664TIP3    H274484   0.240   3.146   3.061  1.3042 -0.7432  0.4181
17665TIP3   OH274485   6.770   6.663  12.006 -0.0297 -0.2285 -0.5110
17665TIP3    H174486   6.683   6.643  12.041 -0.0390  0.1243 -0.3344
17665TIP3    H274487   6.798   6.581  11.965 -0.3967 -0.3768 -0.4680
17666TIP3   OH274488   4.307   4.080  13.765  0.1748 -0.4493 -0.1596
17666TIP3    H174489   4.391   4.060  13.723  0.0416 -1.2740 -0.0488
17666TIP3    H274490   4.299   4.016  13.835 -0.0965  0.2485  0.4729
17667TIP3   OH274491   0.956   2.176   3.104  0.1698 -0.5631 -0.4262
17667TIP3    H174492   0.938   2.109   3.169 -0.3868 -0.4791 -0.4916
17667TIP3    H274493   0.871   2.217   3.086  0.2470 -0.8276 -1.4679
17668TIP3   OH274494   5.631   6.030   5.730 -0.3604 -0.7441  0.2148
17668TIP3    H174495   5.612   6.030   5.636  0.7914  0.9556 -0.0651
17668TIP3    H274496   5.558   6.077   5.770 -0.3948 -0.6572  0.0496
17669TIP3   OH274497   5.130   3.893  13.554 -0.1576 -0.3886  0.5562
17669TIP3    H174498   5.041   3.863  13.572 -0.9395 -0.4932 -2.7520
17669TIP3    H274499   5.122   3.988  13.541 -0.2081 -0.6115 -1.4074
17670TIP3   OH274500   5.092   6.438   4.423 -0.7702  0.0107 -0.2163
17670TIP3    H174501   5.007   6.399   4.400 -0.7380  1.0397 -2.3597
17670TIP3    H274502   5.156   6.381   4.381 -0.6664  1.5077 -2.2635
17671TIP3   OH274503   5.764   4.185  12.073  0.0204  0.5689  0.3828
17671TIP3    H174504   5.709   4.213  12.000  0.5679  0.1031 -0.2227
17671TIP3    H274505   5.779   4.092  12.057 -0.6209  0.2275  1.6039
17672TIP3   OH274506   5.982   1.354  17.185 -0.5918  0.2363  0.2803
17672TIP3    H174507   5.915   1.412  17.221 -0.3020  0.3768  0.6089
17672TIP3    H274508   5.939   1.269  17.178 -1.5529  0.8234 -1.8073
17673TIP3   OH274509   5.500   1.544   3.839  0.2607 -0.0681  0.3104
17673TIP3    H174510   5.479   1.517   3.929  1.3046 -1.1133  0.2671
17673TIP3    H274511   5.439   1.495   3.785  0.7927 -0.7999  0.3587
17674TIP3   OH274512   1.181   3.128   4.587  0.2624  0.3459 -0.3014
17674TIP3    H174513   1.257   3.104   4.640  0.0257  1.7854  0.7555
17674TIP3    H274514   1.186   3.071   4.510  1.2681 -0.9820  0.7087
17675TIP3   OH274515   2.873   1.168  11.535 -0.0855  0.3440 -0.8643
17675TIP3    H174516   2.900   1.121  11.614 -0.0803  0.7539 -0.6214
17675TIP3    H274517   2.807   1.230  11.566  0.7331  1.2930 -0.9917
17676TIP3   OH274518   4.355   2.593  16.264  0.0001  0.1566  0.6482
17676TIP3    H174519   4.264   2.566  16.247 -0.6620  0.2165  3.5611
17676TIP3    H274520   4.387   2.528  16.327  1.3052  1.2901  1.1911
17677TIP3   OH274521   6.748   3.499   1.459 -0.1067 -0.0096 -0.0878
17677TIP3    H174522   6.754   3.559   1.533  0.2738 -0.1418 -0.0109
17677TIP3    H274523   6.816   3.433   1.475  0.1924  0.1334 -0.7014
17678TIP3   OH274524   5.818   4.128   3.587  0.0983  0.4566  0.6475
17678TIP3    H174525   5.767   4.186   3.531 -0.3323  0.3030  0.8726
17678TIP3    H274526   5.876   4.081   3.528  0.8447  1.5072  0.5201
17679TIP3   OH274527   2.213   3.750   3.560  0.2358 -0.0725 -0.2697
17679TIP3    H174528   2.148   3.761   3.630  0.3220  0.0381 -0.2046
17679TIP3    H274529   2.297   3.765   3.604  0.5438 -2.7764  0.2348
17680TIP3   OH274530   1.660   3.969   5.955  0.0455  0.2730 -0.0632
17680TIP3    H174531   1.699   3.882   5.956  0.7285  0.5792  0.5395
17680TIP3    H274532   1.582   3.961   6.011 -0.1276 -0.0513 -0.3472
17681TIP3   OH274533   4.614   4.564  16.603 -0.3757  0.6308  0.3067
17681TIP3    H174534   4.523   4.585  16.584 -1.2534 -3.4296 -1.0455
17681TIP3    H274535   4.654   4.550  16.517  1.2829  1.3303  0.9215
17682TIP3   OH274536   1.477   1.070  14.114  0.2329  0.4037  0.0113
17682TIP3    H174537   1.526   1.152  14.121  0.2627  0.4954 -1.0466
17682TIP3    H274538   1.514   1.014  14.182  0.9230  0.9203  0.0734
17683TIP3   OH274539   3.711   2.335  16.719 -0.5514  0.5862  0.7837
17683TIP3    H174540   3.805   2.347  16.708 -0.5776  0.9690  0.9681
17683TIP3    H274541   3.703   2.266  16.785 -0.4006  0.6908  0.9137
17684TIP3   OH274542   1.386   4.564   0.003 -0.3867 -0.5835  0.1897
17684TIP3    H174543   1.364   4.493  -0.057  0.8652  0.5409 -1.7054
17684TIP3    H274544   1.353   4.535   0.088 -1.7102 -2.5034 -0.9118
17685TIP3   OH274545   4.822   1.477  12.490 -0.6345  0.2489 -0.0543
17685TIP3    H174546   4.757   1.537  12.526  0.9451  2.1553 -0.2180
17685TIP3    H274547   4.874   1.450  12.566  0.8172  1.8905 -0.4176
17686TIP3   OH274548   3.086   0.347  14.145 -0.2024 -0.1626  0.1718
17686TIP3    H174549   3.054   0.259  14.162 -0.4706 -0.0399  0.3177
17686TIP3    H274550   3.010   0.403  14.163  0.2455  0.1783  1.0132
17687TIP3   OH274551   4.688   5.570  10.431  0.0199  0.3200 -0.1443
17687TIP3    H174552   4.778   5.582  10.398 -0.6620  0.0674 -2.2508
17687TIP3    H274553   4.659   5.659  10.451  0.1227  0.6408 -1.2964
17688TIP3   OH274554   4.788   5.840  15.746  0.0977 -0.5914  0.3277
17688TIP3    H174555   4.736   5.919  15.760 -0.2848 -0.4142 -1.8093
17688TIP3    H274556   4.878   5.868  15.758 -0.0403  0.1701 -0.3699
17689TIP3   OH274557   4.721   3.472   5.428  0.3423 -0.3958 -0.2341
17689TIP3    H174558   4.757   3.554   5.395  1.8451 -1.0449 -0.2877
17689TIP3    H274559   4.752   3.466   5.518 -1.7171  0.1955  0.5562
17690TIP3   OH274560   5.812   3.635   2.526 -0.4959 -0.6294  0.0959
17690TIP3    H174561   5.793   3.651   2.433 -0.7880  1.7907  0.5209
17690TIP3    H274562   5.736   3.669   2.573 -0.4744 -2.0685  1.2572
17691TIP3   OH274563   3.878   2.668  13.979  0.3090  0.0830 -0.4435
17691TIP3    H174564   3.876   2.704  13.891 -0.4994 -0.8387 -0.8273
17691TIP3    H274565   3.934   2.590  13.972  0.5683  0.2285 -0.0454
17692TIP3   OH274566   5.568   0.518  13.061 -0.0851  0.3336  0.3006
17692TIP3    H174567   5.654   0.557  13.074  0.9306 -1.3018 -1.0618
17692TIP3    H274568   5.553   0.466  13.140  0.2951  0.3980  0.4161
17693TIP3   OH274569   5.727   5.957   3.366 -0.0950 -1.0756  0.2403
17693TIP3    H174570   5.639   5.973   3.331 -1.4830 -3.2935  2.4031
17693TIP3    H274571   5.771   6.041   3.358 -2.1071 -0.0796 -1.6476
17694TIP3   OH274572   6.401   3.984   2.622  0.1233  0.2226 -0.1062
17694TIP3    H174573   6.460   3.947   2.687  0.2716 -0.4242 -0.5985
17694TIP3    H274574   6.430   4.074   2.611  1.1123 -0.1344 -0.4592
17695TIP3   OH274575   5.386   6.470   5.917  0.4481  0.4412 -0.5000
17695TIP3    H174576   5.420   6.560   5.917  0.9800  0.2476 -0.1230
17695TIP3    H274577   5.366   6.452   6.009  0.9738 -0.0508 -0.4759
17696TIP3   OH274578   2.931   4.165  15.305  0.1169  0.9908 -0.0458
17696TIP3    H174579   3.025   4.173  15.290  0.2641  0.2223  0.3991
17696TIP3    H274580   2.892   4.233  15.250  0.6133 -1.3361 -3.5921
17697TIP3   OH274581   6.665   4.587   1.988 -0.5109 -0.2310 -0.3829
17697TIP3    H174582   6.721   4.649   2.034  1.6312 -0.6030 -2.3115
17697TIP3    H274583   6.645   4.630   1.905  0.6982 -1.8640 -1.5988
17698TIP3   OH274584   2.681   1.562   1.089  0.0653  0.1527  0.5428
17698TIP3    H174585   2.666   1.575   0.995  0.2054  0.8943  0.6172
17698TIP3    H274586   2.631   1.632   1.131 -0.0724 -0.2325  1.0288
17699TIP3   OH274587   0.507   5.202  14.965 -0.4761  0.2117 -0.0909
17699TIP3    H174588   0.550   5.250  14.894  1.1757  0.1949  0.8680
17699TIP3    H274589   0.478   5.121  14.924 -2.4238  1.5155 -1.4948
17700TIP3   OH274590   5.172   1.752  16.196 -0.0940 -0.3375  0.0402
17700TIP3    H174591   5.235   1.749  16.124  0.1547 -1.1143  0.2829
17700TIP3    H274592   5.087   1.739  16.155 -0.1359  0.9519 -0.3222
17701TIP3   OH274593   4.515   2.772  14.536 -0.8935  0.0159  0.3487
17701TIP3    H174594   4.517   2.824  14.456 -0.2217 -1.4311 -0.6199
17701TIP3    H274595   4.428   2.734  14.538 -1.6406  1.6728  1.4364
17702TIP3   OH274596   1.899   2.606  12.424  0.1266  0.2002  0.1212
17702TIP3    H174597   1.867   2.632  12.338 -1.1614 -2.3980 -0.2790
17702TIP3    H274598   1.823   2.566  12.467  1.2689 -0.4246  1.6509
17703TIP3   OH274599   2.985   1.981   4.314 -0.9402 -0.1835 -0.6188
17703TIP3    H174600   3.019   2.055   4.364  0.8628 -1.0580 -0.4801
17703TIP3    H274601   3.005   2.001   4.223 -0.2706 -0.5753 -0.5632
17704TIP3   OH274602   2.220   0.207  17.027  0.0283 -0.0883  0.5455
17704TIP3    H174603   2.131   0.210  16.993 -0.2523 -0.3715  1.2384
17704TIP3    H274604   2.246   0.115  17.017  0.6602  0.2152 -0.6968
17705TIP3   OH274605   6.702   3.101  13.355 -0.0890 -0.6125 -0.1855
17705TIP3    H174606   6.704   3.006  13.362  0.0481 -0.5390  1.0607
17705TIP3    H274607   6.613   3.125  13.378 -0.1491 -0.4475 -0.5916
17706TIP3   OH274608   5.344   2.511   2.140 -0.0299 -0.5927  0.6776
17706TIP3    H174609   5.275   2.551   2.193  0.4530 -1.0357  1.6742
17706TIP3    H274610   5.298   2.468   2.068 -0.6297  0.7980  0.2124
17707TIP3   OH274611   6.294   4.839  11.006  0.1591 -0.0220  0.2989
17707TIP3    H174612   6.319   4.880  11.089 -1.2991 -3.0241  2.4747
17707TIP3    H274613   6.357   4.871  10.942  2.9187  0.6425  3.0993
17708TIP3   OH274614   0.840   4.230   3.486 -0.2608  0.7056 -0.6308
17708TIP3    H174615   0.878   4.265   3.406 -0.3467  2.4517  0.0469
17708TIP3    H274616   0.762   4.284   3.502 -1.0035 -0.4865 -0.0892
17709TIP3   OH274617   1.004   5.077   0.169  0.0016  0.0862 -0.2257
17709TIP3    H174618   0.935   5.035   0.118 -0.8082  0.7920  0.2614
17709TIP3    H274619   0.989   5.171   0.156 -1.1482  0.3498  2.4565
17710TIP3   OH274620   3.750   5.211  13.986  0.0239  0.6383 -0.2536
17710TIP3    H174621   3.732   5.245  14.074  1.3465  0.2465  0.1935
17710TIP3    H274622   3.821   5.266  13.954  1.9922 -1.4187  0.3555
17711TIP3   OH274623   6.756   1.568   1.244  0.4114 -0.0824 -0.3804
17711TIP3    H174624   6.733   1.656   1.214 -0.1492 -0.7331 -1.9746
17711TIP3    H274625   6.808   1.582   1.323 -1.8519  1.6171  0.9348
17712TIP3   OH274626   1.709   6.791   1.576  0.0443 -0.4210 -0.4360
17712TIP3    H174627   1.695   6.857   1.508 -0.1116  0.8814  0.7998
17712TIP3    H274628   1.621   6.773   1.610  0.3000  0.5476  0.8259
17713TIP3   OH274629   6.141   2.879  11.523  0.0546  0.1505 -0.9907
17713TIP3    H174630   6.083   2.917  11.589  0.9859 -2.4579  1.4791
17713TIP3    H274631   6.119   2.927  11.442 -1.3431  3.2833  1.0434
17714TIP3   OH274632   6.173   2.138   4.385  0.0913 -0.2139 -0.8135
17714TIP3    H174633   6.084   2.153   4.355 -0.2816  1.4310  0.9226
17714TIP3    H274634   6.180   2.043   4.394 -2.2186 -0.2970  0.9552
17715TIP3   OH274635   5.726   2.382   5.593  0.2800  0.3284 -0.0934
17715TIP3    H174636   5.777   2.351   5.668 -1.3495  2.2120  1.9386
17715TIP3    H274637   5.722   2.477   5.605 -2.0692  0.4390 -1.1786
17716TIP3   OH274638   0.069   3.842  14.385 -0.1155 -0.4571  0.6697
17716TIP3    H174639   0.042   3.919  14.434  2.4435  0.0872  1.3712
17716TIP3    H274640   0.126   3.876  14.316 -3.1583 -1.2469 -2.5481
17717TIP3   OH274641   0.573   6.529   0.388  0.2342 -0.0718  0.2937
17717TIP3    H174642   0.585   6.464   0.318 -0.0543  0.5369 -0.3382
17717TIP3    H274643   0.483   6.560   0.376 -0.1482 -0.6392  1.5403
17718TIP3   OH274644   5.715   0.881  15.250 -0.0074 -0.1168 -0.4331
17718TIP3    H174645   5.677   0.842  15.329 -2.3936 -0.2228 -1.5387
17718TIP3    H274646   5.799   0.917  15.279  0.8844 -3.2274  1.3470
17719TIP3   OH274647   5.000   3.261  13.673 -0.1914 -0.3319  0.2296
17719TIP3    H174648   5.053   3.298  13.603 -0.1057 -0.6864  0.1063
17719TIP3    H274649   4.911   3.260  13.637 -0.5309  1.5373  0.9358
17720TIP3   OH274650   1.318   0.688  14.458 -0.5008  0.3093  0.0517
17720TIP3    H174651   1.276   0.726  14.535  0.9364  0.2582  0.8882
17720TIP3    H274652   1.297   0.594  14.463 -1.5232  0.5017 -0.3708
17721TIP3   OH274653   4.590   4.090  13.750 -0.0148 -0.0957  0.8681
17721TIP3    H174654   4.604   4.159  13.685  0.7734 -0.7511  0.3394
17721TIP3    H274655   4.581   4.138  13.833 -3.4036  0.9729  0.0734
17722TIP3   OH274656   3.598   1.258  11.463 -0.3194  0.4449 -0.2182
17722TIP3    H174657   3.644   1.310  11.398 -1.0845  2.0489  0.4816
17722TIP3    H274658   3.542   1.200  11.411  0.3876  0.4300 -0.9978
17723TIP3   OH274659   2.198   1.891   2.823  0.7766  0.3157 -0.3751
17723TIP3    H174660   2.144   1.816   2.800  0.7447  0.6987 -1.6531
17723TIP3    H274661   2.166   1.919   2.909 -0.5715  0.0993 -0.7844
17724TIP3   OH274662   2.608   0.454  16.192 -0.2022  0.0876 -0.2852
17724TIP3    H174663   2.527   0.422  16.153  0.2093 -1.2544 -0.0929
17724TIP3    H274664   2.584   0.539  16.230 -1.6625 -0.5180  0.2409
17725TIP3   OH274665   5.713   0.092   1.947 -0.0633 -0.0155  0.2929
17725TIP3    H174666   5.654   0.166   1.934  0.8154  0.4688 -1.1017
17725TIP3    H274667   5.712   0.077   2.042  0.2483  2.1922  0.6879
17726TIP3   OH274668   0.291   4.230  11.891 -0.5149  0.1065 -0.0353
17726TIP3    H174669   0.371   4.194  11.928 -1.6133 -1.4017  1.0340
17726TIP3    H274670   0.317   4.313  11.852  1.3024  0.2995  1.4537
17727TIP3   OH274671   3.050   4.515   0.255 -0.5936  0.5597  0.5951
17727TIP3    H174672   3.078   4.424   0.253 -0.5862  0.5593  0.7189
17727TIP3    H274673   2.998   4.526   0.176  3.0378  1.5990 -1.9151
17728TIP3   OH274674   1.896   6.508   3.377 -0.2329  0.0821  0.4807
17728TIP3    H174675   1.877   6.555   3.458 -0.3803 -1.4522  1.3667
17728TIP3    H274676   1.991   6.492   3.381 -0.5637 -1.9154  1.4714
17729TIP3   OH274677   5.971   3.096  14.884  0.0839  0.1832  0.1428
17729TIP3    H174678   6.002   3.008  14.862 -0.3335  0.2011 -0.5497
17729TIP3    H274679   6.045   3.138  14.928  0.7425 -0.0559 -0.7315
17730TIP3   OH274680   6.293   1.146   3.940  0.2187 -0.0948 -0.0213
17730TIP3    H174681   6.219   1.182   3.892  1.4417  0.4605 -1.6068
17730TIP3    H274682   6.265   1.144   4.031 -1.3845  1.0080 -0.4514
17731TIP3   OH274683   6.612   6.764   0.053  0.0569 -0.0205  0.0371
17731TIP3    H174684   6.607   6.859   0.062  2.0740  0.0525  0.7826
17731TIP3    H274685   6.598   6.730   0.141  1.4759 -0.2696  0.1937
17732TIP3   OH274686   5.862   3.948  14.846 -0.0034  0.1576  0.2375
17732TIP3    H174687   5.808   3.930  14.923 -0.1266 -0.5568  0.0005
17732TIP3    H274688   5.952   3.944  14.877  0.0558 -2.3007 -0.0159
17733TIP3   OH274689   3.299   5.002   0.180  0.4243 -0.2597 -0.2981
17733TIP3    H174690   3.339   4.915   0.182 -2.7594 -1.8567 -0.8073
17733TIP3    H274691   3.306   5.030   0.089 -1.0221 -1.2955 -0.7568
17734TIP3   OH274692   1.206   6.302  13.072  0.1120 -0.3777 -0.3667
17734TIP3    H174693   1.175   6.247  13.144  1.7654 -0.7655  0.0986
17734TIP3    H274694   1.195   6.392  13.104  0.1487 -0.5309  0.0842
17735TIP3   OH274695   6.715   4.012  12.537 -0.1564 -0.3560 -0.1369
17735TIP3    H174696   6.771   3.938  12.513 -0.7054 -1.1375  0.8520
17735TIP3    H274697   6.655   4.022  12.463  0.9542  0.1614 -0.9794
17736TIP3   OH274698   5.955   3.863   2.054 -0.9591  0.7225 -0.5603
17736TIP3    H174699   6.002   3.911   1.986 -0.0950  1.1839  0.3295
17736TIP3    H274700   5.950   3.924   2.127 -0.6236 -0.2243  0.2841
17737TIP3   OH274701   1.597   2.563   2.261  0.0436  1.1132 -0.3357
17737TIP3    H174702   1.539   2.627   2.304 -1.5359 -0.1386 -0.5336
17737TIP3    H274703   1.655   2.533   2.331 -0.3362  1.5003  0.1549
17738TIP3   OH274704   2.101   6.336  13.709 -0.3536 -0.1686  0.3584
17738TIP3    H174705   2.084   6.271  13.777  1.3339  1.3644  2.4134
17738TIP3    H274706   2.014   6.372  13.687 -1.4550 -3.5749 -1.5382
17739TIP3   OH274707   2.772   3.996  12.273 -0.1449 -0.3541 -0.3382
17739TIP3    H174708   2.766   3.907  12.238 -0.6048 -0.6436  0.4513
17739TIP3    H274709   2.864   4.006  12.297 -0.5656 -1.6309  2.0967
17740TIP3   OH274710   6.180   1.250   6.244 -0.3419  0.6629 -0.2118
17740TIP3    H174711   6.269   1.247   6.209 -0.6776  0.5598 -1.0958
17740TIP3    H274712   6.169   1.166   6.290 -0.5107 -0.0403 -1.4840
17741TIP3   OH274713   1.889   4.983   6.049 -0.2528  0.4005  0.2627
17741TIP3    H174714   1.869   4.889   6.051  1.2543  0.0373  0.0652
17741TIP3    H274715   1.952   4.995   6.120 -1.0500  1.4382  0.8154
17742TIP3   OH274716   1.235   5.953  12.940 -0.8794  0.6862  0.1050
17742TIP3    H174717   1.256   5.968  12.848 -0.2611  3.3106  0.5813
17742TIP3    H274718   1.146   5.987  12.951 -1.1771 -0.1545  0.3786
17743TIP3   OH274719   3.680   2.109   2.653  0.6793  0.3432 -0.4642
17743TIP3    H174720   3.709   2.100   2.562 -0.4041 -0.7169 -0.7296
17743TIP3    H274721   3.624   2.033   2.668  0.4288  0.7726  0.9433
17744TIP3   OH274722   1.760   1.993  10.493  0.1905 -0.3123  0.4536
17744TIP3    H174723   1.783   1.962  10.406 -1.5730  0.2202 -0.2494
17744TIP3    H274724   1.686   1.938  10.519  1.6527 -1.5354  2.3309
17745TIP3   OH274725   3.245   4.157  12.113 -0.2132  0.4457  0.1171
17745TIP3    H174726   3.258   4.063  12.127 -1.1259  0.2785 -0.0791
17745TIP3    H274727   3.239   4.166  12.018  2.0861  1.0372 -0.0481
17746TIP3   OH274728   2.508   0.499  11.765  0.0706 -0.3386  0.6525
17746TIP3    H174729   2.516   0.494  11.861 -0.7176  0.1462  0.7463
17746TIP3    H274730   2.414   0.506  11.749  0.1683 -0.8378 -0.1842
17747TIP3   OH274731   0.340   3.163  11.965 -0.3294  0.9299  0.5443
17747TIP3    H174732   0.430   3.143  11.938  0.7402  4.8390  0.6430
17747TIP3    H274733   0.288   3.144  11.887  1.0474  1.3757 -0.5366
17748TIP3   OH274734   2.044   0.166   0.782  0.1912 -0.4116  0.5983
17748TIP3    H174735   2.092   0.109   0.723  1.3677  1.0883  0.0509
17748TIP3    H274736   1.954   0.167   0.747  0.6168 -0.4087 -0.5393
17749TIP3   OH274737   4.031   3.425   0.495 -0.0326  0.7064  0.2204
17749TIP3    H174738   3.939   3.409   0.518 -0.6404 -0.1566 -2.4707
17749TIP3    H274739   4.047   3.368   0.420  3.1669 -0.1872  1.4451
17750TIP3   OH274740   4.690   4.737  13.930  0.1497  0.0877  0.4718
17750TIP3    H174741   4.656   4.696  14.010  1.6849 -1.2329  0.4975
17750TIP3    H274742   4.632   4.706  13.861 -0.7760  0.6790  0.9679
17751TIP3   OH274743   2.727   6.725   1.563  0.6327  0.1983 -0.2745
17751TIP3    H174744   2.742   6.641   1.519 -0.6403  0.8355 -2.0394
17751TIP3    H274745   2.641   6.715   1.604  0.7901  0.4216  0.1151
17752TIP3   OH274746   2.090   1.494   3.748  0.3013 -0.1903 -0.2029
17752TIP3    H174747   2.020   1.537   3.699 -0.8025  0.9225  2.1787
17752TIP3    H274748   2.045   1.456   3.824  1.6892 -3.1077 -0.6913
17753TIP3   OH274749   4.649   1.794  13.985 -0.0713  0.0055  0.9429
17753TIP3    H174750   4.741   1.776  13.965 -0.4957 -0.4693 -0.7058
17753TIP3    H274751   4.622   1.720  14.040  0.5580  0.2448  1.5995
17754TIP3   OH274752   6.409   1.080   4.690  0.1367  0.4018  0.1962
17754TIP3    H174753   6.423   1.085   4.784  2.2573 -0.1480 -0.0320
17754TIP3    H274754   6.437   1.165   4.656  1.9266 -0.2680 -0.1434
17755TIP3   OH274755   4.939   4.756  17.143  0.4355 -0.1028  0.1159
17755TIP3    H174756   4.919   4.835  17.193  1.1850 -0.1821  0.5456
17755TIP3    H274757   4.980   4.788  17.063  0.0632 -0.0271 -0.0516
17756TIP3   OH274758   4.606   2.492   3.662  0.3888  0.0442 -0.0703
17756TIP3    H174759   4.542   2.422   3.648  2.0141 -0.9823 -3.3097
17756TIP3    H274760   4.666   2.456   3.727 -0.5492 -0.2275  0.6749
17757TIP3   OH274761   5.530   3.044  17.213 -0.0270  0.1345  0.1560
17757TIP3    H174762   5.494   3.036  17.301 -0.6361  1.6967  0.0808
17757TIP3    H274763   5.454   3.055  17.156  0.4266  0.4712 -0.3974
17758TIP3   OH274764   0.354   6.229   4.614  0.2079  0.5272 -0.2974
17758TIP3    H174765   0.413   6.158   4.588 -0.1388  1.2819 -3.4260
17758TIP3    H274766   0.408   6.307   4.614 -0.3545  0.9351 -1.3384
17759TIP3   OH274767   5.869   0.688  16.566 -0.1642 -0.5970  0.6100
17759TIP3    H174768   5.885   0.710  16.474  0.2282 -1.3939  0.4830
17759TIP3    H274769   5.955   0.691  16.607  0.1691 -3.2285  0.2799
17760TIP3   OH274770   1.098   4.886  11.634  0.1868 -0.4370 -0.4220
17760TIP3    H174771   1.079   4.814  11.574  1.8430 -1.8282  0.6148
17760TIP3    H274772   1.080   4.850  11.721 -1.1139  1.1733  0.0115
17761TIP3   OH274773   6.085   1.949  14.308 -0.1745  0.0128  0.1024
17761TIP3    H174774   6.015   1.908  14.357  0.7753 -0.8955  0.7502
17761TIP3    H274775   6.041   2.000  14.240 -1.4885  0.6830  1.4171
17762TIP3   OH274776   0.585   4.046  15.026  0.4040  0.3552  0.0974
17762TIP3    H174777   0.652   4.023  15.090  1.2396  1.0258 -0.5105
17762TIP3    H274778   0.599   4.139  15.008 -0.4536  0.4146 -0.3196
17763TIP3   OH274779   6.802   4.747  12.429  0.2038  0.6910 -0.4158
17763TIP3    H174780   6.854   4.705  12.497  1.8096  1.9047 -0.8328
17763TIP3    H274781   6.741   4.679  12.399  1.3842 -0.7150  0.2573
17764TIP3   OH274782   5.482   1.122   3.512 -0.0445  0.7085 -0.1510
17764TIP3    H174783   5.462   1.087   3.425 -2.4871  1.3905  0.0763
17764TIP3    H274784   5.569   1.086   3.532  0.4046  0.1756 -2.6526
17765TIP3   OH274785   2.893   3.539  12.485  0.2399  0.6292 -0.1227
17765TIP3    H174786   2.986   3.547  12.464  0.4388  0.2234  0.5596
17765TIP3    H274787   2.872   3.447  12.466  0.0214  0.6839 -0.1431
17766TIP3   OH274788   2.478   4.666  14.082  0.4962  0.2577  0.0564
17766TIP3    H174789   2.393   4.698  14.052  0.2149  0.0631  0.6330
17766TIP3    H274790   2.537   4.686  14.009 -0.6158 -2.5194 -1.7905
17767TIP3   OH274791   0.861   6.300   3.767 -0.3152  0.0764 -0.2826
17767TIP3    H174792   0.939   6.338   3.728  1.3279 -2.6029  0.1697
17767TIP3    H274793   0.854   6.342   3.853  0.7440  0.2098 -0.2566
17768TIP3   OH274794   2.325   1.242  13.762 -0.1350 -0.2526  0.0723
17768TIP3    H174795   2.365   1.205  13.684  0.7607 -1.5209  1.0941
17768TIP3    H274796   2.263   1.176  13.792 -2.8420  1.4950 -1.2392
17769TIP3   OH274797   1.686   4.881   3.101 -0.2274 -0.3263 -0.0827
17769TIP3    H174798   1.661   4.957   3.154  0.3319  0.0977 -0.4287
17769TIP3    H274799   1.672   4.908   3.011  1.0592 -0.2297 -0.2653
17770TIP3   OH274800   5.591   4.682   1.805 -0.3546 -0.7236 -0.5461
17770TIP3    H174801   5.622   4.771   1.793 -0.2394 -0.9331 -1.9087
17770TIP3    H274802   5.497   4.691   1.822 -0.5034 -0.3825 -1.5083
17771TIP3   OH274803   4.430   5.970   5.418  0.2186  0.2457  0.2035
17771TIP3    H174804   4.411   6.002   5.506 -0.7462  0.2388  0.0150
17771TIP3    H274805   4.449   6.050   5.368 -0.2436  0.3525  0.1898
17772TIP3   OH274806   5.948   0.789   4.979  0.4564 -0.1031 -0.2892
17772TIP3    H174807   5.936   0.754   5.068 -2.7253 -1.1272 -1.0104
17772TIP3    H274808   5.911   0.877   4.984  1.9332  0.5601 -0.2498
17773TIP3   OH274809   5.208   3.246   2.113  0.3415 -0.1207 -0.1129
17773TIP3    H174810   5.139   3.300   2.153 -0.5503 -0.0652 -1.6460
17773TIP3    H274811   5.288   3.298   2.123 -0.1994  0.7196 -0.0533
17774TIP3   OH274812   3.217   2.993  12.840 -0.0558  0.2884 -0.0885
17774TIP3    H174813   3.193   3.007  12.932  0.0147 -0.9643  0.1395
17774TIP3    H274814   3.139   3.021  12.791 -0.5842 -0.2098  0.4380
17775TIP3   OH274815   3.189   1.126  16.693 -0.1137 -0.2383 -0.5035
17775TIP3    H174816   3.094   1.142  16.696  0.1168  1.6537 -1.8021
17775TIP3    H274817   3.198   1.032  16.710 -1.8757  0.1789  4.2713
17776TIP3   OH274818   4.326   0.571  14.390 -0.0758 -0.2131  0.0068
17776TIP3    H174819   4.244   0.617  14.376 -0.3203 -0.2820  1.1085
17776TIP3    H274820   4.377   0.628  14.447  0.3018 -0.5407  0.0062
17777TIP3   OH274821   3.508   1.127  11.926 -0.0530 -0.4064  0.2191
17777TIP3    H174822   3.471   1.052  11.972  0.1889  0.1417  1.3484
17777TIP3    H274823   3.508   1.101  11.834  0.9469 -2.2111  0.6640
17778TIP3   OH274824   5.540   4.883  11.525  0.4730 -0.9404  0.5470
17778TIP3    H174825   5.446   4.875  11.539  0.4792 -0.0613  1.1834
17778TIP3    H274826   5.549   4.946  11.453  0.5416 -2.7680 -1.1379
17779TIP3   OH274827   4.672   1.516   0.143 -0.3331 -0.3318  0.8351
17779TIP3    H174828   4.582   1.482   0.149 -0.0271 -1.2175  0.5112
17779TIP3    H274829   4.723   1.442   0.112  0.6391 -0.0351  1.6886
17780TIP3   OH274830   1.637   3.095   1.147  0.1995  0.5757 -0.0794
17780TIP3    H174831   1.665   3.181   1.115 -0.6576  0.7266 -0.4745
17780TIP3    H274832   1.655   3.096   1.241 -0.1538  1.3394 -0.0130
17781TIP3   OH274833   3.837   3.605   2.066  0.5478  0.5392  0.1508
17781TIP3    H174834   3.825   3.585   2.159 -3.2053 -0.3679 -0.4071
17781TIP3    H274835   3.834   3.521   2.022  0.9344  1.0707 -0.9322
17782TIP3   OH274836   2.948   4.637  16.545 -0.1350 -0.3783 -0.1028
17782TIP3    H174837   3.038   4.637  16.578 -1.0030 -1.6476  2.5619
17782TIP3    H274838   2.933   4.547  16.518 -1.0639 -0.5805  1.0111
17783TIP3   OH274839   6.492   1.152  12.437 -0.1681  0.8312 -0.1310
17783TIP3    H174840   6.482   1.224  12.500  0.9555  0.6870  0.2310
17783TIP3    H274841   6.492   1.073  12.491  1.3126  0.7341 -0.2411
17784TIP3   OH274842   2.612   3.177   1.342 -0.1367  0.0857 -0.1467
17784TIP3    H174843   2.581   3.126   1.267 -0.8015 -1.7890  1.3224
17784TIP3    H274844   2.647   3.257   1.303 -1.2036 -0.4401 -2.3819
17785TIP3   OH274845   2.408   5.609  17.133 -0.8059 -0.6665  0.4686
17785TIP3    H174846   2.454   5.654  17.204  0.9434  1.1956 -1.7219
17785TIP3    H274847   2.342   5.672  17.103  0.6647 -0.0460 -1.6442
17786TIP3   OH274848   1.503   1.745  11.639 -0.0855  0.3442 -0.1307
17786TIP3    H174849   1.459   1.678  11.587  1.4781  0.6244 -1.9284
17786TIP3    H274850   1.452   1.824  11.625  0.0433  0.3050 -0.8855
17787TIP3   OH274851   1.490   4.026  13.527  0.2801  0.0619  0.1962
17787TIP3    H174852   1.451   3.959  13.584 -0.0437  0.3740  0.3430
17787TIP3    H274853   1.473   4.109  13.572 -3.7606  0.8648 -2.2862
17788TIP3   OH274854   6.806   2.530   2.930 -0.1899  0.7704 -0.2348
17788TIP3    H174855   6.834   2.498   2.845 -1.1056  0.0037 -0.2622
17788TIP3    H274856   6.711   2.521   2.929 -0.1064 -0.9403  1.5075
17789TIP3   OH274857   0.139   6.541   2.526 -0.0373 -0.6918 -0.7128
17789TIP3    H174858   0.137   6.624   2.478  0.4702  1.3299  2.4837
17789TIP3    H274859   0.195   6.558   2.602 -0.9260 -3.5894  0.7451
17790TIP3   OH274860   5.928   4.204  16.539  0.2557  0.0879  0.0228
17790TIP3    H174861   5.931   4.172  16.629 -2.3165  0.2793  0.2583
17790TIP3    H274862   5.949   4.128  16.485 -1.6662 -0.9942  0.7148
17791TIP3   OH274863   2.379   4.042   6.016 -0.2936  0.2014  0.3518
17791TIP3    H174864   2.433   3.965   6.036  0.0453  0.5659  0.8450
17791TIP3    H274865   2.424   4.115   6.058 -0.7477  0.6378  0.0931
17792TIP3   OH274866   6.125   4.773   4.682 -0.0357  0.0297 -0.0125
17792TIP3    H174867   6.130   4.812   4.769  1.6252 -0.9375  0.3706
17792TIP3    H274868   6.117   4.679   4.698 -0.7534 -0.0734 -0.9101
17793TIP3   OH274869   5.966   5.971   3.127  0.5594  0.4703 -0.1190
17793TIP3    H174870   5.984   6.065   3.127  1.5101  0.3095 -1.2702
17793TIP3    H274871   6.042   5.932   3.172 -1.2610  0.4289  3.2379
17794TIP3   OH274872   5.861   0.847   5.609 -0.0561 -0.1772  0.3236
17794TIP3    H174873   5.787   0.786   5.609  0.5842 -0.9899  2.0232
17794TIP3    H274874   5.822   0.931   5.634 -0.5991 -0.3024 -0.0588
17795TIP3   OH274875   0.667   4.548   2.084  0.2716 -0.7257 -0.2454
17795TIP3    H174876   0.738   4.555   2.148  0.1587 -1.5670 -0.0059
17795TIP3    H274877   0.591   4.522   2.136 -0.3222  0.5693 -0.4439
17796TIP3   OH274878   6.792   1.854   1.848  0.0508 -0.2077  0.3211
17796TIP3    H174879   6.772   1.781   1.906 -0.3724 -0.7023 -0.4349
17796TIP3    H274880   6.717   1.860   1.789  0.5916  0.0993 -0.3562
17797TIP3   OH274881   2.096   5.180  13.535  0.0625 -0.5559 -0.2235
17797TIP3    H174882   2.030   5.111  13.531 -1.3979  0.8355 -0.8897
17797TIP3    H274883   2.093   5.210  13.626 -1.6196  0.7797 -0.6839
17798TIP3   OH274884   5.600   5.302  13.003 -0.0149 -0.2486  0.0902
17798TIP3    H174885   5.663   5.303  13.075  0.9990  3.1967 -0.6315
17798TIP3    H274886   5.629   5.231  12.946  3.3733  1.1372 -0.1864
17799TIP3   OH274887   2.677   6.401   2.833  0.1759  0.1248  0.1552
17799TIP3    H174888   2.731   6.337   2.878  0.5268  1.6457  2.0453
17799TIP3    H274889   2.738   6.451   2.780 -0.3534 -2.2425 -2.9346
17800TIP3   OH274890   5.207   3.032   4.568 -0.1209 -0.2319  0.7262
17800TIP3    H174891   5.192   3.104   4.630 -0.8479 -1.1674  1.6642
17800TIP3    H274892   5.268   2.973   4.613  2.2537  0.7940 -0.8873
17801TIP3   OH274893   0.584   5.538  10.942  0.1624 -0.9714  0.3949
17801TIP3    H174894   0.542   5.616  10.978  0.9516 -0.6480  0.6279
17801TIP3    H274895   0.537   5.521  10.860  0.0804 -0.1643  0.2651
17802TIP3   OH274896   3.008   0.970   4.786  0.0706  0.5282  0.3673
17802TIP3    H174897   3.065   0.897   4.813 -1.3640 -1.0654 -0.7318
17802TIP3    H274898   3.004   0.964   4.691 -3.4917 -0.7322  0.4532
17803TIP3   OH274899   0.558   5.504  11.321  0.0326  0.0717  0.4204
17803TIP3    H174900   0.606   5.435  11.276 -0.5439  1.1355 -1.9976
17803TIP3    H274901   0.614   5.529  11.394  2.0246 -0.4075 -0.8726
17804TIP3   OH274902   0.283   1.316  10.544  0.3690  0.0446  0.3653
17804TIP3    H174903   0.199   1.273  10.529 -0.5115  1.7575  0.0917
17804TIP3    H274904   0.276   1.399  10.497  2.7781 -0.3654 -0.9124
17805TIP3   OH274905   5.302   3.704   0.790  0.4631  0.2419 -0.2123
17805TIP3    H174906   5.223   3.660   0.759 -0.1318  0.8581  0.3985
17805TIP3    H274907   5.373   3.661   0.743 -0.2827  0.1572 -1.3076
17806TIP3   OH274908   5.153   6.357  15.505 -0.4913 -0.1752  0.0277
17806TIP3    H174909   5.187   6.331  15.419  1.2722  0.1330  0.5890
17806TIP3    H274910   5.097   6.284  15.532 -3.0254  0.7156 -2.3398
17807TIP3   OH274911   2.029   1.202   2.820  0.1257 -0.5077  0.7078
17807TIP3    H174912   1.955   1.247   2.779  0.5008  0.5594  1.1761
17807TIP3    H274913   2.001   1.189   2.911  2.2596  4.4110  2.4121
17808TIP3   OH274914   2.561   5.774   0.899  0.0723  0.9928  0.2315
17808TIP3    H174915   2.498   5.839   0.931 -1.0986 -0.5338  1.1569
17808TIP3    H274916   2.508   5.712   0.849  1.1820  0.7456 -0.6837
17809TIP3   OH274917   2.696   5.321  15.020  0.3387  0.3446 -0.7978
17809TIP3    H174918   2.630   5.334  15.088  0.8478  1.4002 -0.4735
17809TIP3    H274919   2.651   5.340  14.938  0.4067  1.8630 -0.5194
17810TIP3   OH274920   6.369   1.923   2.211  0.6456 -0.8508 -0.2083
17810TIP3    H174921   6.293   1.874   2.242 -0.1238 -0.3460 -1.2433
17810TIP3    H274922   6.343   2.015   2.219  1.0985 -0.6736 -0.6942
17811TIP3   OH274923   2.163   0.018   3.793  0.3766 -0.0587  0.2399
17811TIP3    H174924   2.186  -0.062   3.745  0.5261  0.0153  0.1865
17811TIP3    H274925   2.189   0.000   3.883 -1.0322 -0.6665  0.5515
17812TIP3   OH274926   6.249   3.090   3.634  0.3115  0.2943 -0.3502
17812TIP3    H174927   6.166   3.045   3.618 -0.2371  1.4941 -0.9485
17812TIP3    H274928   6.311   3.049   3.574  0.2039 -0.7039  0.1996
17813TIP3   OH274929   0.221   2.069   3.823  0.1645  0.4506 -0.2373
17813TIP3    H174930   0.291   2.095   3.883 -0.8138  2.3869  0.1441
17813TIP3    H274931   0.180   1.993   3.865  1.3006  0.0212  0.1088
17814TIP3   OH274932   5.910   2.863  12.494 -0.1185  0.0335 -0.0665
17814TIP3    H174933   5.959   2.817  12.562 -0.5940  2.2241  1.8583
17814TIP3    H274934   5.841   2.800  12.469  1.7271 -1.8887 -0.6437
17815TIP3   OH274935   3.560   4.549   3.381  0.1863 -0.2076  0.7890
17815TIP3    H174936   3.524   4.461   3.396  1.5167 -1.3496 -1.9297
17815TIP3    H274937   3.655   4.535   3.379  0.4234  1.3316  0.4442
17816TIP3   OH274938   5.209   0.952   6.390  0.0141  0.3411  0.0225
17816TIP3    H174939   5.187   1.043   6.409  0.4211  0.7164 -1.1979
17816TIP3    H274940   5.126   0.904   6.400 -0.4836  1.0594 -0.5237
17817TIP3   OH274941   3.793   3.683  11.894  0.0193  0.6076  0.1317
17817TIP3    H174942   3.816   3.666  11.985 -2.5316 -0.3221  0.6821
17817TIP3    H274943   3.833   3.611  11.845 -0.5533 -0.2196  0.8553
17818TIP3   OH274944   3.253   3.044   4.153  0.6594  0.0340  0.1888
17818TIP3    H174945   3.268   2.949   4.151 -0.7130 -0.1983 -0.9501
17818TIP3    H274946   3.171   3.056   4.105  0.3518  1.7279  1.0653
17819TIP3   OH274947   1.626   3.690   5.900 -0.8121  0.3383  0.5822
17819TIP3    H174948   1.602   3.677   5.809  0.7963  0.0441  0.1638
17819TIP3    H274949   1.543   3.692   5.947 -1.5989 -1.6194 -0.5949
17820TIP3   OH274950   0.208   1.371   3.241 -0.0321 -0.9108  0.5728
17820TIP3    H174951   0.300   1.348   3.224 -0.1351 -2.2109  1.6196
17820TIP3    H274952   0.173   1.296   3.289 -1.6972 -0.5019  0.0705
17821TIP3   OH274953   0.383   6.654   4.824 -0.3620 -0.4637  0.6199
17821TIP3    H174954   0.334   6.687   4.900 -1.2001  0.0377 -0.1183
17821TIP3    H274955   0.420   6.571   4.855  1.4027  0.8699  2.3602
17822TIP3   OH274956   5.656   3.028   3.155 -0.3364 -0.1970  0.0272
17822TIP3    H174957   5.568   2.991   3.147 -1.6438  1.9906  2.6566
17822TIP3    H274958   5.679   3.017   3.247  1.2099  1.2018 -0.1431
17823TIP3   OH274959   4.041   2.851  12.138  0.1037 -0.3562 -0.5988
17823TIP3    H174960   4.122   2.902  12.127 -1.0799  1.5411 -0.9874
17823TIP3    H274961   4.030   2.844  12.233  0.4380 -0.1385 -0.5416
17824TIP3   OH274962   6.234   0.416  12.070 -0.0061  0.7769 -0.6790
17824TIP3    H174963   6.138   0.411  12.064  0.0155  0.4952 -0.7863
17824TIP3    H274964   6.265   0.358  12.001  0.2386 -0.6353  0.5436
17825TIP3   OH274965   4.001   0.296   5.096 -0.0810  0.3433 -0.1690
17825TIP3    H174966   3.981   0.206   5.069  0.6134 -0.2495  1.1681
17825TIP3    H274967   4.000   0.293   5.192 -0.1679  1.8021 -0.0982
17826TIP3   OH274968   4.630   0.280   2.366 -0.1948  0.9039 -0.5081
17826TIP3    H174969   4.588   0.289   2.281 -1.9934  0.8309  0.3340
17826TIP3    H274970   4.673   0.364   2.381 -0.8246  1.3137 -0.9884
17827TIP3   OH274971   0.530   2.843  13.896  0.1982 -0.0137  0.2561
17827TIP3    H174972   0.601   2.870  13.954  1.0241 -2.6679  0.6249
17827TIP3    H274973   0.456   2.827  13.955  0.3959 -0.6876  0.3245
17828TIP3   OH274974   0.219   4.296   1.636  0.2040  0.3360 -0.3982
17828TIP3    H174975   0.151   4.265   1.577 -0.5752  1.0792  0.0864
17828TIP3    H274976   0.285   4.335   1.579 -0.9688  1.8969 -0.7760
17829TIP3   OH274977   4.763   4.980   6.701  0.0026  0.4561  0.0588
17829TIP3    H174978   4.696   4.966   6.634 -2.4160  2.2964  1.8974
17829TIP3    H274979   4.732   4.931   6.777  1.3873  0.4281  0.6447
17830TIP3   OH274980   1.489   2.009  16.316  0.0371 -0.2861  0.1624
17830TIP3    H174981   1.440   1.985  16.238 -2.1740  0.5160  1.2194
17830TIP3    H274982   1.576   2.034  16.284 -1.3971  1.9192 -2.2678
17831TIP3   OH274983   0.823   2.889  12.312  0.2141 -0.0084 -0.5327
17831TIP3    H174984   0.778   2.823  12.363  0.5122 -1.9344 -2.6063
17831TIP3    H274985   0.784   2.883  12.224  2.2288  0.5333 -1.5338
17832TIP3   OH274986   4.877   1.374   0.066 -0.3687 -0.4324  0.1126
17832TIP3    H174987   4.956   1.409   0.108 -0.3061 -0.0709 -0.3004
17832TIP3    H274988   4.909   1.309   0.003 -0.4001 -0.3140 -0.0269
17833TIP3   OH274989   0.931   4.820   3.954 -0.4048  0.0619  0.2733
17833TIP3    H174990   0.980   4.797   3.875 -0.2519 -0.8861  0.6274
17833TIP3    H274991   0.922   4.915   3.950 -2.3357 -0.1158 -2.0180
17834TIP3   OH274992   2.281   5.641   0.865  0.0973  0.9136 -0.1716
17834TIP3    H174993   2.293   5.712   0.928 -1.4637  0.0533  1.1571
17834TIP3    H274994   2.272   5.686   0.781 -0.3503  2.2719  0.5654
17835TIP3   OH274995   4.450   4.141   4.454 -0.0375 -0.4716  0.4699
17835TIP3    H174996   4.409   4.137   4.368  1.4862 -0.5264 -0.2874
17835TIP3    H274997   4.492   4.056   4.465 -1.0837 -0.8585  1.7429
17836TIP3   OH274998   4.429   2.531  13.638  0.0755 -0.4892 -0.3844
17836TIP3    H174999   4.496   2.471  13.669 -1.5981 -1.9857  0.4462
17836TIP3    H275000   4.477   2.593  13.583  2.0894 -1.6387 -0.0138
17837TIP3   OH275001   5.656   1.215  10.541  0.2721 -0.2475  0.6354
17837TIP3    H175002   5.751   1.214  10.532  0.2640 -0.1565  0.5395
17837TIP3    H275003   5.636   1.135  10.590  0.2536 -1.1720 -0.8139
17838TIP3   OH275004   0.396   1.270   0.529 -0.8570  0.4525  0.0924
17838TIP3    H175005   0.484   1.304   0.514 -1.0911  1.7534  1.3757
17838TIP3    H275006   0.395   1.247   0.622 -1.4086 -1.0477 -0.2624
17839TIP3   OH275007   6.507   6.391  14.206  0.2623 -0.3979 -0.5835
17839TIP3    H175008   6.540   6.405  14.295 -1.4966 -2.0091  0.3829
17839TIP3    H275009   6.563   6.447  14.151  1.3490  0.7004  1.5097
17840TIP3   OH275010   0.788   5.140  15.391 -0.5311  0.3617 -0.0966
17840TIP3    H175011   0.727   5.106  15.457  0.1522 -1.4725 -0.3389
17840TIP3    H275012   0.732   5.179  15.325 -1.3118  0.8008  0.7917
17841TIP3   OH275013   5.943   6.729  12.428  0.4281  0.1538 -0.3502
17841TIP3    H175014   6.007   6.658  12.428  0.0342 -0.2214  0.9756
17841TIP3    H275015   5.980   6.795  12.486  0.6552  0.9166 -1.3475
17842TIP3   OH275016   0.636   4.657   2.845 -0.8031  0.1991 -0.7278
17842TIP3    H175017   0.708   4.626   2.790  1.1690 -1.9522  2.6950
17842TIP3    H275018   0.567   4.592   2.835 -0.2730 -0.4320 -0.3992
17843TIP3   OH275019   0.014   4.845  13.838 -0.2307 -0.2117  0.7455
17843TIP3    H175020   0.023   4.760  13.795 -1.2057 -0.0735  0.2386
17843TIP3    H275021   0.083   4.899  13.799  2.0484 -1.4321  2.8533
17844TIP3   OH275022   4.988   3.579  14.948  0.3907 -0.6435  0.4320
17844TIP3    H175023   5.059   3.641  14.962  0.9542 -0.8855 -1.1823
17844TIP3    H275024   4.929   3.623  14.887  0.3275 -1.3303 -0.0127
17845TIP3   OH275025   2.238   6.825   0.937 -0.2535 -0.4991 -0.0556
17845TIP3    H175026   2.290   6.801   1.013 -1.2980 -0.8040  0.5853
17845TIP3    H275027   2.155   6.779   0.949 -1.6133  1.8838  0.2315
17846TIP3   OH275028   2.199   5.731  16.975  0.5633  0.2052 -0.2269
17846TIP3    H175029   2.253   5.804  16.945  1.2006  0.6613  1.8576
17846TIP3    H275030   2.133   5.771  17.031  0.4330 -0.7266  0.3198
17847TIP3   OH275031   2.503   5.649  15.696  0.1417  0.4901 -0.1519
17847TIP3    H175032   2.577   5.701  15.727  0.5498  0.5355 -1.1412
17847TIP3    H275033   2.524   5.631  15.604 -0.9501  0.2773 -0.3717
17848TIP3   OH275034   4.347   4.468   4.027  0.1159  0.1196 -0.4790
17848TIP3    H175035   4.345   4.563   4.036 -0.4492  0.0231  0.6035
17848TIP3    H275036   4.369   4.453   3.935 -0.0767  1.2895 -0.7315
17849TIP3   OH275037   2.469   1.367   2.159 -0.1477 -0.2788 -0.3779
17849TIP3    H175038   2.429   1.417   2.230  2.5471 -0.8074  1.6956
17849TIP3    H275039   2.422   1.394   2.080 -2.2610  1.4983  1.3702
17850TIP3   OH275040   5.630   1.630  17.009  0.4494 -0.1107  0.7014
17850TIP3    H175041   5.708   1.638  16.955  0.8552 -1.4860  1.0370
17850TIP3    H275042   5.583   1.713  16.997  1.0977  0.0659 -0.8502
17851TIP3   OH275043   3.382   2.084   4.093 -0.6315  0.0727 -0.4137
17851TIP3    H175044   3.443   2.055   4.026  3.0524  0.8057  2.3405
17851TIP3    H275045   3.401   2.177   4.104 -2.7158  0.4782  0.2091
17852TIP3   OH275046   1.546   5.473  13.877  0.5927 -0.7520  0.5333
17852TIP3    H175047   1.537   5.502  13.787  2.8268 -0.1483  0.4647
17852TIP3    H275048   1.640   5.473  13.894  0.4938 -3.8748  1.8832
17853TIP3   OH275049   1.256   5.455  10.924  0.6204  0.2882 -0.0147
17853TIP3    H175050   1.177   5.409  10.898  1.4668 -0.5528 -1.1979
17853TIP3    H275051   1.243   5.476  11.017 -1.0598  0.3680 -0.2475
17854TIP3   OH275052   6.657   5.716   2.080 -0.7494 -0.3633 -0.0513
17854TIP3    H175053   6.667   5.693   2.173  1.7538  1.3688  0.1978
17854TIP3    H275054   6.698   5.643   2.033 -2.2224 -1.3575  0.1204
17855TIP3   OH275055   0.142   3.890  15.488 -0.4381 -0.8099  0.2393
17855TIP3    H175056   0.107   3.836  15.417 -1.6420  0.5949 -0.3012
17855TIP3    H275057   0.228   3.919  15.457 -0.4795 -1.1109 -0.1609
17856TIP3   OH275058   6.657   2.356   1.832 -0.1155  0.2467 -0.0557
17856TIP3    H175059   6.690   2.279   1.786 -0.9259 -0.7223  0.9378
17856TIP3    H275060   6.722   2.424   1.814 -0.1637 -0.1872 -2.2424
17857TIP3   OH275061   1.088   4.322   1.779 -0.4104  0.4163 -0.6651
17857TIP3    H175062   1.069   4.232   1.803  0.8469 -0.4082 -2.4658
17857TIP3    H275063   1.031   4.340   1.704  0.2049  0.6739 -1.0840
17858TIP3   OH275064   3.932   0.226  14.135  0.0440  0.1796  0.5052
17858TIP3    H175065   3.931   0.216  14.231 -0.9173 -1.3101  0.3703
17858TIP3    H275066   3.851   0.185  14.106  1.3646 -1.4319 -1.1179
17859TIP3   OH275067   5.692   4.250  16.839 -0.3568 -0.3077 -0.1183
17859TIP3    H175068   5.681   4.305  16.762  2.6037 -0.1402 -0.5273
17859TIP3    H275069   5.629   4.284  16.903 -0.7335  1.5408 -1.4160
17860TIP3   OH275070   3.651   4.026  11.277  0.1739 -0.8138  0.0453
17860TIP3    H175071   3.564   4.035  11.240 -0.6716  0.7814  2.2401
17860TIP3    H275072   3.644   3.949  11.335  0.4508 -1.1121 -0.3103
17861TIP3   OH275073   2.102   0.712   5.461  0.4078  0.4288 -0.4349
17861TIP3    H175074   2.130   0.621   5.452 -0.6420 -0.0261  0.6396
17861TIP3    H275075   2.163   0.751   5.523  0.8027  0.4418 -0.8278
17862TIP3   OH275076   6.797   2.632  15.884 -0.6400  0.5587 -0.0921
17862TIP3    H175077   6.775   2.549  15.925  0.8613 -0.7899 -1.8179
17862TIP3    H275078   6.738   2.638  15.809  0.0385  0.4017 -0.6611
17863TIP3   OH275079   1.447   3.838  10.721  0.1178 -0.6323 -0.4133
17863TIP3    H175080   1.431   3.890  10.642 -0.1492 -0.8073 -0.4741
17863TIP3    H275081   1.534   3.800  10.708 -0.3965 -1.6031 -1.1455
17864TIP3   OH275082   4.102   5.430   0.747 -0.4225 -0.2605  0.0890
17864TIP3    H175083   4.024   5.423   0.803 -1.1684  0.1104 -0.8777
17864TIP3    H275084   4.165   5.478   0.801 -1.3534  0.6546  0.4127
17865TIP3   OH275085   1.017   2.695   1.145 -0.0152  0.1917  0.1361
17865TIP3    H175086   0.998   2.761   1.078  0.4175  0.2415  0.0605
17865TIP3    H275087   1.013   2.612   1.098 -0.1749  0.1921  0.1484
17866TIP3   OH275088   2.022   6.152   5.316  0.3152  0.1795  0.3070
17866TIP3    H175089   1.952   6.161   5.382  2.6735 -0.2774  3.0844
17866TIP3    H275090   2.013   6.229   5.261 -3.1933 -0.5532 -0.3966
17867TIP3   OH275091   0.334   2.668   5.571  0.5126 -0.8116 -0.5688
17867TIP3    H175092   0.262   2.614   5.603  1.0336 -2.6918 -2.3770
17867TIP3    H275093   0.406   2.607   5.555  1.6072  0.6050 -1.3876
17868TIP3   OH275094   6.555   4.326   2.804 -0.3190 -0.1875 -0.8145
17868TIP3    H175095   6.548   4.382   2.727  0.4079  1.7240  0.4468
17868TIP3    H275096   6.649   4.310   2.813 -0.4893 -1.4101 -0.9816
17869TIP3   OH275097   5.833   4.826  17.141 -0.4813 -0.1943 -0.6786
17869TIP3    H175098   5.875   4.769  17.206 -0.6543  2.2419  1.7717
17869TIP3    H275099   5.739   4.808  17.151 -0.6541  1.3954  1.1422
17870TIP3   OH275100   6.787   4.849   0.760 -0.2476  0.3806 -0.0879
17870TIP3    H175101   6.722   4.901   0.806  1.4502  0.8771  1.8956
17870TIP3    H275102   6.833   4.801   0.829  0.3364 -1.3009 -1.5819
17871TIP3   OH275103   6.791   3.473   4.459 -0.4705  0.7216 -0.0478
17871TIP3    H175104   6.773   3.433   4.544 -0.3862  1.0233  0.1097
17871TIP3    H275105   6.824   3.400   4.405 -0.6962  0.4927  0.1206
17872TIP3   OH275106   6.546   2.078  12.605 -0.1785  0.2611  0.2159
17872TIP3    H175107   6.551   1.991  12.565  0.6760 -0.0629  0.9991
17872TIP3    H275108   6.510   2.063  12.692 -0.1032  0.7125  0.3291
17873TIP3   OH275109   4.476   0.267  13.224 -0.0981 -0.7966 -0.3680
17873TIP3    H175110   4.400   0.277  13.166 -0.6153 -1.2567  0.2070
17873TIP3    H275111   4.521   0.189  13.191  0.4310 -0.2198 -1.0331
17874TIP3   OH275112   3.703   1.213   6.537  0.0250  0.1766  0.6319
17874TIP3    H175113   3.756   1.287   6.567  1.0925 -1.3727  2.8415
17874TIP3    H275114   3.732   1.140   6.591 -2.3121 -1.4416 -0.1669
17875TIP3   OH275115   0.056   3.334  12.255  0.1004 -0.3335 -0.2049
17875TIP3    H175116   0.026   3.370  12.171  3.0981  1.6478 -0.5447
17875TIP3    H275117   0.125   3.272  12.231  2.0785  1.3968  0.7789
17876TIP3   OH275118   3.818   2.235  11.558 -0.2003 -0.2027 -0.3141
17876TIP3    H175119   3.911   2.214  11.554 -0.1749  0.0760 -1.6024
17876TIP3    H275120   3.812   2.324  11.522 -0.8258  0.2497  0.8814
17877TIP3   OH275121   6.091   3.638   5.161 -0.4846 -0.3611 -0.0288
17877TIP3    H175122   6.022   3.650   5.096 -1.2117  0.5056  0.8699
17877TIP3    H275123   6.089   3.719   5.213  1.2034 -0.3128  0.0269
17878TIP3   OH275124   3.872   4.485  15.995 -0.2721  0.3878  0.0135
17878TIP3    H175125   3.799   4.535  16.032 -0.0534  0.6503  0.0937
17878TIP3    H275126   3.832   4.430  15.928 -0.5742  0.3859  0.1921
17879TIP3   OH275127   1.132   3.799  13.519 -0.0013 -0.4700 -0.6688
17879TIP3    H175128   1.090   3.885  13.527 -0.4108 -0.4900 -2.3124
17879TIP3    H275129   1.093   3.747  13.590 -1.1449  0.1652 -0.8088
17880TIP3   OH275130   6.188   5.350   0.752  0.4964  0.0507 -0.2281
17880TIP3    H175131   6.236   5.364   0.833 -1.8642 -0.0018  1.2882
17880TIP3    H275132   6.200   5.431   0.702  0.0659  1.0674  1.2515
17881TIP3   OH275133   5.265   3.390  14.654  0.5174  0.3592 -0.6389
17881TIP3    H175134   5.347   3.357  14.616  1.2670  2.6309 -1.1593
17881TIP3    H275135   5.227   3.445  14.585 -1.4569 -0.6174 -0.3804
17882TIP3   OH275136   0.125   2.313  14.352  0.4257 -0.7630 -0.2805
17882TIP3    H175137   0.032   2.296  14.369  0.5475 -1.3770 -0.2206
17882TIP3    H275138   0.167   2.228  14.361  1.2179 -0.2575  1.1275
17883TIP3   OH275139   1.406   3.396  16.514 -0.1708 -0.5389  0.0266
17883TIP3    H175140   1.500   3.382  16.510 -0.2436 -0.9311 -0.4195
17883TIP3    H275141   1.388   3.460  16.445 -0.1739 -0.1087  0.4172
17884TIP3   OH275142   2.502   1.471  11.943 -0.2263 -0.3886  0.4233
17884TIP3    H175143   2.498   1.433  11.856 -0.4649 -0.6903  0.5634
17884TIP3    H275144   2.451   1.552  11.935 -1.9101 -1.3625  0.7450
17885TIP3   OH275145   1.853   5.273  16.398  0.4580  0.2662 -0.0835
17885TIP3    H175146   1.914   5.295  16.327  1.4272  1.3462  1.0269
17885TIP3    H275147   1.865   5.179  16.411  0.4785  0.1069 -1.1518
17886TIP3   OH275148   3.308   3.834   2.016 -0.4740  0.6296 -0.3352
17886TIP3    H175149   3.366   3.902   2.049  1.3601 -2.0287  2.5160
17886TIP3    H275150   3.241   3.825   2.084  0.7100 -1.8799  0.6271
17887TIP3   OH275151   3.617   1.292  12.983  0.4464 -0.6641  0.2884
17887TIP3    H175152   3.633   1.247  12.900 -1.5103  1.4834 -1.3641
17887TIP3    H275153   3.548   1.241  13.025 -0.7340 -0.0740 -0.8880
17888TIP3   OH275154   1.107   6.628   2.749 -0.4298  0.3329 -0.3120
17888TIP3    H175155   1.038   6.685   2.715  0.5921  1.2603 -0.9408
17888TIP3    H275156   1.109   6.554   2.689 -1.6964 -0.3511  0.4437
17889TIP3   OH275157   6.442   3.308   1.151  0.2545 -0.6213 -0.3834
17889TIP3    H175158   6.405   3.394   1.136  0.5788 -0.3637  0.2972
17889TIP3    H275159   6.537   3.322   1.154  0.2637 -0.8345  0.7726
17890TIP3   OH275160   1.979   5.189  15.057  0.1947  0.0971 -0.3619
17890TIP3    H175161   2.041   5.230  14.997 -1.0790  0.8424 -1.2306
17890TIP3    H275162   1.896   5.234  15.040 -1.3651 -2.8940 -1.4971
17891TIP3   OH275163   3.127   3.979  17.051 -0.6853 -0.2359 -0.4987
17891TIP3    H175164   3.091   3.958  17.136  0.3011  2.2589  0.6273
17891TIP3    H275165   3.057   4.026  17.005 -0.5019  0.3602 -0.1815
17892TIP3   OH275166   6.678   4.652  13.086  0.0500 -0.2607 -0.1687
17892TIP3    H175167   6.710   4.671  13.174 -0.8567  1.1586 -0.1238
17892TIP3    H275168   6.649   4.561  13.090 -0.3063 -0.1055  1.1066
17893TIP3   OH275169   2.245   6.224  15.814  0.0830 -0.6918  0.7086
17893TIP3    H175170   2.332   6.226  15.775 -0.9465 -0.2803 -1.7689
17893TIP3    H275171   2.228   6.131  15.827  0.4577 -0.8578  0.0912
17894TIP3   OH275172   6.662   6.203  14.116  0.2621 -0.1630  0.7158
17894TIP3    H175173   6.579   6.227  14.156 -1.2803 -0.9844 -1.7537
17894TIP3    H275174   6.714   6.167  14.189 -2.2516 -1.3812  2.0631
17895TIP3   OH275175   3.528   1.839   0.768  0.5395  0.5245  0.5157
17895TIP3    H175176   3.559   1.926   0.794 -1.0462  1.0010  0.8674
17895TIP3    H275177   3.512   1.847   0.674  0.5758  0.5434  0.5108
17896TIP3   OH275178   0.753   6.194  16.261 -0.7106  0.5286  0.0902
17896TIP3    H175179   0.807   6.234  16.329 -0.0082  0.5943 -0.4915
17896TIP3    H275180   0.773   6.101  16.266 -0.7412  0.5201  0.0557
17897TIP3   OH275181   6.428   3.584  13.671  0.5834 -0.4489 -0.0125
17897TIP3    H175182   6.508   3.573  13.619  0.5734  0.8419 -0.3407
17897TIP3    H275183   6.455   3.643  13.742 -0.1275  0.1771 -0.2572
17898TIP3   OH275184   0.602   2.001   5.183  0.1882 -0.0121  0.3066
17898TIP3    H175185   0.590   2.086   5.142 -0.0895 -0.2243 -0.0588
17898TIP3    H275186   0.538   1.999   5.255 -2.2988 -1.2338 -1.7763
17899TIP3   OH275187   4.532   1.420  16.724 -0.2278  0.3466  0.2427
17899TIP3    H175188   4.578   1.365  16.661 -1.6040  0.7504 -1.2063
17899TIP3    H275189   4.569   1.397  16.809  1.9491  0.0152 -0.7351
17900TIP3   OH275190   4.250   0.406   5.782  0.4718 -0.3306  0.3359
17900TIP3    H175191   4.201   0.437   5.706 -1.5898 -2.1704  0.8222
17900TIP3    H275192   4.288   0.486   5.820  1.0230  0.7095 -2.1919
17901TIP3   OH275193   0.000   4.187  12.697  0.1860 -0.0859 -0.2375
17901TIP3    H175194  -0.051   4.130  12.640 -0.1207  0.6609 -0.7222
17901TIP3    H275195   0.087   4.145  12.701 -0.4363 -1.3741  0.6137
17902TIP3   OH275196   0.136   5.986   0.076 -0.1612  0.1046 -0.0867
17902TIP3    H175197   0.141   5.912   0.016 -0.7076  0.3393 -0.4209
17902TIP3    H275198   0.111   6.060   0.022 -1.1946  0.2113  0.5079
17903TIP3   OH275199   2.395   2.701  13.987  0.1563 -0.5539  0.5049
17903TIP3    H175200   2.350   2.777  13.950  0.2540 -0.5066  0.4802
17903TIP3    H275201   2.328   2.634  13.995  0.2729 -0.8083 -0.4436
17904TIP3   OH275202   6.184   4.875   4.434 -0.2685  0.0183  0.1663
17904TIP3    H175203   6.135   4.839   4.507 -0.6564 -1.9618 -0.9725
17904TIP3    H275204   6.132   4.949   4.403 -0.9366 -0.1424  0.8831
17905TIP3   OH275205   2.135   1.813  15.252  0.0323  0.9275 -0.3039
17905TIP3    H175206   2.046   1.845  15.263 -0.4304 -0.4413  0.0960
17905TIP3    H275207   2.145   1.802  15.157 -1.9459 -3.3572 -0.2607
17906TIP3   OH275208   0.725   0.752  14.533  0.0070 -0.0379 -0.1659
17906TIP3    H175209   0.815   0.726  14.548 -0.0324 -0.9699 -1.4365
17906TIP3    H275210   0.730   0.822  14.467 -0.1081  1.1130  0.9944
17907TIP3   OH275211   2.453   6.782   3.409 -0.2881 -0.1552  0.3737
17907TIP3    H175212   2.480   6.710   3.351  1.5808 -1.0072  2.1951
17907TIP3    H275213   2.497   6.859   3.373 -2.0287  0.1050 -1.3887
17908TIP3   OH275214   1.884   4.940  13.285 -0.5207  0.1386 -0.3537
17908TIP3    H175215   1.886   5.022  13.236  1.0287 -0.7562 -1.8500
17908TIP3    H275216   1.964   4.895  13.261 -1.2376 -1.7530  0.5950
17909TIP3   OH275217   4.803   1.753   0.533 -0.2755  0.5490  0.3900
17909TIP3    H175218   4.762   1.761   0.447 -0.1006  1.0120  0.3469
17909TIP3    H275219   4.797   1.660   0.554  0.4620  0.2754 -0.5131
17910TIP3   OH275220   1.284   2.163   0.218 -0.5376  0.1734 -0.5991
17910TIP3    H175221   1.196   2.202   0.217 -0.1318  1.0987 -1.7244
17910TIP3    H275222   1.306   2.150   0.126  1.7969  2.9681 -0.5733
17911TIP3   OH275223   0.492   6.270  11.470 -0.3875  0.4727  0.4935
17911TIP3    H175224   0.569   6.221  11.441  0.1211  2.2829 -1.4141
17911TIP3    H275225   0.498   6.354  11.425 -3.8032  0.4838 -0.2288
17912TIP3   OH275226   2.085   0.158  12.447  0.9328 -0.5138  0.0958
17912TIP3    H175227   2.056   0.185  12.360  0.3001 -0.3708  0.3415
17912TIP3    H275228   2.155   0.220  12.469  0.2670  0.2168  0.1848
17913TIP3   OH275229   0.932   5.195   3.551  0.8073 -0.4653 -0.2595
17913TIP3    H175230   0.956   5.287   3.535 -0.2581  0.3307  2.2783
17913TIP3    H275231   0.978   5.171   3.630 -0.9324 -1.2532  0.5668
17914TIP3   OH275232   3.292   1.180  12.420 -0.4099  0.0758 -0.1462
17914TIP3    H175233   3.263   1.089  12.422 -0.8290  0.2100  0.3670
17914TIP3    H275234   3.245   1.221  12.493  0.3135  0.5384  0.0716
17915TIP3   OH275235   0.062   4.482  16.383  0.3318  0.0786  0.0225
17915TIP3    H175236   0.040   4.572  16.360 -0.0572  0.0734  0.3551
17915TIP3    H275237   0.016   4.466  16.465 -0.9448 -0.9510 -0.8461
17916TIP3   OH275238   4.356   3.336   4.024  0.3490  0.2991 -0.1420
17916TIP3    H175239   4.304   3.262   3.993 -0.7362 -0.4267  3.0549
17916TIP3    H275240   4.302   3.413   4.004 -1.4655 -0.3481  1.9554
17917TIP3   OH275241   0.285   4.247  13.605 -0.5575 -0.1956 -0.8822
17917TIP3    H175242   0.298   4.267  13.513 -0.8361  0.1898 -0.8408
17917TIP3    H275243   0.373   4.232  13.639  0.2085  4.5434 -0.1055
17918TIP3   OH275244   3.976   2.190  16.237 -0.3700  0.2437 -0.2010
17918TIP3    H175245   3.897   2.152  16.277  0.8053  1.1166  3.2863
17918TIP3    H275246   3.943   2.238  16.161 -3.2301  0.6077  1.1198
17919TIP3   OH275247   2.683   5.505  10.191  0.1317 -1.1089 -0.3900
17919TIP3    H175248   2.754   5.562  10.162 -0.3340 -0.8637 -1.0689
17919TIP3    H275249   2.678   5.437  10.124  0.2385 -1.5711  0.0651
17920TIP3   OH275250   5.021   2.538   2.646 -0.4135  0.0085 -0.3040
17920TIP3    H175251   4.926   2.545   2.649 -0.3983 -0.0898  0.5884
17920TIP3    H275252   5.048   2.539   2.738  0.5729  1.8502 -0.5629
17921TIP3   OH275253   5.257   5.697  15.232  0.0538  0.5477  0.1927
17921TIP3    H175254   5.175   5.687  15.183 -0.9381 -0.1628  1.9107
17921TIP3    H275255   5.325   5.698  15.165 -1.2166 -0.6301 -1.1749
17922TIP3   OH275256   3.208   1.136   1.950  0.7162  0.2798 -0.1095
17922TIP3    H175257   3.174   1.199   1.887  0.5701  0.1624 -0.1513
17922TIP3    H275258   3.231   1.059   1.897  0.5211  0.1527 -0.0109
17923TIP3   OH275259   4.342   3.195   1.232  0.2455  0.6844  0.0241
17923TIP3    H175260   4.429   3.155   1.225 -0.2273 -0.3775  0.0221
17923TIP3    H275261   4.316   3.211   1.141  0.1676  0.3794 -0.0100
17924TIP3   OH275262   1.273   0.706  13.716  0.2786 -0.4942  0.1059
17924TIP3    H175263   1.233   0.649  13.650 -0.8390 -0.0055  0.3322
17924TIP3    H275264   1.367   0.700  13.700  0.0375 -0.4925 -1.4470
17925TIP3   OH275265   3.600   5.440  10.478  0.0576 -0.1774  0.1249
17925TIP3    H175266   3.614   5.352  10.514  4.5323  0.4521  0.5620
17925TIP3    H275267   3.612   5.499  10.553  0.6831  0.8799 -0.7753
17926TIP3   OH275268   1.545   2.732   5.632 -0.6046  0.3143  0.2065
17926TIP3    H175269   1.627   2.690   5.607 -0.1685  1.4218 -0.2870
17926TIP3    H275270   1.571   2.808   5.683 -1.3493  0.4065  0.4711
17927TIP3   OH275271   4.126   1.184  10.832 -0.3172  0.4196  0.8222
17927TIP3    H175272   4.163   1.116  10.888 -4.4410 -3.6959 -0.8404
17927TIP3    H275273   4.035   1.192  10.861 -0.9354  2.6401 -1.4136
17928TIP3   OH275274   4.737   6.052  11.332  0.2300 -0.2007  0.1349
17928TIP3    H175275   4.649   6.038  11.298  0.1413 -0.3731  0.4315
17928TIP3    H275276   4.739   6.005  11.416 -0.5379  2.6798  1.8918
17929TIP3   OH275277   4.058   5.175   0.094  0.5147 -0.7006  0.0073
17929TIP3    H175278   4.087   5.084   0.096  0.9885 -0.5784 -0.9221
17929TIP3    H275279   4.135   5.224   0.066  0.5667  0.1260  1.4818
17930TIP3   OH275280   1.634   0.469  11.726  0.4643  0.0877 -0.1436
17930TIP3    H175281   1.672   0.408  11.663 -2.4383  0.1929 -2.2139
17930TIP3    H275282   1.600   0.541  11.672 -1.8119  0.3836  1.5340
17931TIP3   OH275283   6.056   3.991   4.288  0.1685 -0.1234  0.3248
17931TIP3    H175284   6.082   3.899   4.277  1.9539  0.4953 -1.2435
17931TIP3    H275285   6.037   4.021   4.199  0.3978  1.2319  0.7166
17932TIP3   OH275286   3.733   4.373   5.642 -0.4218 -0.3388 -0.1910
17932TIP3    H175287   3.732   4.332   5.555  0.8302 -1.4661  0.2810
17932TIP3    H275288   3.642   4.393   5.660 -1.0318 -2.3093 -0.7871
17933TIP3   OH275289   0.093   0.396  15.082 -0.1324  0.3135 -0.4893
17933TIP3    H175290   0.066   0.478  15.041  0.1772  1.1316  0.8932
17933TIP3    H275291   0.050   0.328  15.029 -2.6900  1.4549 -0.0344
17934TIP3   OH275292   6.636   1.624   3.638  0.1396  0.0433 -0.0776
17934TIP3    H175293   6.625   1.548   3.581  1.5715 -0.1342 -0.1402
17934TIP3    H275294   6.630   1.699   3.580 -0.0609 -0.0636 -0.1972
17935TIP3   OH275295   5.748   0.199   3.143  1.4658 -0.2967  0.4698
17935TIP3    H175296   5.694   0.263   3.190  0.5806 -0.0725 -0.7900
17935TIP3    H275297   5.789   0.250   3.073  0.5367 -1.1337 -0.7118
17936TIP3   OH275298   4.131   2.736  16.028 -0.4172  0.1665 -0.2107
17936TIP3    H175299   4.078   2.756  16.104 -0.7049  0.0296 -0.3748
17936TIP3    H275300   4.124   2.814  15.972 -0.4232  0.1586 -0.2208
17937TIP3   OH275301   4.688   4.535  16.268 -0.2976 -0.6256 -0.4720
17937TIP3    H175302   4.735   4.454  16.250 -0.6980 -0.7200 -1.1193
17937TIP3    H275303   4.719   4.596  16.201  1.2649  0.2972  0.9996
17938TIP3   OH275304   1.141   3.914   4.995  0.2464  0.0242  0.4041
17938TIP3    H175305   1.157   3.938   4.903 -0.0745 -1.3105 -0.0211
17938TIP3    H275306   1.158   3.819   4.998 -0.1802 -0.0253  1.6312
17939TIP3   OH275307   1.387   6.243  16.262  0.0426  0.4658  0.3882
17939TIP3    H175308   1.412   6.221  16.172 -0.9656 -0.2475  0.2669
17939TIP3    H275309   1.451   6.197  16.316  0.4430  0.6129  0.0505
17940TIP3   OH275310   2.199   6.091   0.716 -0.0452 -1.0596  0.0354
17940TIP3    H175311   2.136   6.051   0.777  1.1094 -1.0657  1.2624
17940TIP3    H275312   2.155   6.088   0.631 -1.9977 -0.4292  0.9659
17941TIP3   OH275313   2.905   1.817  13.100 -0.2534  0.0940 -0.4251
17941TIP3    H175314   2.811   1.803  13.114 -0.4619  2.0962  0.3965
17941TIP3    H275315   2.913   1.824  13.005 -1.2814  1.8402 -0.4307
17942TIP3   OH275316   4.778   3.355   2.417  0.2389 -0.8121  0.4046
17942TIP3    H175317   4.797   3.377   2.326  1.3810  0.6937  0.9486
17942TIP3    H275318   4.690   3.320   2.416 -0.3528  0.5868 -1.0994
17943TIP3   OH275319   1.478   3.542   4.274 -0.0318 -0.3091 -0.0194
17943TIP3    H175320   1.537   3.584   4.336 -0.2384  1.1874 -0.7970
17943TIP3    H275321   1.510   3.452   4.268  1.7432  0.2698  0.1089
17944TIP3   OH275322   6.587   6.175   2.902 -0.3227 -0.1198  0.0943
17944TIP3    H175323   6.593   6.184   2.997 -1.3290 -1.0159  0.2573
17944TIP3    H275324   6.533   6.249   2.874  0.2868  0.3615  0.1562
17945TIP3   OH275325   3.265   5.815   5.018 -0.2718  0.2529  0.2662
17945TIP3    H175326   3.252   5.749   5.087  0.6175 -1.0064 -0.7148
17945TIP3    H275327   3.282   5.896   5.065 -1.6871 -0.1351  1.5232
17946TIP3   OH275328   5.706   4.585   1.592  0.4011 -0.3333 -0.3747
17946TIP3    H175329   5.642   4.531   1.546  0.2994 -1.0187  0.5532
17946TIP3    H275330   5.663   4.610   1.674  1.1659 -0.4608  0.0780
17947TIP3   OH275331   3.848   5.938  14.200  0.4465 -0.4700 -0.2450
17947TIP3    H175332   3.933   5.982  14.202  0.1383  0.2459 -1.6499
17947TIP3    H275333   3.801   5.973  14.276  1.0124 -0.0477 -0.0865
17948TIP3   OH275334   5.873   3.806  12.763  0.0793  0.3002  0.3930
17948TIP3    H175335   5.960   3.835  12.738 -0.3169  1.1629 -0.0359
17948TIP3    H275336   5.837   3.879  12.814 -1.0512  0.7326 -0.9579
17949TIP3   OH275337   0.401   3.843  12.591  0.4792 -0.2120  0.6118
17949TIP3    H175338   0.398   3.775  12.659  0.8468  1.3529  2.2565
17949TIP3    H275339   0.493   3.850  12.568  0.2589 -1.4174 -0.8465
17950TIP3   OH275340   3.262   0.056   5.790  0.2315  0.1240 -0.0419
17950TIP3    H175341   3.196  -0.012   5.780  0.7259 -0.4586  0.5854
17950TIP3    H275342   3.220   0.122   5.845  0.2313 -0.3450  0.5348
17951TIP3   OH275343   2.429   3.215   3.940 -0.1274 -0.1858 -0.6616
17951TIP3    H175344   2.455   3.304   3.918 -2.7318  0.6278 -0.8770
17951TIP3    H275345   2.369   3.225   4.014 -0.2287 -1.7998 -0.4883
17952TIP3   OH275346   4.031   3.637   0.309  0.1983 -0.1796  0.6399
17952TIP3    H175347   4.033   3.558   0.364 -0.5606 -1.7544 -1.4566
17952TIP3    H275348   3.938   3.649   0.289  0.2216  1.7020  1.4587
17953TIP3   OH275349   2.150   0.722  11.359  0.1194  0.3348  0.3620
17953TIP3    H175350   2.210   0.744  11.288 -1.7324  1.3318 -0.9525
17953TIP3    H275351   2.066   0.706  11.317 -1.0992  1.1144  2.3371
17954TIP3   OH275352   0.680   6.648  12.935  0.4243  0.4731 -0.0706
17954TIP3    H175353   0.747   6.697  12.982  0.2691  0.4726  0.1495
17954TIP3    H275354   0.725   6.616  12.857  0.7310  0.3099  0.1720
17955TIP3   OH275355   1.044   0.944  12.590  0.1159  0.1111  0.4645
17955TIP3    H175356   0.973   0.926  12.528 -1.4843 -1.0038  2.4582
17955TIP3    H275357   1.018   1.026  12.633 -0.4630 -0.7109  1.7604
17956TIP3   OH275358   0.892   3.353  11.398  0.8560  0.0506 -0.1347
17956TIP3    H175359   0.891   3.425  11.335 -1.0583  0.0303 -0.1850
17956TIP3    H275360   0.843   3.283  11.355  3.2847 -1.6034 -0.3838
17957TIP3   OH275361   5.509   2.044   4.901 -0.6564 -0.8821 -0.2585
17957TIP3    H175362   5.449   2.093   4.845 -0.7101 -1.2032 -0.4832
17957TIP3    H275363   5.474   2.054   4.989 -0.2510  0.1076 -0.1947
17958TIP3   OH275364   1.465   0.029  14.497 -0.0724 -0.1013 -0.2911
17958TIP3    H175365   1.452   0.057  14.406  1.4064  0.4980 -0.3538
17958TIP3    H275366   1.468  -0.066  14.492  2.5776 -0.0474 -1.3324
17959TIP3   OH275367   1.587   6.824  12.580  0.2877 -0.2631  0.5132
17959TIP3    H175368   1.496   6.852  12.568  0.6280  0.4790 -0.5502
17959TIP3    H275369   1.592   6.739  12.537  0.5928  0.7112 -1.5327
17960TIP3   OH275370   1.362   3.659   6.027  0.0662 -0.3683 -0.3514
17960TIP3    H175371   1.347   3.567   6.049 -0.3559 -0.4116 -0.8159
17960TIP3    H275372   1.398   3.697   6.108 -0.5970 -0.7365  0.1208
17961TIP3   OH275373   2.292   2.182  13.735  0.1709 -0.1531  0.0360
17961TIP3    H175374   2.206   2.216  13.710 -0.2371 -0.3683  1.0890
17961TIP3    H275375   2.354   2.231  13.682 -0.5856  0.2462 -0.4927
17962TIP3   OH275376   1.574   2.724   5.020 -0.5170 -0.0491  0.2676
17962TIP3    H175377   1.624   2.745   4.941 -0.1438 -0.6084  0.3507
17962TIP3    H275378   1.494   2.682   4.988 -0.6052  0.1977  0.1648
17963TIP3   OH275379   3.441   2.236  11.949  0.3696 -0.0401 -0.0265
17963TIP3    H175380   3.502   2.229  11.876 -2.2729 -0.1493 -2.4168
17963TIP3    H275381   3.372   2.173  11.929 -0.7493  0.3005  2.3311
17964TIP3   OH275382   4.445   1.042   3.347 -0.0972 -0.3752 -0.0771
17964TIP3    H175383   4.371   1.001   3.303 -0.2716  0.6392 -0.7844
17964TIP3    H275384   4.408   1.121   3.387  0.7481  0.6854 -1.2834
17965TIP3   OH275385   2.431   4.583   4.497  0.3837 -0.1826 -0.2185
17965TIP3    H175386   2.444   4.519   4.566 -0.3025  0.2114  0.2824
17965TIP3    H275387   2.438   4.532   4.416  0.0959 -0.8385  0.1651
17966TIP3   OH275388   0.943   3.302  15.446 -0.2174  0.0345 -0.3865
17966TIP3    H175389   0.861   3.331  15.406 -0.3014 -0.9994 -0.9773
17966TIP3    H275390   0.994   3.382  15.455 -0.7602  0.4914 -1.2426
17967TIP3   OH275391   3.358   5.261  12.599 -0.0704  0.4016  0.2964
17967TIP3    H175392   3.276   5.303  12.572 -0.9296 -1.9365 -1.0095
17967TIP3    H275393   3.415   5.268  12.523 -0.9496 -2.4419 -0.7113
17968TIP3   OH275394   5.338   5.907   5.411  0.1346 -0.2832  0.8120
17968TIP3    H175395   5.259   5.855   5.398 -0.3112 -0.4247  3.5750
17968TIP3    H275396   5.409   5.844   5.409  0.1096 -0.3101 -0.4562
17969TIP3   OH275397   4.395   5.433  13.963 -0.4862  0.0739 -0.1169
17969TIP3    H175398   4.340   5.386  14.026 -1.0237 -0.5872 -1.0487
17969TIP3    H275399   4.374   5.393  13.879  0.3202  0.8455 -0.7029
17970TIP3   OH275400   3.811   0.143  15.801 -0.2573  0.0158 -0.2152
17970TIP3    H175401   3.776   0.228  15.777  1.7633  0.7844 -0.6298
17970TIP3    H275402   3.767   0.081  15.743  0.5132  1.1877 -2.1465
17971TIP3   OH275403   4.836   5.393   3.968  0.1334  0.0212  0.2650
17971TIP3    H175404   4.751   5.408   4.010  0.0339  1.5285 -0.3879
17971TIP3    H275405   4.828   5.434   3.882  0.2331 -3.2590 -1.4432
17972TIP3   OH275406   5.227   4.019   1.164 -0.0970 -0.1328  0.2598
17972TIP3    H175407   5.311   3.988   1.129  0.2334 -0.4951  1.3271
17972TIP3    H275408   5.162   3.987   1.102  0.5049 -0.3666 -0.2637
17973TIP3   OH275409   6.112   2.113  12.294  0.0135 -1.1180 -0.3255
17973TIP3    H175410   6.115   2.018  12.281 -0.0987 -1.2834  0.7365
17973TIP3    H275411   6.089   2.124  12.387  0.6741 -0.0595 -0.2689
17974TIP3   OH275412   0.990   2.410  11.339 -0.1201 -0.1100  0.5482
17974TIP3    H175413   1.006   2.337  11.280 -1.0789  2.0268 -2.6508
17974TIP3    H275414   1.071   2.419  11.390  2.3850  0.1392 -3.1398
17975TIP3   OH275415   4.135   4.308  13.713  0.4487  0.2405  0.0117
17975TIP3    H175416   4.185   4.231  13.743  0.5239 -0.0188 -0.7464
17975TIP3    H275417   4.157   4.315  13.620  0.4044  1.1614  0.0676
17976TIP3   OH275418   3.289   2.029  12.463  0.0714  0.0239  0.0092
17976TIP3    H175419   3.339   2.091  12.409 -0.1645  0.0717 -0.1583
17976TIP3    H275420   3.279   2.072  12.547 -0.1785  0.2579 -0.1389
17977TIP3   OH275421   6.420   2.813  11.453  0.0059 -0.0244 -0.0949
17977TIP3    H175422   6.432   2.812  11.358  0.3425  2.4022 -0.1424
17977TIP3    H275423   6.325   2.810  11.466 -0.0615  0.2254 -0.5346
17978TIP3   OH275424   0.085   0.602  14.120 -0.3438 -0.1823 -0.1470
17978TIP3    H175425   0.077   0.658  14.198 -0.5570 -1.3580  0.6959
17978TIP3    H275426   0.178   0.608  14.097 -0.4434  0.8491 -0.3300
17979TIP3   OH275427   5.851   6.715   3.008  0.6787  0.4486 -0.2734
17979TIP3    H175428   5.856   6.803   2.972  1.3052 -0.0592 -1.4644
17979TIP3    H275429   5.878   6.725   3.099  0.5736  1.5015 -0.3419
17980TIP3   OH275430   2.094   6.130  16.298  0.5536  0.0514 -0.0232
17980TIP3    H175431   2.166   6.095  16.246  0.6142  0.8059 -0.4628
17980TIP3    H275432   2.041   6.180  16.236  0.9692  1.4983  0.7249
17981TIP3   OH275433   0.110   5.763   3.303 -0.0175  0.0299  0.2665
17981TIP3    H175434   0.080   5.842   3.348  0.6377 -0.4082  1.4923
17981TIP3    H275435   0.117   5.697   3.372  1.1225 -0.6264 -0.4554
17982TIP3   OH275436   2.425   2.299  13.966  0.2878 -0.2535 -0.5368
17982TIP3    H175437   2.374   2.260  13.894  0.5622  0.0580 -0.9079
17982TIP3    H275438   2.416   2.237  14.038 -2.2709  0.7061  0.0878
17983TIP3   OH275439   5.895   2.285  15.763 -0.4248  0.0940  0.1650
17983TIP3    H175440   5.837   2.273  15.688 -0.9214  1.7600  0.2495
17983TIP3    H275441   5.961   2.216  15.753 -1.8809 -1.2708 -0.4281
17984TIP3   OH275442   6.296   5.992  12.411 -0.5408  0.1003  0.0003
17984TIP3    H175443   6.261   5.959  12.329 -1.2267 -0.2449  0.4170
17984TIP3    H275444   6.230   6.053  12.443 -1.6693 -1.8170  1.6271
17985TIP3   OH275445   0.019   0.934  15.981 -0.0606 -0.0407  0.0191
17985TIP3    H175446  -0.062   0.981  16.000  0.6482  0.9710  0.6044
17985TIP3    H275447   0.088   0.992  16.012  0.8845 -0.9880 -0.2747
17986TIP3   OH275448   4.735   4.913   5.454 -0.4930 -0.3445  0.0867
17986TIP3    H175449   4.803   4.947   5.512  1.0886 -0.4132 -1.6309
17986TIP3    H275450   4.709   4.988   5.400 -0.0497 -0.8483 -0.8564
17987TIP3   OH275451   4.124   5.728   4.553  0.6001  0.3586 -0.1665
17987TIP3    H175452   4.182   5.752   4.625  0.5215 -1.1043  0.4454
17987TIP3    H275453   4.099   5.637   4.573 -0.4851  0.3698 -1.3443
17988TIP3   OH275454   0.887   1.010  15.504 -0.2895 -1.2159 -0.2738
17988TIP3    H175455   0.953   1.076  15.481 -1.2081  0.5645  1.8544
17988TIP3    H275456   0.933   0.949  15.561  0.0669 -1.2912 -0.6331
17989TIP3   OH275457   3.980   0.293   1.828  0.1545 -0.3296 -0.0290
17989TIP3    H175458   3.984   0.202   1.859 -0.2869 -0.2462  0.2727
17989TIP3    H275459   4.045   0.339   1.881  1.0859 -0.6584 -0.8499
17990TIP3   OH275460   0.065   2.829   3.520  0.3567  0.7128 -0.5003
17990TIP3    H175461   0.143   2.783   3.552 -1.3546 -1.3128  1.0746
17990TIP3    H275462   0.009   2.759   3.487 -1.6048  1.8961  0.2043
17991TIP3   OH275463   3.569   5.015   5.566  0.2906  0.5988  0.5294
17991TIP3    H175464   3.603   5.011   5.477  1.4485  0.0022  0.9800
17991TIP3    H275465   3.474   5.014   5.555  0.3789 -2.2087 -0.6093
17992TIP3   OH275466   3.069   3.262  14.866 -0.1426 -0.1434 -0.0001
17992TIP3    H175467   3.163   3.248  14.855 -0.1027 -0.2368  0.4272
17992TIP3    H275468   3.037   3.182  14.907 -0.1911  0.3554  0.9653
17993TIP3   OH275469   1.432   4.000   3.331 -0.1925  0.2514 -0.8381
17993TIP3    H175470   1.371   4.035   3.396  1.4758 -3.2693  3.0999
17993TIP3    H275471   1.401   3.910   3.317  2.2475 -0.6050 -1.1162
17994TIP3   OH275472   2.964   2.329  17.050  0.2036 -0.3253  0.0053
17994TIP3    H175473   2.880   2.302  17.013 -0.1251 -0.9192  1.1356
17994TIP3    H275474   2.992   2.403  16.996 -1.6191  0.6574  0.3402
17995TIP3   OH275475   0.884   0.917  12.348  0.1571 -0.0070  0.0171
17995TIP3    H175476   0.828   0.994  12.341 -0.2134  0.0598  2.6446
17995TIP3    H275477   0.843   0.852  12.290 -3.1216 -0.1735  2.2612
17996TIP3   OH275478   1.791   1.616  12.352 -0.2355  0.4081 -0.2920
17996TIP3    H175479   1.835   1.673  12.290 -1.1402  0.7409 -0.6503
17996TIP3    H275480   1.699   1.618  12.326 -0.6959  0.8115  1.2380
17997TIP3   OH275481   6.247   5.947  11.146 -0.2097 -0.0365 -0.3253
17997TIP3    H175482   6.231   5.853  11.138 -1.1416  0.1718 -1.1011
17997TIP3    H275483   6.179   5.978  11.206  0.4042  0.0726  0.3248
17998TIP3   OH275484   5.673   3.628  15.366 -0.0066 -0.1012  0.1736
17998TIP3    H175485   5.740   3.597  15.427 -1.4052 -2.4219  0.6474
17998TIP3    H275486   5.590   3.618  15.413 -0.7794  2.5090 -0.4657
17999TIP3   OH275487   4.938   1.635   4.923  0.1649  0.8863  0.7229
17999TIP3    H175488   4.884   1.643   4.845  0.8261  1.5145  0.3215
17999TIP3    H275489   4.921   1.546   4.956 -0.3960  0.7552  0.0840
18000TIP3   OH275490   6.663   1.500  16.383 -0.3268  0.6178 -0.1421
18000TIP3    H175491   6.655   1.472  16.475  1.0768  1.2087  0.1965
18000TIP3    H275492   6.702   1.588  16.389  0.1615  0.4935 -1.3095
18001TIP3   OH275493   4.867   2.827  11.420  0.0828  0.8332 -0.0867
18001TIP3    H175494   4.865   2.834  11.325  0.1787  1.1271 -0.0692
18001TIP3    H275495   4.920   2.750  11.437 -0.7976  0.1644 -0.2892
18002TIP3   OH275496   6.074   6.509  12.231 -0.2691 -0.0545  0.1163
18002TIP3    H175497   6.049   6.460  12.153 -1.7603  1.1176 -0.2035
18002TIP3    H275498   6.047   6.454  12.304  2.0407 -1.6099 -0.1248
18003TIP3   OH275499   1.627   2.626   4.746  0.5696 -0.0730 -0.0633
18003TIP3    H175500   1.610   2.534   4.766 -1.7500  0.6674  1.8687
18003TIP3    H275501   1.721   2.637   4.761  0.6173 -1.8112  1.2597
18004TIP3   OH275502   1.457   5.075  12.615 -0.4828  0.3655 -0.0111
18004TIP3    H175503   1.523   5.084  12.684 -1.5138  0.5635  0.9975
18004TIP3    H275504   1.392   5.142  12.637 -1.6673 -0.6924 -0.2008
18005TIP3   OH275505   5.542   1.533  15.448 -0.3901  0.4682  0.0963
18005TIP3    H175506   5.633   1.530  15.419 -0.5238  1.2067 -0.4244
18005TIP3    H275507   5.499   1.462  15.400 -0.4015  1.0645 -0.8057
18006TIP3   OH275508   3.941   3.742  11.558 -0.4524 -0.6315 -0.3502
18006TIP3    H175509   3.865   3.797  11.537  0.0862 -0.1532 -1.1068
18006TIP3    H275510   3.904   3.654  11.570 -1.1790 -0.3233 -0.2654
18007TIP3   OH275511   4.745   0.316   4.592  0.2539  0.0989 -0.1741
18007TIP3    H175512   4.757   0.224   4.568 -2.1118 -0.0363 -1.0798
18007TIP3    H275513   4.726   0.313   4.686  2.0032 -0.1036  0.2160
18008TIP3   OH275514   4.979   6.228   1.123  0.0946  0.1731 -0.4973
18008TIP3    H175515   5.041   6.246   1.053  1.5273  0.3319  0.7518
18008TIP3    H275516   4.976   6.310   1.174 -0.4960 -0.1078 -0.0641
18009TIP3   OH275517   2.718   4.047  14.333  0.7760 -0.0505  0.1637
18009TIP3    H175518   2.628   4.044  14.300  1.0949 -0.8753 -0.6931
18009TIP3    H275519   2.740   3.955  14.350  1.3931  0.1616  0.5644
18010TIP3   OH275520   4.986   1.238   4.122 -0.1458  0.0704  0.5486
18010TIP3    H175521   5.064   1.258   4.070 -0.3809  0.3147  0.2869
18010TIP3    H275522   4.963   1.148   4.098 -1.2999  0.7786 -1.1319
18011TIP3   OH275523   2.059   4.518   0.107  0.0699 -0.2003 -0.4500
18011TIP3    H175524   2.050   4.491   0.198  0.5426  0.2066 -0.2788
18011TIP3    H275525   2.080   4.611   0.111  1.8921 -0.5564 -0.8970
18012TIP3   OH275526   0.604   3.363  12.567  0.2512  0.0387 -0.7002
18012TIP3    H175527   0.679   3.331  12.617 -0.0223  0.7897  0.2190
18012TIP3    H275528   0.610   3.458  12.574 -1.7557  0.1021  0.9067
18013TIP3   OH275529   3.729   3.375   1.919  0.2954 -0.2098 -0.4207
18013TIP3    H175530   3.643   3.376   1.963  0.8862  2.1025  0.8602
18013TIP3    H275531   3.774   3.299   1.957 -0.0824  0.3726  1.2903
18014TIP3   OH275532   1.800   2.850   0.252 -0.5252  0.2164 -0.6192
18014TIP3    H175533   1.706   2.843   0.234 -0.3366 -1.3911 -1.2424
18014TIP3    H275534   1.811   2.809   0.338 -0.6797  2.6978  0.6530
18015TIP3   OH275535   5.776   4.315  14.370  0.0113  0.5703  0.0778
18015TIP3    H175536   5.828   4.390  14.398  0.8805  0.3370 -0.8504
18015TIP3    H275537   5.754   4.333  14.278 -0.2303 -0.0597 -0.0005
18016TIP3   OH275538   2.436   2.951   5.458  0.1946 -0.1863  0.0989
18016TIP3    H175539   2.455   2.912   5.544 -0.2977 -0.1749  0.2171
18016TIP3    H275540   2.513   2.930   5.405  0.4111 -0.3792  0.4808
18017TIP3   OH275541   0.567   1.536  12.908  0.1010  0.1556 -0.1835
18017TIP3    H175542   0.570   1.620  12.954 -1.7666 -0.8079  1.8417
18017TIP3    H275543   0.476   1.526  12.882  0.7835 -0.1351 -2.7199
18018TIP3   OH275544   5.369   5.519  12.624  0.1500  0.1870 -0.6061
18018TIP3    H175545   5.441   5.580  12.640  2.0870 -2.0606 -0.1338
18018TIP3    H275546   5.342   5.490  12.711  0.9533 -1.3896 -0.8338
18019TIP3   OH275547   3.432   6.447   4.136 -0.5495 -0.8465  0.2805
18019TIP3    H175548   3.522   6.416   4.140  0.2746  1.4305  1.1009
18019TIP3    H275549   3.435   6.521   4.075 -1.8260 -0.6138  0.4729
18020TIP3   OH275550   5.891   5.854   0.063  0.2745 -0.6656  0.3986
18020TIP3    H175551   5.826   5.857   0.132 -0.0914 -0.5577  0.0523
18020TIP3    H275552   5.871   5.775   0.013 -0.4426  0.0551 -0.5136
18021TIP3   OH275553   6.728   5.191   3.127  0.1332 -0.0152 -0.0552
18021TIP3    H175554   6.772   5.187   3.212  0.0443  0.0816 -0.0048
18021TIP3    H275555   6.775   5.127   3.073 -0.7104 -1.0968  0.4713
18022TIP3   OH275556   4.946   6.154  14.914  0.1755 -0.4876  0.3542
18022TIP3    H175557   4.861   6.139  14.873 -0.7279  0.0536  1.9276
18022TIP3    H275558   4.959   6.077  14.970  1.7843 -1.6334 -1.4831
18023TIP3   OH275559   2.060   3.142  11.219  0.4304  0.3065 -0.3902
18023TIP3    H175560   1.992   3.185  11.168 -2.6758 -2.9365  0.6252
18023TIP3    H275561   2.057   3.184  11.305 -1.1495 -0.5054 -0.0186
18024TIP3   OH275562   1.966   2.971   4.899  0.6403  0.2396  0.0148
18024TIP3    H175563   1.967   3.061   4.932  0.7584 -0.0928  0.9343
18024TIP3    H275564   1.975   2.916   4.977  1.1438 -0.5610 -0.5871
18025TIP3   OH275565   1.105   3.681   6.718 -0.7911  0.4421 -0.5570
18025TIP3    H175566   1.121   3.641   6.803 -0.5767 -0.4620 -1.0088
18025TIP3    H275567   1.192   3.708   6.687 -1.0733  2.6386  0.3728
18026TIP3   OH275568   6.154   3.450   0.253 -0.7596  0.0747 -0.0523
18026TIP3    H175569   6.169   3.542   0.273 -0.0102  0.1498 -0.8757
18026TIP3    H275570   6.060   3.437   0.268 -0.9477  1.0754 -0.3121
18027TIP3   OH275571   1.197   3.192  15.530 -0.0561  0.6357 -0.0743
18027TIP3    H175572   1.237   3.195  15.444 -1.1537  3.5775 -0.6239
18027TIP3    H275573   1.249   3.253  15.583  0.3198 -0.7671  1.2473
18028TIP3   OH275574   0.233   3.123  15.570 -0.9886  0.1286  0.4179
18028TIP3    H175575   0.210   3.030  15.562 -1.9892  0.4097 -0.1882
18028TIP3    H275576   0.272   3.130  15.657  0.5915 -1.1367 -0.1552
18029TIP3   OH275577   4.044   6.673  16.493 -0.0290  0.3147 -0.0132
18029TIP3    H175578   4.009   6.690  16.406  0.5145 -2.3606 -0.8609
18029TIP3    H275579   4.023   6.751  16.544 -1.3879  1.4674 -2.2189
18030TIP3   OH275580   0.277   1.453   0.373 -0.0687 -0.0162  0.2729
18030TIP3    H175581   0.336   1.470   0.299  0.2053  0.1780  0.5325
18030TIP3    H275582   0.321   1.386   0.424  0.1841  0.5064  0.7517
18031TIP3   OH275583   6.317   1.274   3.643 -0.2397 -0.3378  0.0016
18031TIP3    H175584   6.248   1.241   3.700 -1.9994  0.8680 -1.3383
18031TIP3    H275585   6.360   1.195   3.610 -0.0085 -1.0826  1.9111
18032TIP3   OH275586   2.011   4.109   3.973 -0.1584  0.0469  0.3556
18032TIP3    H175587   2.065   4.173   4.020  0.1197 -0.8264  1.2612
18032TIP3    H275588   2.074   4.057   3.923 -0.3438  0.1901 -0.0338
18033TIP3   OH275589   4.044   1.104  14.782  0.5008 -0.3537 -0.4828
18033TIP3    H175590   3.997   1.074  14.860  0.9188  1.9521  0.7560
18033TIP3    H275591   4.129   1.061  14.787 -0.0930 -1.5990 -0.6744
18034TIP3   OH275592   2.316   2.235   5.676 -0.1525 -0.5768  0.0286
18034TIP3    H175593   2.322   2.144   5.706  0.6240 -1.0800 -1.5280
18034TIP3    H275594   2.248   2.235   5.609 -0.3210  0.0446  0.1894
18035TIP3   OH275595   0.577   5.889  13.944  0.2164 -0.0980  0.4629
18035TIP3    H175596   0.671   5.877  13.932  0.3030 -0.4229  1.4459
18035TIP3    H275597   0.567   5.983  13.961 -0.0234  0.6442 -2.9931
18036TIP3   OH275598   4.606   4.113   1.248  1.0922  0.0939 -0.0503
18036TIP3    H175599   4.518   4.152   1.249  0.9646 -0.1893 -0.0707
18036TIP3    H275600   4.638   4.128   1.159  0.9879  0.0325 -0.0983
18037TIP3   OH275601   5.948   3.553   1.853  0.1872  0.4182  0.5893
18037TIP3    H175602   6.005   3.626   1.831 -0.6806  0.8160 -0.4105
18037TIP3    H275603   5.948   3.551   1.949  0.6971  1.3388  0.6166
18038TIP3   OH275604   6.447   2.311   4.767 -0.0443 -0.1285  0.9846
18038TIP3    H175605   6.492   2.256   4.702 -1.8540  0.9043 -1.3084
18038TIP3    H275606   6.494   2.394   4.765  0.2391 -0.2735  1.4439
18039TIP3   OH275607   2.428   5.933   0.706  0.1345 -0.1720  0.1508
18039TIP3    H175608   2.343   5.975   0.710  0.9914  2.0784 -2.1772
18039TIP3    H275609   2.425   5.880   0.626  1.0475  0.3663 -0.2586
18040TIP3   OH275610   3.387   3.021  11.273  0.2975  0.4659 -0.1303
18040TIP3    H175611   3.449   2.949  11.257 -0.5788  0.0372 -1.9085
18040TIP3    H275612   3.401   3.045  11.364  0.1874 -2.3913  0.7389
18041TIP3   OH275613   1.279   3.995  11.296  0.2426  0.4796 -0.0311
18041TIP3    H175614   1.282   4.070  11.237  0.3487  0.9420  0.5582
18041TIP3    H275615   1.347   3.936  11.262  1.7025  1.6304  0.7909
18042TIP3   OH275616   5.487   4.043  12.277  0.1033  0.2249  0.2286
18042TIP3    H175617   5.417   3.999  12.324  1.1303 -0.4180  1.2205
18042TIP3    H275618   5.513   3.981  12.209  0.9672 -0.3799  1.0777
18043TIP3   OH275619   2.187   1.175   0.594  0.3801  0.6425 -0.3589
18043TIP3    H175620   2.237   1.255   0.607  1.8389 -0.1603 -0.8379
18043TIP3    H275621   2.216   1.142   0.509 -0.8195  0.0336 -0.5555
18044TIP3   OH275622   2.833   2.236  12.701  0.1863  0.5179  0.6118
18044TIP3    H175623   2.825   2.322  12.660 -1.8280  0.1873  0.2234
18044TIP3    H275624   2.843   2.175  12.627  0.7484  0.3271  0.8411
18045TIP3   OH275625   6.144   2.385  14.010  0.4215  0.2025  0.1749
18045TIP3    H175626   6.158   2.474  13.977 -0.6386  0.9946  1.6830
18045TIP3    H275627   6.077   2.348  13.953 -0.3899  1.0333  0.5551
18046TIP3   OH275628   0.143   4.392   2.428 -0.0876  0.3703  0.3406
18046TIP3    H175629   0.100   4.462   2.379  0.7458  0.7977  0.2084
18046TIP3    H275630   0.209   4.436   2.482 -0.1900 -0.2194  0.9659
18047TIP3   OH275631   5.608   1.951   1.916 -0.1697  0.1194 -0.8230
18047TIP3    H175632   5.552   1.903   1.977 -0.8070 -0.0604 -1.5323
18047TIP3    H275633   5.681   1.983   1.970  0.8363 -2.4819 -0.4835
18048TIP3   OH275634   6.605   0.764  11.719 -0.1534  0.6920 -0.3266
18048TIP3    H175635   6.546   0.702  11.762  0.4990  0.0799 -0.2883
18048TIP3    H275636   6.692   0.738  11.749  0.0923  2.0526  0.2213
18049TIP3   OH275637   5.919   5.418   2.488 -0.2170  0.0204  0.3236
18049TIP3    H175638   5.910   5.434   2.582  1.6192  1.9256  0.2526
18049TIP3    H275639   5.847   5.466   2.448 -1.0167 -0.8127  0.7252
18050TIP3   OH275640   0.313   0.948   5.109 -0.5237  0.5247 -0.3056
18050TIP3    H175641   0.252   1.021   5.119 -1.4380 -0.3652  0.8748
18050TIP3    H275642   0.362   0.969   5.029 -3.1054  0.7512 -1.9469
18051TIP3   OH275643   6.198   6.406  13.272 -0.2282 -0.1489 -0.1383
18051TIP3    H175644   6.273   6.358  13.236 -0.8464 -1.3319  0.0781
18051TIP3    H275645   6.236   6.484  13.312  0.4679  1.3461 -3.4393
18052TIP3   OH275646   3.749   3.030  16.911  0.4063 -0.3607  0.1761
18052TIP3    H175647   3.671   3.043  16.964  0.9692  1.5575  0.6227
18052TIP3    H275648   3.768   3.117  16.875  1.0093 -1.2567 -1.8273
18053TIP3   OH275649   1.905   6.797  12.219  0.0729 -0.0496 -0.0811
18053TIP3    H175650   1.977   6.825  12.162 -0.4499 -0.5631 -1.0216
18053TIP3    H275651   1.942   6.728  12.273  0.2599 -0.4226 -0.6719
18054TIP3   OH275652   3.164   0.604  15.499  1.0305 -0.2431  0.3256
18054TIP3    H175653   3.197   0.529  15.549  1.1176  0.4357  1.3009
18054TIP3    H275654   3.236   0.667  15.499  1.0556 -0.2555 -0.7291
18055TIP3   OH275655   3.619   5.408   1.508  0.2333 -0.0899  0.3942
18055TIP3    H175656   3.588   5.325   1.473  0.9210 -0.7023  1.2032
18055TIP3    H275657   3.691   5.433   1.449 -0.5185  0.3802 -0.3534
18056TIP3   OH275658   3.082   4.429   3.025 -0.2659 -0.0615 -0.5598
18056TIP3    H175659   3.080   4.367   2.952  1.3627 -0.5614 -0.2162
18056TIP3    H275660   3.144   4.496   2.999  0.5235 -0.3807  0.4474
18057TIP3   OH275661   5.651   2.125  12.062 -0.0866 -0.4821  0.2570
18057TIP3    H175662   5.642   2.182  11.985  0.4978  1.8477  1.8240
18057TIP3    H275663   5.742   2.134  12.088 -0.5184 -0.3889  1.8413
18058TIP3   OH275664   2.292   5.007   6.375 -0.4550 -0.4382  0.3015
18058TIP3    H175665   2.268   5.000   6.282 -3.1522 -1.4355  0.9753
18058TIP3    H275666   2.255   5.091   6.402  0.0524 -0.2970  0.5738
18059TIP3   OH275667   5.238   1.056  16.469  0.0476 -0.5645 -0.1886
18059TIP3    H175668   5.267   0.989  16.407  0.8747  0.6489 -1.1834
18059TIP3    H275669   5.173   1.106  16.420  1.7271  1.2957 -0.6937
18060TIP3   OH275670   3.716   3.041   6.296  0.1920  0.3452 -0.2638
18060TIP3    H175671   3.650   3.096   6.337 -0.5489 -0.7618  0.0683
18060TIP3    H275672   3.680   3.019   6.210 -0.3731 -1.0957  0.3094
18061TIP3   OH275673   1.666   6.324   1.354 -0.2831  0.0361  0.5237
18061TIP3    H175674   1.701   6.296   1.438 -0.0903  0.1570  0.4840
18061TIP3    H275675   1.578   6.356   1.373 -0.4139 -0.3721  0.6074
18062TIP3   OH275676   2.478   3.502   4.496  0.4624  0.7626 -0.2872
18062TIP3    H175677   2.438   3.542   4.573 -0.6228  0.3896 -0.6401
18062TIP3    H275678   2.549   3.448   4.531  1.6137  2.5444  0.2368
18063TIP3   OH275679   2.197   1.740  11.731 -0.7143  0.1290  0.0196
18063TIP3    H175680   2.129   1.803  11.753 -2.1517 -0.7361 -1.7075
18063TIP3    H275681   2.214   1.693  11.812 -0.2090  2.1183  1.1291
18064TIP3   OH275682   6.494   1.143  17.091 -0.9929 -0.1045 -0.3877
18064TIP3    H175683   6.525   1.215  17.146 -0.5636  0.2765 -1.1087
18064TIP3    H275684   6.402   1.163  17.076 -0.7624  0.5690 -0.9772
18065TIP3   OH275685   3.131   1.725   0.443  0.2604 -0.6619 -0.6123
18065TIP3    H175686   3.053   1.718   0.387  0.5992 -1.5101 -0.9949
18065TIP3    H275687   3.174   1.806   0.416 -1.4780  0.8805  0.9051
18066TIP3   OH275688   5.499   2.440   2.353  0.1160  0.1978  0.5591
18066TIP3    H175689   5.523   2.364   2.407  0.5344  0.0235  0.1370
18066TIP3    H275690   5.431   2.407   2.294 -0.5174  0.4509  1.1293
18067TIP3   OH275691   3.191   3.639   2.652 -0.0598  0.1929  0.6208
18067TIP3    H175692   3.195   3.579   2.726 -0.1123  0.1550  0.5933
18067TIP3    H275693   3.258   3.705   2.671  1.6934 -1.1589 -0.4777
18068TIP3   OH275694   5.651   2.542  15.520 -0.1608  0.1904  0.0259
18068TIP3    H175695   5.732   2.497  15.496  0.6659  2.0900 -0.9711
18068TIP3    H275696   5.632   2.512  15.609  0.7817 -1.4419 -0.2873
18069TIP3   OH275697   3.043   6.734  13.512  0.2026  0.2025  0.0927
18069TIP3    H175698   2.974   6.791  13.546  0.7202 -0.0759  1.6914
18069TIP3    H275699   3.116   6.746  13.573  1.3746  0.0650 -1.2484
18070TIP3   OH275700   1.866   6.642  13.458  0.2642  0.1608 -0.1810
18070TIP3    H175701   1.784   6.684  13.433  0.6553  1.5287  0.7085
18070TIP3    H275702   1.927   6.715  13.472  1.1473 -0.7395  0.8253
18071TIP3   OH275703   4.996   5.857  14.139  0.6256  0.0565 -0.2619
18071TIP3    H175704   5.011   5.913  14.215 -0.1933 -0.4028  0.2548
18071TIP3    H275705   4.918   5.806  14.162 -0.1967  0.5596 -1.7662
18072TIP3   OH275706   4.983   1.700   3.874  0.0765 -0.1107 -0.1516
18072TIP3    H175707   5.047   1.677   3.942 -0.0753  0.5935  0.2310
18072TIP3    H275708   4.927   1.766   3.914 -0.1554  0.1490 -0.8837
18073TIP3   OH275709   1.937   3.904  14.841 -0.3967 -0.1935  0.3187
18073TIP3    H175710   1.953   3.818  14.880  0.6256  0.1587  0.7077
18073TIP3    H275711   1.904   3.958  14.913 -0.6776 -0.1550  0.1628
18074TIP3   OH275712   4.574   1.330   4.005 -0.0023 -0.3932  0.4806
18074TIP3    H175713   4.488   1.293   4.023 -0.0107 -0.1527  0.9583
18074TIP3    H275714   4.582   1.328   3.910 -0.5403 -0.3996  0.4342
18075TIP3   OH275715   5.081   5.953   2.819  0.4045 -0.1184  0.7066
18075TIP3    H175716   5.019   6.026   2.814  0.6920  0.0762 -0.1097
18075TIP3    H275717   5.118   5.960   2.907  0.9005  1.1257  0.4249
18076TIP3   OH275718   2.346   0.605   2.999 -0.1354 -0.4680  0.4488
18076TIP3    H175719   2.410   0.640   2.937 -2.9280  2.6056 -0.9523
18076TIP3    H275720   2.350   0.510   2.985  1.8944 -0.1724 -1.7640
18077TIP3   OH275721   2.086   0.796   5.199  0.4648 -0.5383  0.1926
18077TIP3    H175722   2.145   0.738   5.151  1.6654  0.8198 -0.0324
18077TIP3    H275723   2.117   0.791   5.290 -1.5351 -2.7718  0.8694
18078TIP3   OH275724   2.207   4.708  13.388 -0.0210 -0.7125  0.6054
18078TIP3    H175725   2.134   4.678  13.334  0.7630  3.0351 -3.0380
18078TIP3    H275726   2.257   4.628  13.408 -2.6291 -2.7981 -0.6736
18079TIP3   OH275727   1.420   0.473   1.540 -0.1432 -0.3679  0.3164
18079TIP3    H175728   1.394   0.429   1.621 -0.6504  0.2679  0.5087
18079TIP3    H275729   1.483   0.540   1.568  0.1882 -0.5919  0.1019
18080TIP3   OH275730   5.638   5.387  13.617 -0.0713 -0.3193  0.2928
18080TIP3    H175731   5.652   5.293  13.606  1.8217 -0.2160  1.3266
18080TIP3    H275732   5.699   5.428  13.555  1.8655  0.1691  2.3748
18081TIP3   OH275733   0.532   1.752  14.585 -0.0861  0.1575  0.0740
18081TIP3    H175734   0.599   1.814  14.613  1.6530 -1.1906 -0.8850
18081TIP3    H275735   0.538   1.680  14.648 -0.4259 -0.1104 -0.1962
18082TIP3   OH275736   5.222   4.314  16.339  0.1927 -0.3302  0.6362
18082TIP3    H175737   5.224   4.229  16.383 -0.4511 -0.3693  0.5996
18082TIP3    H275738   5.130   4.328  16.319 -0.0243  1.3457  2.5253
18083TIP3   OH275739   3.170   3.023   3.277  0.3968  0.3655  0.4650
18083TIP3    H175740   3.087   3.024   3.325  0.0094  1.0163 -0.2003
18083TIP3    H275741   3.235   2.998   3.342 -0.5238 -1.6948  0.6755
18084TIP3   OH275742   6.475   5.184   4.747  0.1911  0.0040  0.7277
18084TIP3    H175743   6.460   5.103   4.698  1.1914 -0.2085  0.7407
18084TIP3    H275744   6.506   5.154   4.833  2.5845  0.3508  0.0752
18085TIP3   OH275745   4.673   2.122  12.410  0.3280 -0.6141 -0.5307
18085TIP3    H175746   4.601   2.175  12.446  0.3221 -1.3442  0.5552
18085TIP3    H275747   4.650   2.111  12.317 -1.3483 -1.4427 -0.0539
18086TIP3   OH275748   4.695   3.338  12.511 -0.2611 -0.1164 -0.4007
18086TIP3    H175749   4.604   3.350  12.484  0.2334  0.9066 -1.7180
18086TIP3    H275750   4.742   3.409  12.468  0.9364  0.3676  1.5802
18087TIP3   OH275751   3.609   4.848   4.669  0.0613 -0.3375 -0.0490
18087TIP3    H175752   3.548   4.800   4.614  0.8189 -1.7601  0.3082
18087TIP3    H275753   3.561   4.865   4.750  0.6759 -3.1924  1.0275
18088TIP3   OH275754   2.661   1.500  15.138 -0.2512  0.1987  0.5784
18088TIP3    H175755   2.586   1.442  15.144 -1.0143  1.2854  3.0064
18088TIP3    H275756   2.647   1.550  15.057 -0.0860 -2.1882 -1.0064
18089TIP3   OH275757   4.355   1.954   5.484 -0.5082 -0.2451 -0.3003
18089TIP3    H175758   4.273   1.963   5.436 -1.1706 -1.2883  0.5983
18089TIP3    H275759   4.398   2.039   5.474 -2.2496  0.7352  0.2240
18090TIP3   OH275760   6.750   4.954   0.484 -0.4009 -0.1899 -0.5322
18090TIP3    H175761   6.753   4.879   0.424  4.0925 -0.0456 -0.8178
18090TIP3    H275762   6.778   4.919   0.568  1.5205  0.9862 -0.6080
18091TIP3   OH275763   5.210   5.926   5.645 -0.1574 -0.0100 -0.5591
18091TIP3    H175764   5.166   5.844   5.667 -2.0453  1.1203  0.0917
18091TIP3    H275765   5.261   5.905   5.567 -1.5545 -1.5200 -1.1345
18092TIP3   OH275766   0.733   3.825   0.992  0.6324  0.0090  0.7070
18092TIP3    H175767   0.770   3.903   1.033  1.8380 -0.5191  0.6714
18092TIP3    H275768   0.797   3.756   1.009  0.3443 -0.6177 -0.5985
18093TIP3   OH275769   1.837   0.576   4.434  0.6365  0.5749 -0.2297
18093TIP3    H175770   1.791   0.493   4.443  1.1924  0.2405 -0.4483
18093TIP3    H275771   1.909   0.571   4.497  1.7851  0.1155 -1.5298
18094TIP3   OH275772   0.821   0.757  13.323  0.2068 -0.5909  0.4138
18094TIP3    H175773   0.859   0.718  13.244 -1.4813  0.7191 -1.1507
18094TIP3    H275774   0.734   0.717  13.330 -0.6970  1.1465  0.0144
18095TIP3   OH275775   5.380   1.944  13.573  0.0480 -0.1838  0.1690
18095TIP3    H175776   5.290   1.960  13.545 -0.2638 -2.4875 -0.3529
18095TIP3    H275777   5.373   1.873  13.637  1.5786 -1.4337 -0.9663
18096TIP3   OH275778   4.339   6.487  16.168 -0.9572  0.3481 -0.0462
18096TIP3    H175779   4.390   6.471  16.088 -0.8037  0.0926  0.1022
18096TIP3    H275780   4.395   6.455  16.239 -1.4102 -0.1416  0.0997
18097TIP3   OH275781   4.560   3.293   0.069  0.0056  0.1561 -0.4712
18097TIP3    H175782   4.475   3.249   0.065  0.3250 -0.3974 -2.4539
18097TIP3    H275783   4.587   3.301  -0.023  1.1953  2.1138 -0.0083
18098TIP3   OH275784   4.893   3.322   1.432 -0.2867 -0.3143 -0.5164
18098TIP3    H175785   4.976   3.348   1.393 -1.0320 -0.1164 -2.0779
18098TIP3    H275786   4.859   3.402   1.472  0.5864 -0.5657  0.7644
18099TIP3   OH275787   1.003   6.048  14.151  0.0442 -0.0040 -0.5370
18099TIP3    H175788   1.046   6.109  14.211 -2.5293  0.2675  1.1949
18099TIP3    H275789   0.915   6.084  14.140 -0.4250 -1.5513 -2.3241
18100TIP3   OH275790   5.266   6.190  12.688  0.4448  0.2086 -0.0185
18100TIP3    H175791   5.334   6.172  12.752  1.4685  2.7851 -0.2693
18100TIP3    H275792   5.249   6.284  12.697 -0.1239  0.4510 -2.7780
18101TIP3   OH275793   6.324   1.120  14.007  0.0908 -0.4876 -0.1678
18101TIP3    H175794   6.318   1.204  13.962  2.0991 -0.4988 -0.5828
18101TIP3    H275795   6.296   1.056  13.941  0.1472 -0.2656 -0.4119
18102TIP3   OH275796   1.326   2.625   2.068 -0.8804 -0.1169  0.6032
18102TIP3    H175797   1.289   2.606   1.982 -1.7406 -0.7550  1.1049
18102TIP3    H275798   1.421   2.623   2.054 -0.9863 -1.6033 -0.0347
18103TIP3   OH275799   1.624   5.197   2.030  0.3966  0.2719 -0.1297
18103TIP3    H175800   1.704   5.154   2.060  0.2283  1.0611  1.6049
18103TIP3    H275801   1.644   5.226   1.941  1.5595 -0.7001 -0.2077
18104TIP3   OH275802   0.613   5.664   5.020  0.0742  0.0538 -0.0182
18104TIP3    H175803   0.658   5.735   5.066 -3.3894  2.1319  0.4611
18104TIP3    H275804   0.530   5.653   5.066 -0.8684 -2.1606 -2.0095
18105TIP3   OH275805   4.852   1.528   3.701  0.0465  0.1224 -0.3259
18105TIP3    H175806   4.916   1.581   3.749  0.0472 -0.9929  0.9781
18105TIP3    H275807   4.905   1.474   3.643  0.0468  1.4882 -1.6652
18106TIP3   OH275808   6.675   3.787   5.551 -0.0059  0.4483  0.2786
18106TIP3    H175809   6.614   3.749   5.615 -1.1243  2.1675  0.2808
18106TIP3    H275810   6.658   3.737   5.471  0.0393 -0.4358  0.7994
18107TIP3   OH275811   4.126   2.437  16.259  0.0953 -0.0651  0.3301
18107TIP3    H175812   4.117   2.346  16.230  0.5856 -0.0631  0.1654
18107TIP3    H275813   4.040   2.458  16.295  0.0285 -0.6469  0.5314
18108TIP3   OH275814   6.036   4.859   4.077  0.8898 -0.0671  0.2947
18108TIP3    H175815   6.031   4.769   4.108 -0.9849 -0.3778 -0.8144
18108TIP3    H275816   6.034   4.912   4.157 -2.1622 -0.9047  0.8702
18109TIP3   OH275817   6.529   4.546  14.206 -0.2395  0.8474 -0.4040
18109TIP3    H175818   6.622   4.526  14.204  0.1588  2.5902 -2.0972
18109TIP3    H275819   6.508   4.572  14.116 -2.1600  1.3530  0.1366
18110TIP3   OH275820   2.003   6.295   1.298 -0.7763 -0.3123 -0.6293
18110TIP3    H175821   2.032   6.351   1.226 -1.4957  2.0958  0.8530
18110TIP3    H275822   1.909   6.309   1.304 -0.3913  2.2723  2.7525
18111TIP3   OH275823   5.188   3.458   3.226 -0.3155 -0.2627 -0.0791
18111TIP3    H175824   5.182   3.367   3.255 -0.6977 -0.1883  0.0821
18111TIP3    H275825   5.217   3.507   3.303 -2.3076  0.0896  0.5113
18112TIP3   OH275826   2.383   5.012   4.165  0.7655 -0.1397  0.1518
18112TIP3    H175827   2.411   4.954   4.236  2.5283  0.5804  0.0773
18112TIP3    H275828   2.454   5.074   4.155  0.0059  0.5224 -1.4571
18113TIP3   OH275829   6.263   0.579   2.231 -0.4228  0.4134 -0.2212
18113TIP3    H175830   6.341   0.542   2.273 -1.2403  2.1409  3.1029
18113TIP3    H275831   6.198   0.509   2.235 -0.4881  0.5492  1.4741
18114TIP3   OH275832   1.356   1.676  12.064 -0.2160 -0.0591 -0.1306
18114TIP3    H175833   1.307   1.597  12.040 -0.2500  0.5527 -2.3306
18114TIP3    H275834   1.295   1.729  12.114 -0.9377 -0.4844 -0.5418
18115TIP3   OH275835   5.981   5.419  12.952  0.1928 -0.4970 -0.2511
18115TIP3    H175836   6.064   5.452  12.987  0.0147 -0.1201 -0.1816
18115TIP3    H275837   5.928   5.403  13.030 -0.1768  0.2699 -0.3382
18116TIP3   OH275838   1.957   5.217  15.671 -0.1694  0.3523 -0.3368
18116TIP3    H175839   1.974   5.125  15.650  1.4736  0.5239  0.1085
18116TIP3    H275840   1.862   5.223  15.678 -0.2705 -1.5949  0.8131
18117TIP3   OH275841   1.427   4.368   3.671 -0.1459  0.2288 -0.1042
18117TIP3    H175842   1.480   4.348   3.747 -0.8153 -0.4551  0.1961
18117TIP3    H275843   1.425   4.464   3.668  0.9317  0.2674 -0.0227
18118TIP3   OH275844   4.762   2.241   1.427 -0.5704  0.1617 -0.0024
18118TIP3    H175845   4.849   2.203   1.413 -0.3932  0.7019 -0.4069
18118TIP3    H275846   4.752   2.304   1.356 -0.9221  0.7545  0.5575
18119TIP3   OH275847   5.864   5.228   1.247  0.3919  0.1753  0.0237
18119TIP3    H175848   5.860   5.260   1.156 -0.3201 -0.4047 -0.1577
18119TIP3    H275849   5.915   5.294   1.293  2.9848 -0.7228 -1.3218
18120TIP3   OH275850   2.728   5.890   4.794  0.1770 -0.0925 -0.2271
18120TIP3    H175851   2.749   5.875   4.886  1.1920  0.1100 -0.4116
18120TIP3    H275852   2.805   5.936   4.759  0.5509 -1.6780 -1.5821
18121TIP3   OH275853   0.124   4.846   4.353  0.0832 -0.4013  0.3279
18121TIP3    H175854   0.120   4.907   4.426  2.1962  0.7682 -0.4293
18121TIP3    H275855   0.142   4.761   4.394 -1.2827 -0.2472  1.2990
18122TIP3   OH275856   2.367   0.352  16.136  0.0901  0.0893 -0.5151
18122TIP3    H175857   2.293   0.412  16.142  1.4689  1.8144  0.2869
18122TIP3    H275858   2.364   0.302  16.218 -0.2250  0.1044 -0.5152
18123TIP3   OH275859   0.928   2.134   3.451  0.4047 -0.0651 -0.3758
18123TIP3    H175860   0.893   2.105   3.536  0.0811  2.0102  0.2532
18123TIP3    H275861   0.885   2.078   3.387 -0.6890 -0.5182  0.7083
18124TIP3   OH275862   3.281   2.433  13.840 -0.9048  0.1856 -0.0006
18124TIP3    H175863   3.311   2.471  13.923 -2.9155 -0.7083  1.2147
18124TIP3    H275864   3.199   2.478  13.822 -1.1674 -0.5903 -0.7955
18125TIP3   OH275865   0.888   6.810  11.275 -0.0861  0.2917 -0.3100
18125TIP3    H175866   0.835   6.781  11.350  0.0041  0.2660 -0.2555
18125TIP3    H275867   0.979   6.795  11.303 -0.0715 -2.2773 -1.4419
18126TIP3   OH275868   1.575   0.087  13.158  0.5631  0.2818  0.3015
18126TIP3    H175869   1.550   0.100  13.067  1.2739  1.1847  0.2215
18126TIP3    H275870   1.563  -0.007  13.173 -0.3982  0.2713 -0.4502
18127TIP3   OH275871   2.550   6.313  16.600  0.3249  0.7635 -0.7062
18127TIP3    H175872   2.467   6.287  16.560 -0.2322  0.6077  0.5378
18127TIP3    H275873   2.616   6.261  16.553 -0.4297 -0.2617 -0.6598
18128TIP3   OH275874   3.559   5.980   4.964  0.3097 -0.4683 -0.2200
18128TIP3    H175875   3.632   5.920   4.979  0.9258  0.6438  1.5480
18128TIP3    H275876   3.492   5.951   5.026 -0.1931 -0.5633 -0.7968
18129TIP3   OH275877   0.899   2.728   0.415 -0.2749 -0.3322 -0.2205
18129TIP3    H175878   0.966   2.702   0.351  1.1458 -2.8757  2.0565
18129TIP3    H275879   0.923   2.817   0.440 -0.2457  0.3147 -2.3814
18130TIP3   OH275880   4.563   2.650   2.470 -0.0063  0.2005  0.4542
18130TIP3    H175881   4.572   2.692   2.384  0.8200 -2.6261 -0.9711
18130TIP3    H275882   4.482   2.599   2.463  1.0598 -1.5851  0.5774
18131TIP3   OH275883   4.834   3.506  15.489  0.1067 -0.2521 -0.5273
18131TIP3    H175884   4.759   3.461  15.527 -0.3364  0.0922 -0.9728
18131TIP3    H275885   4.817   3.507  15.395  1.6307 -1.8940 -0.8590
18132TIP3   OH275886   5.314   2.463   0.585 -0.1729  0.1035  0.5556
18132TIP3    H175887   5.228   2.422   0.583 -0.3442  0.4712  0.0487
18132TIP3    H275888   5.371   2.400   0.629 -0.7747  0.0075  1.2025
18133TIP3   OH275889   1.207   1.228  12.507  0.0751  0.4216  0.5481
18133TIP3    H175890   1.112   1.235  12.517  0.1452 -0.3195  2.0146
18133TIP3    H275891   1.240   1.218  12.596  1.4913  0.1085  0.0191
18134TIP3   OH275892   6.541   1.245   6.102  0.3201 -0.1768  0.0761
18134TIP3    H175893   6.500   1.280   6.181  0.2121 -1.3416  0.5595
18134TIP3    H275894   6.555   1.152   6.122  0.3696 -0.4662 -1.2450
18135TIP3   OH275895   5.419   4.153  17.114  0.0854  0.3982  0.1629
18135TIP3    H175896   5.343   4.160  17.173 -0.6750  1.7594 -0.9208
18135TIP3    H275897   5.409   4.068  17.072 -1.8337  1.2359 -1.2137
18136TIP3   OH275898   5.255   0.568   3.221  0.1514  0.0326  0.4399
18136TIP3    H175899   5.254   0.620   3.140 -1.0385 -0.4579  0.1047
18136TIP3    H275900   5.169   0.526   3.223  0.8286 -1.4041  1.0359
18137TIP3   OH275901   0.600   3.285   4.542 -0.3310  0.5706 -0.2758
18137TIP3    H175902   0.511   3.288   4.577 -0.4616 -0.3517 -0.5261
18137TIP3    H275903   0.655   3.306   4.618 -0.5491 -2.2405  0.7649
18138TIP3   OH275904   4.934   6.069   4.198 -1.1407 -1.2314  0.0724
18138TIP3    H175905   4.916   5.976   4.183  0.3279 -1.6378  0.6893
18138TIP3    H275906   4.919   6.081   4.292 -0.1252 -1.1433  0.2289
18139TIP3   OH275907   6.647   1.514   4.729  0.5094  0.6972  0.0103
18139TIP3    H175908   6.620   1.432   4.689  1.3367  0.4965 -0.1419
18139TIP3    H275909   6.587   1.579   4.692  0.2267  0.2618 -0.3126
18140TIP3   OH275910   4.467   5.533   2.064 -0.5526 -0.5284  0.0764
18140TIP3    H175911   4.533   5.495   2.121 -0.1856 -0.3404 -0.2239
18140TIP3    H275912   4.403   5.571   2.124  2.0468  3.7409  0.5181
18141TIP3   OH275913   5.943   3.337   4.252 -0.5660  0.1801 -0.4206
18141TIP3    H175914   5.926   3.299   4.338 -1.8073  0.1717 -0.6447
18141TIP3    H275915   6.018   3.288   4.218  0.0128  0.2666  0.6888
18142TIP3   OH275916   1.850   0.317   2.058 -0.2642  0.1159 -0.9679
18142TIP3    H175917   1.782   0.332   2.123 -1.3509  1.4712 -2.3451
18142TIP3    H275918   1.866   0.403   2.020  0.0097 -0.6949 -2.7974
18143TIP3   OH275919   1.370   3.310  14.618  0.9243  0.7329 -0.6847
18143TIP3    H175920   1.371   3.253  14.542  0.5000  0.4933 -0.5131
18143TIP3    H275921   1.280   3.342  14.623  0.5914 -0.2968  0.4754
18144TIP3   OH275922   1.673   6.747  14.191  1.0032  0.7203  0.1761
18144TIP3    H175923   1.612   6.822  14.186  0.8145  0.6569  1.4064
18144TIP3    H275924   1.723   6.761  14.271  0.2248 -1.0128  1.0232
18145TIP3   OH275925   1.649   4.864  15.667 -0.4638  0.3567 -0.0305
18145TIP3    H175926   1.741   4.887  15.649 -0.2437 -0.3904  0.0960
18145TIP3    H275927   1.643   4.771  15.643 -0.6946 -0.1080  1.7233
18146TIP3   OH275928   2.786   2.197   5.472  0.0875 -0.7699 -0.2421
18146TIP3    H175929   2.795   2.154   5.558 -0.8895  0.0260  0.2797
18146TIP3    H275930   2.692   2.208   5.461  0.2273 -0.5557 -1.2745
18147TIP3   OH275931   6.487   0.326   2.316  0.3975  0.0219 -0.0075
18147TIP3    H175932   6.509   0.371   2.234 -0.7729  0.9976  0.1783
18147TIP3    H275933   6.537   0.371   2.383  0.2031  0.2265  0.0039
18148TIP3   OH275934   2.535   5.052   6.514  0.0848 -0.2151  0.2116
18148TIP3    H175935   2.591   5.009   6.448  0.5916  0.2934  0.2992
18148TIP3    H275936   2.446   5.040   6.482  0.3615  0.6532 -0.9754
18149TIP3   OH275937   4.740   1.169  16.999 -0.0232  0.5738 -0.4133
18149TIP3    H175938   4.661   1.118  16.982 -0.1920  0.7815 -0.2602
18149TIP3    H275939   4.718   1.258  16.971  0.4495  0.4621 -1.1734
18150TIP3   OH275940   2.695   0.025  15.301  0.0668  0.4050  0.0478
18150TIP3    H175941   2.696   0.059  15.211 -2.3000 -0.1374 -0.2463
18150TIP3    H275942   2.668   0.099  15.355  1.5360  0.7440  0.3673
18151TIP3   OH275943   5.384   4.882   1.636 -0.5449  0.3495 -0.4377
18151TIP3    H175944   5.452   4.916   1.694 -0.4689 -0.0546 -0.2921
18151TIP3    H275945   5.326   4.831   1.693 -1.5786  1.5565 -0.3547
18152TIP3   OH275946   4.653   4.533   4.485 -0.3109  0.4332 -0.0009
18152TIP3    H175947   4.656   4.596   4.556  0.6768  0.4798 -0.0741
18152TIP3    H275948   4.560   4.525   4.464 -0.6457  0.2018  1.4765
18153TIP3   OH275949   3.839   6.665   1.725  0.0294  0.1846 -0.0070
18153TIP3    H175950   3.913   6.715   1.760  1.1967  0.2812 -2.4446
18153TIP3    H275951   3.854   6.576   1.755  0.2493  0.4965  0.8336
18154TIP3   OH275952   3.886   0.789  12.772  0.6327 -0.0951  0.0924
18154TIP3    H175953   3.858   0.741  12.694 -0.3360  0.1156  0.2945
18154TIP3    H275954   3.840   0.747  12.844 -0.2936  1.1576  0.2664
18155TIP3   OH275955   6.732   1.843   2.930  0.0540 -0.0280  0.5039
18155TIP3    H175956   6.690   1.926   2.953  0.8443  0.0720  1.6595
18155TIP3    H275957   6.776   1.815   3.010 -1.4809 -2.3682  0.6027
18156TIP3   OH275958   2.266   3.353  14.763  0.5424  1.0925 -0.2618
18156TIP3    H175959   2.324   3.290  14.806 -0.5851  2.0628  3.0261
18156TIP3    H275960   2.322   3.429  14.747  1.0855  0.5680 -0.8826
18157TIP3   OH275961   4.160   4.113   2.005 -0.0085  0.8380  0.3438
18157TIP3    H175962   4.155   4.155   2.090  0.3473  0.0390  0.7737
18157TIP3    H275963   4.205   4.030   2.022  0.4354  0.8488 -0.6892
18158TIP3   OH275964   3.202   3.809  15.832  0.2756 -0.2762  0.0914
18158TIP3    H175965   3.123   3.861  15.850 -0.1922  0.2091 -2.7981
18158TIP3    H275966   3.216   3.820  15.738  2.8340 -1.7561  0.2210
18159TIP3   OH275967   0.655   4.522   5.259 -0.4972 -0.6534 -0.1252
18159TIP3    H175968   0.666   4.617   5.264 -0.0334 -0.6842 -0.4864
18159TIP3    H275969   0.735   4.491   5.217 -1.5411 -0.9921 -1.9846
18160TIP3   OH275970   5.187   6.743  14.004  0.8745 -0.5448 -0.0754
18160TIP3    H175971   5.173   6.722  13.912  1.0925  0.2200 -0.2880
18160TIP3    H275972   5.124   6.812  14.023  0.1124 -1.4172  0.6337
18161TIP3   OH275973   0.368   2.734  15.408 -0.0710  0.5657 -0.3219
18161TIP3    H175974   0.446   2.743  15.463 -0.3963 -0.3937  0.3162
18161TIP3    H275975   0.399   2.690  15.329  0.3643  1.7969 -0.8685
18162TIP3   OH275976   3.510   0.608   3.264 -0.0350  0.0109  0.4412
18162TIP3    H175977   3.551   0.623   3.179 -1.6550  0.8468 -0.2215
18162TIP3    H275978   3.549   0.675   3.321 -1.6232  1.8899 -0.5980
18163TIP3   OH275979   4.176   3.484  12.759 -0.2799  0.2562 -0.3220
18163TIP3    H175980   4.144   3.422  12.825  2.4796  1.1611  2.0408
18163TIP3    H275981   4.245   3.437  12.713  0.1157  0.7450 -0.2340
18164TIP3   OH275982   4.234   5.143  14.762  0.0428 -0.5272  0.3945
18164TIP3    H175983   4.202   5.199  14.832 -1.4360 -2.8810  1.7522
18164TIP3    H275984   4.177   5.161  14.688  1.4377  1.7805 -0.2104
18165TIP3   OH275985   6.414   4.144  17.142 -0.0364 -0.2405 -0.1919
18165TIP3    H175986   6.409   4.050  17.130  1.9119 -0.5404  0.8356
18165TIP3    H275987   6.422   4.180  17.054 -1.8705 -0.8950 -0.6714
18166TIP3   OH275988   3.580   2.317   1.995  0.5651  0.0515  0.2311
18166TIP3    H175989   3.569   2.315   2.090 -0.2797 -0.6374  0.1260
18166TIP3    H275990   3.549   2.232   1.965 -2.3212  1.3971 -0.9851
18167TIP3   OH275991   4.483   6.333   5.638 -0.4152  0.7915 -0.3083
18167TIP3    H175992   4.411   6.311   5.696 -0.0062 -0.3914 -0.2333
18167TIP3    H275993   4.464   6.286   5.557  0.8843 -0.5648  0.1268
18168TIP3   OH275994   1.814   1.757  15.272  0.1009 -0.7950 -0.1600
18168TIP3    H175995   1.894   1.708  15.255  1.2005  0.6795  0.5915
18168TIP3    H275996   1.811   1.766  15.367  0.4307  1.3143 -0.2965
18169TIP3   OH275997   5.835   1.262   5.467 -0.2516 -0.0098 -0.5519
18169TIP3    H175998   5.883   1.259   5.384 -0.8444 -0.7184 -0.8686
18169TIP3    H275999   5.870   1.340   5.511  0.8301 -0.2289 -0.9958
18170TIP3   OH276000   6.666   0.296   3.317  0.5758  0.2819 -0.2933
18170TIP3    H176001   6.636   0.327   3.403  1.4541  0.3736  0.0002
18170TIP3    H276002   6.628   0.209   3.308 -0.2215  0.6175 -0.1950
18171TIP3   OH276003   2.545   5.398   0.721 -0.2668 -0.0553 -0.0140
18171TIP3    H176004   2.535   5.372   0.812 -1.5876 -1.0868 -0.4343
18171TIP3    H276005   2.465   5.445   0.699  0.1898  0.5018 -0.5554
18172TIP3   OH276006   0.213   0.294   4.861 -0.1428 -0.0538 -0.3092
18172TIP3    H176007   0.210   0.386   4.835 -0.1151 -0.2289 -0.9350
18172TIP3    H276008   0.253   0.295   4.948 -0.4512  0.5542 -0.1672
18173TIP3   OH276009   3.669   0.357  15.750 -0.4004 -0.6731  0.9861
18173TIP3    H176010   3.612   0.403  15.812  0.1285 -0.9517  1.6856
18173TIP3    H276011   3.610   0.298  15.703 -1.2569  1.2596 -0.5089
18174TIP3   OH276012   4.537   6.318  11.382 -0.0395  0.1066 -0.0705
18174TIP3    H176013   4.591   6.367  11.319 -0.6987  0.9140 -0.0324
18174TIP3    H276014   4.455   6.368  11.386 -0.5480 -0.7456  0.3458
18175TIP3   OH276015   1.699   1.800   1.739 -0.0652  0.1338 -0.5645
18175TIP3    H176016   1.778   1.790   1.686 -0.4867  0.5487 -1.2834
18175TIP3    H276017   1.638   1.735   1.703  0.2864 -0.9057  0.6589
18176TIP3   OH276018   4.762   3.067   1.409 -0.4689  0.3752  0.0716
18176TIP3    H176019   4.774   3.012   1.331  0.7660 -0.4674  0.8324
18176TIP3    H276020   4.809   3.148   1.389 -0.0228  0.1008 -0.0121
18177TIP3   OH276021   2.341   6.756  11.987 -0.2855 -0.1294 -0.6327
18177TIP3    H176022   2.356   6.763  11.892  0.4137  2.7900 -0.3981
18177TIP3    H276023   2.294   6.674  11.997  0.5156 -1.0521 -3.3989
18178TIP3   OH276024   3.180   4.480  12.867  0.0119 -0.5045  0.6216
18178TIP3    H176025   3.174   4.521  12.780  1.2783  0.6597  1.0406
18178TIP3    H276026   3.103   4.424  12.872 -0.0460 -0.6823 -1.2916
18179TIP3   OH276027   4.843   0.019  15.917 -0.4531 -0.1603  0.2704
18179TIP3    H176028   4.782  -0.041  15.961 -2.3303  0.5617 -1.2631
18179TIP3    H276029   4.921  -0.035  15.901 -1.3032 -1.5912  0.7701
18180TIP3   OH276030   0.347   6.236   1.927  1.1032  0.0809 -0.3588
18180TIP3    H176031   0.332   6.233   2.021  1.5515  0.9190 -0.2535
18180TIP3    H276032   0.437   6.205   1.916  0.7165 -1.0145 -0.6201
18181TIP3   OH276033   2.651   3.635   3.216 -0.0465  0.5323  0.5883
18181TIP3    H176034   2.665   3.570   3.147  1.8226  1.7807 -0.2931
18181TIP3    H276035   2.732   3.633   3.267  0.5310  2.8945 -0.1305
18182TIP3   OH276036   6.558   1.394   1.041 -0.1750 -0.0336 -0.3259
18182TIP3    H176037   6.620   1.423   1.108  0.0128 -1.0157 -0.0587
18182TIP3    H276038   6.608   1.400   0.959  0.1952 -0.5591 -0.1457
18183TIP3   OH276039   2.891   4.549   6.539 -0.3425  0.5888 -0.1770
18183TIP3    H176040   2.946   4.472   6.548  1.5748  1.8971 -0.1542
18183TIP3    H276041   2.873   4.577   6.629 -0.9428  0.2666 -0.1874
18184TIP3   OH276042   3.679   2.088  15.593  0.4863  0.2202 -0.4438
18184TIP3    H176043   3.740   2.017  15.610 -0.7264 -0.6722  0.3959
18184TIP3    H276044   3.700   2.118  15.505  1.3405 -0.8546 -0.6208
18185TIP3   OH276045   5.655   6.810  11.928  0.4898 -0.0139 -0.1932
18185TIP3    H176046   5.626   6.899  11.946  2.7005  0.5250  0.9435
18185TIP3    H276047   5.694   6.815  11.840 -1.3704 -0.4279 -1.1059
18186TIP3   OH276048   2.289   0.607   1.197 -0.3457  0.1134  0.1688
18186TIP3    H176049   2.272   0.599   1.103 -1.4077 -2.2176  0.4982
18186TIP3    H276050   2.383   0.592   1.206 -0.6301 -2.3665 -0.3400
18187TIP3   OH276051   6.587   6.341  13.386 -0.4867 -0.0467  0.1112
18187TIP3    H176052   6.564   6.260  13.340  0.6703 -0.8982  0.9776
18187TIP3    H276053   6.561   6.411  13.326 -0.3799 -1.0843 -1.1882
18188TIP3   OH276054   6.508   6.793   5.155  0.0880 -0.1413 -0.4157
18188TIP3    H176055   6.478   6.755   5.072 -0.2672 -1.9598  0.4905
18188TIP3    H276056   6.428   6.804   5.207  0.4689 -0.6817  0.3097
18189TIP3   OH276057   4.779   5.748  15.480  0.4397  0.3119  0.1639
18189TIP3    H176058   4.689   5.745  15.448  0.4254  2.0672 -0.0638
18189TIP3    H276059   4.770   5.770  15.573  0.6259  1.6138 -0.1021
18190TIP3   OH276060   2.592   2.000   4.365 -0.2556  0.4261 -0.1268
18190TIP3    H176061   2.539   2.010   4.444 -0.9572 -0.7952 -0.4217
18190TIP3    H276062   2.587   2.084   4.321  0.0937  1.1027  1.0929
18191TIP3   OH276063   0.733   5.588   2.912  0.1887 -0.0790 -0.3782
18191TIP3    H176064   0.796   5.526   2.950 -0.6149 -0.2238  0.7606
18191TIP3    H276065   0.721   5.655   2.980  0.9859  1.3135 -1.5631
18192TIP3   OH276066   4.514   6.570  15.562 -0.1162 -0.1119  0.0473
18192TIP3    H176067   4.599   6.543  15.597 -0.3896  0.6306  1.3567
18192TIP3    H276068   4.451   6.546  15.631 -1.5282 -3.7318 -2.1850
18193TIP3   OH276069   1.372   4.438  13.857  0.1117 -0.0846 -0.6298
18193TIP3    H176070   1.386   4.533  13.852 -0.5466 -0.0094 -1.3954
18193TIP3    H276071   1.340   4.423  13.946 -1.1477  0.6302 -0.9341
18194TIP3   OH276072   1.340   0.869   0.103  0.1730  0.2035 -0.2269
18194TIP3    H176073   1.375   0.917   0.029 -1.2445 -0.1751 -1.1798
18194TIP3    H276074   1.401   0.796   0.116  0.3580  0.1955 -1.1098
18195TIP3   OH276075   0.562   2.326   6.254  0.1365  0.2623 -0.0253
18195TIP3    H176076   0.543   2.317   6.347  1.9950  0.1180  0.3893
18195TIP3    H276077   0.597   2.240   6.229  1.2868  0.8173 -0.3999
18196TIP3   OH276078   3.108   2.571  10.636  0.5533 -0.0167 -0.6641
18196TIP3    H176079   3.126   2.479  10.655 -0.4994 -0.3407 -1.1091
18196TIP3    H276080   3.012   2.575  10.629  0.5178  1.3131  0.3138
18197TIP3   OH276081   0.074   5.719   4.065  0.5742 -0.1304  0.2744
18197TIP3    H176082   0.111   5.635   4.092  0.1460 -0.5498 -0.4062
18197TIP3    H276083  -0.020   5.703   4.061  0.5801  0.0456 -0.9576
18198TIP3   OH276084   5.485   3.868   2.864  0.0560  0.1424 -0.1043
18198TIP3    H176085   5.407   3.842   2.814 -0.9150 -0.2516  1.5657
18198TIP3    H276086   5.509   3.953   2.827 -1.0869  0.2192 -0.7374
18199TIP3   OH276087   5.570   4.311   4.135  0.4360  0.3040 -0.8339
18199TIP3    H176088   5.529   4.343   4.054 -1.7130 -0.7966 -0.2570
18199TIP3    H276089   5.572   4.216   4.124  0.3875  0.1640  0.2732
18200TIP3   OH276090   3.748   1.034   4.403 -0.7669  0.6053 -0.0668
18200TIP3    H176091   3.717   1.094   4.336  0.7354  2.9497  1.2058
18200TIP3    H276092   3.835   1.067   4.426 -0.1358 -1.7156  1.1577
18201TIP3   OH276093   6.210   1.627  12.671  0.7595 -0.2510 -0.0321
18201TIP3    H176094   6.140   1.574  12.710  0.5199 -0.0207 -0.1431
18201TIP3    H276095   6.230   1.584  12.588  0.3879 -0.0308 -0.2420
18202TIP3   OH276096   4.648   3.457   1.992 -0.2089 -0.7648  0.1209
18202TIP3    H176097   4.713   3.501   1.939 -2.4148  0.1728 -2.0057
18202TIP3    H276098   4.647   3.505   2.075  0.2054  0.6527 -0.6718
18203TIP3   OH276099   2.141   2.256  14.331 -0.1870 -0.1391 -0.4113
18203TIP3    H176100   2.069   2.289  14.384 -0.4720 -0.1285 -0.8001
18203TIP3    H276101   2.220   2.276  14.382 -0.2850  1.8816 -1.0003
18204TIP3   OH276102   3.777   5.611  11.149  0.1897  0.0792 -0.3639
18204TIP3    H176103   3.682   5.605  11.142  0.0803  0.9179  0.2776
18204TIP3    H276104   3.798   5.699  11.119  0.6788  0.1885  0.2703
18205TIP3   OH276105   6.064   5.856  12.251  0.2121 -0.6013  0.4134
18205TIP3    H176106   6.013   5.843  12.171  1.5289  0.9674 -0.7542
18205TIP3    H276107   6.032   5.939  12.287  2.3280  0.8404 -0.7738
18206TIP3   OH276108   4.218   5.327  14.972 -0.1262 -0.2579 -0.0909
18206TIP3    H176109   4.197   5.419  14.957 -0.3773 -0.0238  1.4447
18206TIP3    H276110   4.262   5.327  15.058  0.5568 -1.4862 -0.4171
18207TIP3   OH276111   0.963   3.040  17.188 -0.5352  0.3781 -0.0732
18207TIP3    H176112   0.937   2.961  17.141 -0.9788  1.6734 -2.1570
18207TIP3    H276113   0.929   3.029  17.277 -0.4973 -1.7740 -0.2916
18208TIP3   OH276114   4.621   1.441  17.006 -0.8618 -0.8575 -0.0310
18208TIP3    H176115   4.563   1.514  17.027  0.1315  0.1407 -0.6290
18208TIP3    H276116   4.706   1.467  17.042 -0.2165 -1.1587 -1.2556
18209TIP3   OH276117   1.596   2.593  11.067  0.5865 -0.2407 -0.0270
18209TIP3    H176118   1.688   2.600  11.092  1.0915 -2.0281 -1.1735
18209TIP3    H276119   1.598   2.571  10.974 -1.0108 -0.1126 -0.1164
18210TIP3   OH276120   1.208   3.270   5.507 -0.3994  0.3786  0.0245
18210TIP3    H176121   1.196   3.176   5.498 -0.4127  0.2480  1.2488
18210TIP3    H276122   1.147   3.296   5.576  1.2878  0.8727  1.4056
18211TIP3   OH276123   2.468   4.381  16.158  0.7475 -0.0774  0.2034
18211TIP3    H176124   2.446   4.394  16.250 -0.7509 -0.2810 -0.1059
18211TIP3    H276125   2.448   4.465  16.117  1.5056  0.0434  0.0643
18212TIP3   OH276126   1.065   4.403  15.305 -0.3565 -0.5558 -0.2506
18212TIP3    H176127   1.076   4.310  15.285  1.2822 -0.1614 -1.4423
18212TIP3    H276128   0.977   4.410  15.341 -0.4412 -2.5961  0.0588
18213TIP3   OH276129   1.553   3.362  12.294 -0.2336 -0.2894  0.3960
18213TIP3    H176130   1.621   3.311  12.338 -0.3188 -0.9825 -0.2662
18213TIP3    H276131   1.471   3.329  12.330 -0.2785 -0.4906  0.1174
18214TIP3   OH276132   5.708   5.448  13.976  0.4956 -0.4458  0.0662
18214TIP3    H176133   5.686   5.465  13.885  0.3434 -1.2880 -0.0637
18214TIP3    H276134   5.637   5.391  14.007 -0.9352  1.9520  1.4944
18215TIP3   OH276135   1.654   3.205  15.307 -0.1211  0.2698  0.0121
18215TIP3    H176136   1.714   3.239  15.373 -1.7594  2.3736  0.5074
18215TIP3    H276137   1.709   3.149  15.252  1.8805  0.6522  1.4973
18216TIP3   OH276138   1.765   3.196  16.569 -0.1884 -0.5507 -0.1510
18216TIP3    H176139   1.857   3.218  16.554  0.5245 -1.6569  2.2366
18216TIP3    H276140   1.756   3.107  16.535 -0.3234 -0.5302 -0.1701
18217TIP3   OH276141   4.432   0.304  16.842 -0.2130 -0.2911 -0.1018
18217TIP3    H176142   4.406   0.212  16.848  0.2643 -0.4246 -0.0421
18217TIP3    H276143   4.368   0.350  16.895 -0.3641 -0.6105 -0.0040
18218TIP3   OH276144   5.371   3.445   6.660 -0.1482  0.0532  0.7042
18218TIP3    H176145   5.385   3.412   6.749 -1.7836  0.2714  1.0911
18218TIP3    H276146   5.300   3.390   6.626 -0.5667  0.9503  0.1029
18219TIP3   OH276147   2.984   6.783  15.028  0.1393 -0.2402 -0.6477
18219TIP3    H176148   3.046   6.732  15.080  1.0569  0.5204 -0.9682
18219TIP3    H276149   2.973   6.864  15.077 -0.0706 -0.0973 -0.9327
18220TIP3   OH276150   6.167   2.818   2.487  0.2793  0.0996  0.3343
18220TIP3    H176151   6.143   2.826   2.580  1.4473 -0.2307  0.6793
18220TIP3    H276152   6.253   2.776   2.488  0.4504  0.3911 -0.8940
18221TIP3   OH276153   5.705   3.886  15.640  0.3825  0.9117 -0.2366
18221TIP3    H176154   5.709   3.952  15.571  1.1774 -0.4776 -1.5861
18221TIP3    H276155   5.792   3.844  15.638 -0.1588 -0.2987  0.4412
18222TIP3   OH276156   4.398   2.076   2.862 -0.1725 -0.5311  0.0523
18222TIP3    H176157   4.407   1.999   2.918 -0.6049 -1.4692 -1.1254
18222TIP3    H276158   4.447   2.054   2.782 -0.9967  0.0724 -0.6374
18223TIP3   OH276159   6.258   6.819   3.565  0.5413 -0.2841  0.0897
18223TIP3    H176160   6.230   6.905   3.535  1.7809  0.7103  1.6889
18223TIP3    H276161   6.195   6.795   3.633 -0.7434 -1.3998 -1.4170
18224TIP3   OH276162   0.226   1.526   3.481  0.7443 -0.2982  0.1946
18224TIP3    H176163   0.217   1.497   3.390  0.4831 -1.0558  0.4558
18224TIP3    H276164   0.226   1.445   3.532  2.6609 -0.0048  0.7373
18225TIP3   OH276165   2.594   5.144   0.636 -0.5467 -0.2672  0.2243
18225TIP3    H176166   2.570   5.092   0.712 -1.8366 -0.0402 -0.0093
18225TIP3    H276167   2.578   5.235   0.662 -5.6608 -0.3137 -1.7233
18226TIP3   OH276168   4.455   3.106  14.106 -0.0387  0.4709  0.1387
18226TIP3    H176169   4.419   3.187  14.142  0.7272  1.2367 -0.7719
18226TIP3    H276170   4.434   3.110  14.013 -1.1297 -1.0122  0.2713
18227TIP3   OH276171   3.196   2.297   1.948  0.0357  0.1225  0.4496
18227TIP3    H176172   3.104   2.274   1.956  0.0233  0.3309  0.9703
18227TIP3    H276173   3.236   2.221   1.905 -0.4403  0.1909 -0.1277
18228TIP3   OH276174   5.645   2.607   1.558 -0.3146  0.1199 -0.3190
18228TIP3    H176175   5.643   2.638   1.648  0.0108 -1.0189  0.0929
18228TIP3    H276176   5.559   2.568   1.544 -0.1658 -0.2191 -0.3065
18229TIP3   OH276177   5.079   4.332   1.487 -0.0444  0.3097 -0.0641
18229TIP3    H176178   5.092   4.277   1.564 -0.7890  1.2810  0.7960
18229TIP3    H276179   5.028   4.278   1.427  0.9710 -0.6369 -0.0994
18230TIP3   OH276180   5.210   4.073  16.879 -0.1780 -0.2285 -0.1075
18230TIP3    H176181   5.134   4.077  16.938 -0.7543 -0.9981 -0.7756
18230TIP3    H276182   5.263   4.001  16.915  0.4159  0.5217  0.5502
18231TIP3   OH276183   5.459   6.645  12.067 -0.0216  0.0770  0.1049
18231TIP3    H176184   5.522   6.670  11.999 -0.9915  1.4368 -0.3328
18231TIP3    H276185   5.477   6.704  12.140 -1.6313  1.4442 -0.5341
18232TIP3   OH276186   3.725   6.099   2.898 -0.0251  0.2955 -0.2527
18232TIP3    H176187   3.710   6.099   2.803 -1.9005 -2.6025 -0.0855
18232TIP3    H276188   3.775   6.019   2.914  1.7762  1.6242  1.0816
18233TIP3   OH276189   5.077   4.152  13.514  0.1351  0.1233 -0.3647
18233TIP3    H176190   5.006   4.170  13.576  0.8575 -2.7515  1.4592
18233TIP3    H276191   5.115   4.238  13.496 -0.3773  1.1629  2.8979
18234TIP3   OH276192   3.795   1.107   3.995  0.2559  0.1270 -0.0436
18234TIP3    H176193   3.840   1.109   4.080 -0.5804 -0.3244  0.4222
18234TIP3    H276194   3.852   1.053   3.940  0.4129 -0.2430  0.4686
18235TIP3   OH276195   5.096   2.539   2.338  0.0261  0.8213  0.3326
18235TIP3    H176196   5.053   2.491   2.409 -0.4639 -0.9634 -1.0789
18235TIP3    H276197   5.093   2.478   2.264  0.8986  2.4473 -1.0958
18236TIP3   OH276198   0.724   0.166  14.266  0.5045 -0.1386 -0.1066
18236TIP3    H176199   0.699   0.256  14.288 -2.5874 -0.7191 -0.7721
18236TIP3    H276200   0.810   0.174  14.225 -0.0548  2.6132 -0.9287
18237TIP3   OH276201   5.156   6.178   4.062 -0.2089 -0.2072  0.2984
18237TIP3    H176202   5.073   6.147   4.099  0.0399 -1.2694  0.0242
18237TIP3    H276203   5.171   6.120   3.987 -0.4911  1.6238 -1.2317
18238TIP3   OH276204   3.933   3.844   0.541  0.2421  0.0484  0.5595
18238TIP3    H176205   3.960   3.765   0.494 -1.1445  0.2132 -0.5810
18238TIP3    H276206   4.015   3.883   0.571  1.1021 -0.6646 -0.7642
18239TIP3   OH276207   0.410   1.631   4.158 -0.0401  0.0272  0.7238
18239TIP3    H176208   0.365   1.548   4.173  1.6931 -0.7261  1.9785
18239TIP3    H276209   0.418   1.670   4.245 -0.7159  1.4811  0.1702
18240TIP3   OH276210   0.059   4.559  13.775 -0.0227 -0.1530 -0.8842
18240TIP3    H176211   0.067   4.477  13.822  0.4609 -0.8044 -2.0619
18240TIP3    H276212   0.142   4.569  13.728  0.6302  1.8764  0.5433
18241TIP3   OH276213   4.053   5.505   0.233 -0.4320 -0.4018  0.3782
18241TIP3    H176214   4.007   5.425   0.257 -0.5587  0.1309  1.9863
18241TIP3    H276215   4.027   5.521   0.142 -0.7295 -1.9404  0.1687
18242TIP3   OH276216   5.327   1.739   6.029 -0.2935 -0.9001  0.4294
18242TIP3    H176217   5.383   1.663   6.043 -0.3719 -0.9433  0.5200
18242TIP3    H276218   5.291   1.758   6.116 -0.2154 -0.7136  0.4210
18243TIP3   OH276219   2.745   5.158   5.264 -0.3635  0.0622  0.1574
18243TIP3    H176220   2.660   5.194   5.289 -0.4116  0.0028  0.0790
18243TIP3    H276221   2.725   5.094   5.196 -0.3251 -0.4613  0.6368
18244TIP3   OH276222   0.241   5.015  14.091 -0.7045 -0.1482  0.2301
18244TIP3    H176223   0.285   4.978  14.167 -1.5279  0.5384  1.0511
18244TIP3    H276224   0.223   4.939  14.035  0.7806 -0.5414  0.2311
18245TIP3   OH276225   4.473   3.361  13.675  0.1712  0.3326 -0.2491
18245TIP3    H176226   4.383   3.385  13.651  0.0337  0.0661 -0.0105
18245TIP3    H276227   4.510   3.440  13.713  0.1492  0.5452 -0.6637
18246TIP3   OH276228   1.929   5.025  16.479  0.0583  0.6433  0.6143
18246TIP3    H176229   1.982   5.016  16.399 -0.6812  2.1617 -0.0907
18246TIP3    H276230   1.865   4.955  16.473 -0.9813  1.6736 -0.9644
18247TIP3   OH276231   1.258   5.974   5.708 -0.4754  0.0181 -0.0031
18247TIP3    H176232   1.292   6.051   5.664 -0.6896 -0.8738 -1.7972
18247TIP3    H276233   1.295   5.979   5.796 -0.8232  2.3675  0.0838
18248TIP3   OH276234   4.472   6.178   2.356  0.0109  0.5511  0.1275
18248TIP3    H176235   4.543   6.137   2.405  0.6326  1.3966 -0.0421
18248TIP3    H276236   4.393   6.154   2.404  0.6413  1.8878  1.9751
18249TIP3   OH276237   5.163   2.380   3.616 -0.0872 -0.3035 -0.3724
18249TIP3    H176238   5.155   2.289   3.590 -1.0445 -0.8445  1.6059
18249TIP3    H276239   5.130   2.383   3.706  0.8668  1.8125 -0.0099
18250TIP3   OH276240   6.306   6.661   4.679  0.3520  0.0647 -0.2335
18250TIP3    H176241   6.297   6.591   4.614 -1.0632 -1.1448  1.1711
18250TIP3    H276242   6.399   6.683   4.679  0.8476 -1.8417 -0.7210
18251TIP3   OH276243   5.590   6.553  13.570  0.1512  0.0461  0.5644
18251TIP3    H176244   5.541   6.491  13.515 -0.5991  1.8877 -0.9759
18251TIP3    H276245   5.645   6.498  13.625 -1.3421 -2.0133  0.1207
18252TIP3   OH276246   4.911   6.723   2.444  0.2419 -0.0517 -0.4179
18252TIP3    H176247   4.823   6.708   2.478  0.0711 -2.4871 -1.7017
18252TIP3    H276248   4.966   6.736   2.522 -0.9573 -0.2963  0.4923
18253TIP3   OH276249   2.241   1.531   3.204 -0.0452  0.0178  0.1614
18253TIP3    H176250   2.258   1.566   3.116  1.7214  0.6475  0.7144
18253TIP3    H276251   2.167   1.472   3.192  0.8349 -0.7395 -1.9634
18254TIP3   OH276252   0.271   4.732   2.995 -0.4579 -0.0082 -0.5479
18254TIP3    H176253   0.252   4.729   2.901 -2.2633 -0.4778 -0.2012
18254TIP3    H276254   0.186   4.724   3.037  0.1976  1.2973  1.1446
18255TIP3   OH276255   5.474   6.000   3.263  0.0193  0.0680  0.0470
18255TIP3    H176256   5.411   6.068   3.287 -1.0458 -0.5977 -0.7332
18255TIP3    H276257   5.423   5.919   3.268  0.6581 -0.4270 -1.1400
18256TIP3   OH276258   6.274   6.329   3.211 -0.1721  0.0661 -0.0724
18256TIP3    H176259   6.283   6.243   3.253  0.5609  0.8785  1.5093
18256TIP3    H276260   6.362   6.367   3.216 -1.1374  2.2491  2.3133
18257TIP3   OH276261   4.247   1.253  15.198 -0.1892  0.1095  0.0316
18257TIP3    H176262   4.186   1.302  15.144  0.3404  0.4505 -0.2560
18257TIP3    H276263   4.248   1.300  15.282  0.6386  0.8537 -0.3799
18258TIP3   OH276264   2.104   1.440  13.651  0.1093 -0.1114 -0.4200
18258TIP3    H176265   2.009   1.439  13.642 -0.1505  1.6961  1.4051
18258TIP3    H276266   2.121   1.406  13.739  1.1070  0.1763 -0.4821
18259TIP3   OH276267   1.805   3.184  15.905  0.1204  0.4529  0.4328
18259TIP3    H176268   1.709   3.177  15.903  0.1647 -0.4258  0.6345
18259TIP3    H276269   1.823   3.277  15.893 -0.6518  0.2978 -3.3382
18260TIP3   OH276270   5.710   0.437  11.229  0.0654  0.2674 -0.5319
18260TIP3    H176271   5.664   0.505  11.180  0.2305 -0.3951 -1.6647
18260TIP3    H276272   5.719   0.365  11.166 -3.4786 -2.3932  1.6211
18261TIP3   OH276273   0.241   2.391   3.011  0.0135  0.7873 -0.2097
18261TIP3    H176274   0.288   2.411   3.092  0.2703 -0.6843  0.0455
18261TIP3    H276275   0.227   2.476   2.969  1.7477  1.3914  0.3493
18262TIP3   OH276276   3.395   1.528  15.915 -0.1650 -0.2947  0.2715
18262TIP3    H176277   3.384   1.581  15.995  0.5839 -0.0406  0.2081
18262TIP3    H276278   3.334   1.567  15.853 -0.2221 -0.0296  0.4897
18263TIP3   OH276279   3.964   1.562  11.820  0.0166 -0.0772 -0.0581
18263TIP3    H176280   3.906   1.496  11.780  0.5725 -0.1214 -0.8216
18263TIP3    H276281   3.939   1.564  11.912  0.1775 -1.5764  0.0423
18264TIP3   OH276282   6.489   6.547  16.470 -0.7869  0.0309  0.1038
18264TIP3    H176283   6.440   6.584  16.396  3.2956 -0.5070 -3.2611
18264TIP3    H276284   6.441   6.468  16.493 -2.5906  0.5479 -1.5167
18265TIP3   OH276285   4.049   4.434  15.137  0.3194 -0.3236  0.2473
18265TIP3    H176286   3.967   4.434  15.187 -0.9800 -3.8459 -1.5419
18265TIP3    H276287   4.021   4.441  15.046  1.9958 -1.6634 -0.4166
18266TIP3   OH276288   2.948   6.148  13.109 -0.2401  0.0151 -0.2193
18266TIP3    H176289   2.862   6.125  13.075  0.4073 -1.3579 -1.0278
18266TIP3    H276290   2.957   6.096  13.189  0.2204 -0.6215 -0.6757
18267TIP3   OH276291   2.422   5.390  11.978 -0.5425  0.0211 -0.5556
18267TIP3    H176292   2.354   5.448  11.944  0.5335  0.9948 -1.0981
18267TIP3    H276293   2.454   5.343  11.901 -3.0424 -3.1962  0.1504
18268TIP3   OH276294   2.924   1.426  16.755  0.0150 -0.2967 -0.4118
18268TIP3    H176295   2.829   1.415  16.756 -0.0273 -0.2686  1.9314
18268TIP3    H276296   2.957   1.338  16.737 -0.4888 -1.2216  2.6307
18269TIP3   OH276297   6.257   4.383  16.539 -0.1959 -0.2259 -0.3213
18269TIP3    H176298   6.220   4.425  16.462  1.3429  0.6869 -0.6068
18269TIP3    H276299   6.269   4.292  16.514 -0.9486 -0.2335 -0.6817
18270TIP3   OH276300   5.333   2.110   2.449 -0.0107 -0.4482 -0.3680
18270TIP3    H176301   5.375   2.111   2.536 -0.5330  0.3152 -0.1141
18270TIP3    H276302   5.376   2.039   2.403 -0.1531 -1.2777  0.7376
18271TIP3   OH276303   1.018   4.354  13.691 -0.1439  0.0583 -0.2559
18271TIP3    H176304   1.105   4.314  13.692  0.2862  0.9758  0.6334
18271TIP3    H276305   1.034   4.448  13.687 -1.1354  0.1974 -1.7480
18272TIP3   OH276306   3.866   3.415   4.248 -0.5533 -0.5381  0.3205
18272TIP3    H176307   3.924   3.473   4.296 -0.7938 -0.1011  0.0967
18272TIP3    H276308   3.924   3.360   4.196 -0.3454  0.0680 -0.0972
18273TIP3   OH276309   6.792   1.206  16.444 -0.5807  0.0940  0.1877
18273TIP3    H176310   6.727   1.266  16.480 -1.7351 -1.7790  1.3874
18273TIP3    H276311   6.859   1.199  16.512 -1.2796 -1.1757  0.7864
18274TIP3   OH276312   1.835   0.542   1.887  0.0663  0.0907  0.0655
18274TIP3    H176313   1.791   0.604   1.944 -0.4384 -0.5595  0.4056
18274TIP3    H276314   1.887   0.596   1.827 -0.7180  0.8526  0.0496
18275TIP3   OH276315   4.513   4.546  12.847 -0.4566 -0.3511 -0.3003
18275TIP3    H176316   4.450   4.568  12.916  1.4000  2.3145  0.7122
18275TIP3    H276317   4.472   4.579  12.767 -0.4180  1.3958  0.3530
18276TIP3   OH276318   1.350   4.297  14.133 -0.2686 -0.0287  0.2256
18276TIP3    H176319   1.394   4.291  14.217 -1.1139 -1.8275  0.6064
18276TIP3    H276320   1.275   4.354  14.148 -0.1605  0.0194  0.5762
18277TIP3   OH276321   4.840   5.383  16.677  0.1092  0.1142  0.3531
18277TIP3    H176322   4.746   5.365  16.677  0.0895 -0.5229 -3.5858
18277TIP3    H276323   4.848   5.475  16.652  0.4335 -0.5621 -2.3775
18278TIP3   OH276324   4.816   0.345   5.366 -0.5676 -0.2660  0.3251
18278TIP3    H176325   4.849   0.284   5.299 -0.5840 -0.6649  0.6740
18278TIP3    H276326   4.863   0.320   5.446 -0.0899  0.6174  0.3267
18279TIP3   OH276327   0.570   5.207  17.082  0.2313  0.1966 -0.1017
18279TIP3    H176328   0.586   5.119  17.049  0.6128  0.0234  0.5291
18279TIP3    H276329   0.632   5.262  17.035  0.2698  0.0700 -0.1990
18280TIP3   OH276330   4.175   0.544  11.065  0.8263 -0.0511 -0.5422
18280TIP3    H176331   4.234   0.480  11.026  1.0671 -0.5261  0.5754
18280TIP3    H276332   4.167   0.612  10.998  1.7433 -0.5186 -1.1567
18281TIP3   OH276333   4.999   4.784  15.292  0.2067  0.4473  0.2791
18281TIP3    H176334   5.028   4.802  15.203  0.3048 -0.0078  0.2219
18281TIP3    H276335   5.054   4.712  15.322  0.1072  0.5321  0.6736
18282TIP3   OH276336   2.339   6.399   2.297  0.3349  0.1598 -0.8576
18282TIP3    H176337   2.337   6.482   2.345 -0.1964  0.0608 -0.7041
18282TIP3    H276338   2.320   6.332   2.363  2.4603 -0.2743 -0.6080
18283TIP3   OH276339   4.902   4.924   0.117  0.1901  0.1928 -0.0122
18283TIP3    H176340   4.892   5.007   0.163  1.6570  0.8738 -0.8413
18283TIP3    H276341   4.913   4.859   0.186  1.2492  1.0277  0.6370
18284TIP3   OH276342   5.740   5.401  14.665 -0.0492  0.0565 -0.0211
18284TIP3    H176343   5.783   5.330  14.617 -0.9581  0.4439 -1.4482
18284TIP3    H276344   5.671   5.357  14.716 -0.1053 -0.1666 -0.2871
18285TIP3   OH276345   5.936   4.360   3.209  0.5480 -0.2323 -0.5370
18285TIP3    H176346   5.998   4.391   3.276 -1.5482 -1.2910  2.1044
18285TIP3    H276347   5.909   4.440   3.163  2.1594  0.5209 -0.2507
18286TIP3   OH276348   6.147   2.505   1.620 -0.2023  0.0936 -0.3675
18286TIP3    H176349   6.207   2.445   1.664  1.2368 -0.3512 -2.7705
18286TIP3    H276350   6.061   2.467   1.634  0.1828 -0.1073  1.8409
18287TIP3   OH276351   6.191   5.830   1.402 -0.0101 -0.1441 -0.5189
18287TIP3    H176352   6.286   5.820   1.407 -0.1817 -2.6873 -1.0026
18287TIP3    H276353   6.177   5.883   1.323  0.9773 -1.8083 -1.8918
18288TIP3   OH276354   3.965   3.912  13.108 -0.2024 -0.3019  0.2827
18288TIP3    H176355   4.012   3.848  13.162 -2.0812 -1.3906  0.6920
18288TIP3    H276356   4.028   3.935  13.039  1.8506  0.2784  2.2241
18289TIP3   OH276357   6.174   4.162   5.076  0.1819 -0.2549 -0.2073
18289TIP3    H176358   6.135   4.122   4.998  0.8495  1.3034 -1.3982
18289TIP3    H276359   6.262   4.126   5.081  1.2546  1.8199 -2.0274
18290TIP3   OH276360   2.335   1.837   3.525  0.4702 -0.3025  0.2340
18290TIP3    H176361   2.312   1.819   3.616  0.1692 -2.1014 -0.1573
18290TIP3    H276362   2.295   1.765   3.475  2.9457 -0.9349 -1.0106
18291TIP3   OH276363   5.729   3.186  15.699 -0.0075  0.0108  0.0718
18291TIP3    H176364   5.637   3.211  15.702 -0.6346 -2.1738  0.8625
18291TIP3    H276365   5.735   3.124  15.626  0.7980 -0.0055  0.1418
18292TIP3   OH276366   5.114   2.829  15.932  0.1067 -0.0046 -0.4677
18292TIP3    H176367   5.148   2.744  15.959  2.2911  0.3343 -1.9300
18292TIP3    H276368   5.079   2.815  15.844  0.7951  0.6580 -0.8591
18293TIP3   OH276369   0.045   4.787   5.418 -0.0285  0.0377  0.1457
18293TIP3    H176370   0.023   4.716   5.479 -0.1844  0.5628  0.7046
18293TIP3    H276371   0.131   4.763   5.384 -0.0169 -0.3475  0.4414
18294TIP3   OH276372   4.713   0.015  13.388  0.1332 -0.3431 -0.2319
18294TIP3    H176373   4.732   0.031  13.295 -2.3066 -1.5843 -1.0345
18294TIP3    H276374   4.716   0.102  13.427  0.0143  0.3826 -1.7368
18295TIP3   OH276375   0.064   6.640  12.990 -0.5202 -0.0110 -0.7156
18295TIP3    H176376  -0.025   6.671  12.970 -0.3334  0.7878 -0.3414
18295TIP3    H276377   0.071   6.649  13.085  0.7369  2.0979 -0.9530
18296TIP3   OH276378   5.906   3.171  11.491 -0.4331 -0.1010 -0.6100
18296TIP3    H176379   5.911   3.099  11.554  1.1399  0.2428 -0.2955
18296TIP3    H276380   5.963   3.145  11.419 -0.6758  0.3798 -0.9870
18297TIP3   OH276381   3.281   3.294   1.114 -0.0551  0.4420 -0.5304
18297TIP3    H176382   3.224   3.342   1.175  0.3671  1.0534 -0.6138
18297TIP3    H276383   3.227   3.221   1.083 -1.5069  2.1537 -2.1775
18298TIP3   OH276384   4.360   6.262  17.160  0.3412 -0.1369  0.0149
18298TIP3    H176385   4.404   6.321  17.221  1.0443 -0.7747  0.1406
18298TIP3    H276386   4.318   6.196  17.215  0.0143 -0.0648 -0.1447
18299TIP3   OH276387   3.189   6.223  13.257 -0.2592 -0.2904  0.5618
18299TIP3    H176388   3.113   6.233  13.200  0.3060 -0.6877 -0.2779
18299TIP3    H276389   3.218   6.313  13.273  0.4095 -0.2007 -0.9515
18300TIP3   OH276390   5.714   3.444  13.910 -0.1666  0.0661 -0.7728
18300TIP3    H176391   5.664   3.371  13.948 -1.3357  0.7389 -0.9938
18300TIP3    H276392   5.755   3.486  13.985 -0.1172 -0.3552 -0.5596
18301TIP3   OH276393   3.279   0.912  13.869  0.1045  0.0496 -0.0042
18301TIP3    H176394   3.349   0.895  13.932 -0.3463 -0.5514  0.3409
18301TIP3    H276395   3.324   0.915  13.784  1.0545  3.0067  0.4813
18302TIP3   OH276396   4.767   1.315   5.227  0.2414  0.1363  0.2415
18302TIP3    H176397   4.824   1.365   5.286  0.8496 -0.1990 -0.0533
18302TIP3    H276398   4.723   1.253   5.285 -0.2015  0.7189  0.5445
18303TIP3   OH276399   3.773   0.490   4.125  0.1157 -0.8244  0.4614
18303TIP3    H176400   3.729   0.553   4.182  0.1441 -1.4763  1.2271
18303TIP3    H276401   3.844   0.539   4.085 -0.3896 -0.1459  0.3722
18304TIP3   OH276402   4.657   3.363  15.631  0.6023  0.2451 -0.0404
18304TIP3    H176403   4.668   3.319  15.716 -0.1123 -1.5195 -0.8321
18304TIP3    H276404   4.567   3.396  15.633 -0.0053 -1.3074 -0.7654
18305TIP3   OH276405   1.491   5.559  14.962  0.5917 -0.5749  0.1728
18305TIP3    H176406   1.422   5.497  14.986  0.1558 -0.6994 -1.2892
18305TIP3    H276407   1.558   5.548  15.029 -0.0110 -1.7627  0.6045
18306TIP3   OH276408   0.975   2.971  16.064  0.4813  0.4960  0.6371
18306TIP3    H176409   0.989   2.947  16.155 -0.2417 -0.0271  0.6149
18306TIP3    H276410   0.907   2.911  16.033  1.2989  0.0930 -0.4784
18307TIP3   OH276411   3.397   2.721  16.259  0.3817 -0.2954 -0.0715
18307TIP3    H176412   3.352   2.667  16.193 -0.3061 -0.5710  0.6033
18307TIP3    H276413   3.381   2.811  16.231 -2.3511 -0.2723  1.1790
18308TIP3   OH276414   3.041   0.912   4.515  0.1837 -0.0866 -0.3384
18308TIP3    H176415   2.948   0.901   4.494 -0.0500  0.5601  0.3104
18308TIP3    H276416   3.087   0.887   4.435 -0.6981  2.9632 -1.9864
18309TIP3   OH276417   2.452   3.766   2.587 -0.1617 -0.2151 -0.0470
18309TIP3    H176418   2.491   3.831   2.646  0.0142  1.3434 -1.7543
18309TIP3    H276419   2.515   3.758   2.515 -0.3593 -2.0481 -0.0617
18310TIP3   OH276420   2.450   2.000  12.158  0.4095 -0.1592 -0.1700
18310TIP3    H176421   2.410   2.086  12.170 -0.1639 -0.4515  0.0191
18310TIP3    H276422   2.414   1.968  12.075 -0.1231 -0.6303  0.2408
18311TIP3   OH276423   6.782   3.829  10.591  0.2363 -0.1203 -0.3910
18311TIP3    H176424   6.869   3.796  10.569  0.8661  0.6759  0.8566
18311TIP3    H276425   6.743   3.849  10.506  1.7987  0.8180 -0.9413
18312TIP3   OH276426   5.005   1.658   2.442  0.6700  0.2555 -0.0509
18312TIP3    H176427   5.012   1.734   2.384  1.0942  0.7633  0.6554
18312TIP3    H276428   5.029   1.691   2.529 -1.4129 -0.1291  0.7366
18313TIP3   OH276429   1.255   1.767   0.838  0.2655  0.9087 -0.2452
18313TIP3    H176430   1.230   1.737   0.750  0.8689  0.3669 -0.2338
18313TIP3    H276431   1.348   1.788   0.831  0.6506 -0.4676  0.6134
18314TIP3   OH276432   6.102   0.054  16.673  0.5899 -0.0134 -0.0758
18314TIP3    H176433   6.013   0.040  16.704  0.3501 -0.2088 -0.8202
18314TIP3    H276434   6.132  -0.033  16.647  0.6685  0.1851 -0.6614
18315TIP3   OH276435   4.894   5.668   3.748 -0.0127 -0.8771  0.1353
18315TIP3    H176436   4.830   5.612   3.703  0.0893  0.6953 -2.1062
18315TIP3    H276437   4.844   5.743   3.778  0.3131 -0.9388  0.8582
18316TIP3   OH276438   2.875   1.731  12.439 -0.0225 -0.3999 -0.1892
18316TIP3    H176439   2.869   1.777  12.356  2.0899  0.1639 -0.0877
18316TIP3    H276440   2.825   1.784  12.501  1.6812  1.3702 -0.2580
18317TIP3   OH276441   0.293   4.528  13.648  0.1964  0.5904 -0.4685
18317TIP3    H176442   0.302   4.438  13.617 -3.2346  0.0622 -0.2753
18317TIP3    H276443   0.280   4.579  13.568 -1.0795  0.3946 -0.3951
18318TIP3   OH276444   4.407   0.580  12.015  0.0050  0.2940  0.0196
18318TIP3    H176445   4.481   0.577  12.076 -0.3052  0.8548  0.4366
18318TIP3    H276446   4.431   0.520  11.945  0.5815 -0.0021  0.4614
18319TIP3   OH276447   6.331   1.301   0.754  0.2682  0.4605  0.1976
18319TIP3    H176448   6.326   1.215   0.794  0.5949  1.1930  1.8850
18319TIP3    H276449   6.425   1.316   0.740  0.4205  1.3835  1.9220
18320TIP3   OH276450   3.395   5.602   1.962  0.1584  0.0694 -0.2374
18320TIP3    H176451   3.412   5.600   1.868 -0.0731 -1.9690 -0.2861
18320TIP3    H276452   3.475   5.567   2.002 -0.1494 -0.1255  0.2258
18321TIP3   OH276453   4.515   5.769  14.601 -0.4053  0.1782 -0.1822
18321TIP3    H176454   4.487   5.692  14.650  0.2335  0.2427  0.2901
18321TIP3    H276455   4.503   5.744  14.509  0.9205 -0.9578 -0.0957
18322TIP3   OH276456   2.514   4.742   5.873 -0.4309 -0.0935  0.2169
18322TIP3    H176457   2.551   4.655   5.881 -2.0331 -0.8733 -0.3066
18322TIP3    H276458   2.512   4.776   5.962 -0.4561 -0.8918  0.5246
18323TIP3   OH276459   5.223   6.074  15.946 -0.5579  0.0568 -0.5897
18323TIP3    H176460   5.303   6.082  15.998 -0.4939  0.0601 -0.6880
18323TIP3    H276461   5.201   6.164  15.922  0.4149 -0.0740 -2.0770
18324TIP3   OH276462   5.114   5.759   5.412 -0.2022 -0.3496  0.2876
18324TIP3    H176463   5.033   5.765   5.464 -0.9815 -0.6599 -0.8609
18324TIP3    H276464   5.119   5.667   5.387 -1.6952  0.3155 -2.9783
18325TIP3   OH276465   2.600   1.737  12.135 -0.2533 -0.2037  0.1610
18325TIP3    H176466   2.549   1.816  12.118 -1.2244 -1.2428 -2.1287
18325TIP3    H276467   2.560   1.700  12.214 -0.8601  0.7092  0.3046
18326TIP3   OH276468   6.349   3.940   5.755 -1.0845 -0.4286  0.5985
18326TIP3    H176469   6.334   3.924   5.848 -2.1271  0.6152  0.6383
18326TIP3    H276470   6.294   3.875   5.711  1.3318 -2.6574  0.6185
18327TIP3   OH276471   3.883   1.437   6.624 -0.0684  0.4798 -0.0202
18327TIP3    H176472   3.944   1.425   6.697 -0.4172 -0.9130  0.0796
18327TIP3    H276473   3.813   1.492   6.659  0.5648  1.1497  0.2038
18328TIP3   OH276474   6.676   3.084  16.537 -0.6660  0.3949  0.0367
18328TIP3    H176475   6.726   3.092  16.456 -0.1579 -1.4557  0.1092
18328TIP3    H276476   6.604   3.025  16.514 -1.6446  1.3973  0.4599
18329TIP3   OH276477   6.211   3.959  12.398 -0.2491  0.6262 -0.0342
18329TIP3    H176478   6.174   3.899  12.333  0.6101 -1.7872  1.5698
18329TIP3    H276479   6.288   3.996  12.355  0.1056 -0.6480 -0.5502
18330TIP3   OH276480   0.739   5.652  12.533  0.0165 -0.3894  0.0518
18330TIP3    H176481   0.707   5.573  12.578  0.7415  0.2012  1.6740
18330TIP3    H276482   0.766   5.621  12.447 -0.3342 -1.7978  0.4157
18331TIP3   OH276483   1.647   3.268   4.769  0.3518  0.2843 -0.4556
18331TIP3    H176484   1.689   3.336   4.822  1.2986 -1.7056  1.4577
18331TIP3    H276485   1.570   3.242   4.820  1.1231 -1.4676 -0.1440
18332TIP3   OH276486   5.725   3.269   2.280 -0.0070  0.5137 -0.3417
18332TIP3    H176487   5.804   3.323   2.277  1.9753 -2.1684  0.4696
18332TIP3    H276488   5.697   3.272   2.372  1.4799 -1.5359  0.2521
18333TIP3   OH276489   1.381   5.736   1.157 -0.2335 -0.0225 -0.3165
18333TIP3    H176490   1.452   5.764   1.214 -0.2915  1.5459 -0.9357
18333TIP3    H276491   1.362   5.646   1.183  0.6802  0.1785  1.1485
18334TIP3   OH276492   1.430   5.879   1.891  0.4450  0.2965  0.6762
18334TIP3    H176493   1.512   5.879   1.842 -1.0790 -1.5629 -2.2083
18334TIP3    H276494   1.450   5.830   1.971  2.4365  1.0710  0.7003
18335TIP3   OH276495   6.142   1.780   2.297  0.0256  1.0188  0.2383
18335TIP3    H176496   6.086   1.719   2.250  1.4781  0.9002 -1.4517
18335TIP3    H276497   6.168   1.733   2.376  1.3535 -0.7661 -1.1651
18336TIP3   OH276498   4.124   3.063  12.692 -0.2451  0.2581  0.4480
18336TIP3    H176499   4.076   3.074  12.774 -0.1248  0.6256  0.4738
18336TIP3    H276500   4.112   3.147  12.647 -1.1821 -0.3039 -0.3780
18337TIP3   OH276501   6.096   2.539   2.787  0.0333 -1.2480  0.3102
18337TIP3    H176502   6.078   2.629   2.758 -2.3710 -2.6415 -3.2019
18337TIP3    H276503   6.101   2.546   2.883 -0.4974  2.5140  0.2327
18338TIP3   OH276504   2.606   4.245  13.459  0.4327  0.0989 -0.1475
18338TIP3    H176505   2.612   4.151  13.445  0.9678 -0.0650  1.0614
18338TIP3    H276506   2.684   4.281  13.415  1.0371 -0.1962  0.6493
18339TIP3   OH276507   3.885   1.449   4.664 -0.5690 -0.0386 -0.2660
18339TIP3    H176508   3.911   1.524   4.610 -0.3197 -1.0717 -1.6479
18339TIP3    H276509   3.805   1.416   4.622  0.1047 -1.3743 -0.5547
18340TIP3   OH276510   4.356   6.367   1.651  0.3021  0.0454  0.2163
18340TIP3    H176511   4.320   6.453   1.670  0.2686 -0.0626  0.6446
18340TIP3    H276512   4.330   6.313   1.726 -1.0468 -0.7510 -0.7736
18341TIP3   OH276513   5.319   6.486  15.691 -0.1153  0.2602  0.2346
18341TIP3    H176514   5.246   6.529  15.737 -1.5635 -1.4618 -0.3463
18341TIP3    H276515   5.278   6.439  15.619  1.4042 -1.8468  0.6567
18342TIP3   OH276516   4.146   6.571   3.908  0.2220  0.0439 -0.2493
18342TIP3    H176517   4.077   6.537   3.850  1.7679  0.8796 -2.7415
18342TIP3    H276518   4.125   6.534   3.994 -1.7799 -1.9305 -1.4645
18343TIP3   OH276519   1.152   1.723   0.171 -0.1766 -0.7150 -0.0284
18343TIP3    H176520   1.127   1.633   0.190 -2.2983 -0.4003 -1.0733
18343TIP3    H276521   1.149   1.729   0.076 -2.3810  1.0267  0.0775
18344TIP3   OH276522   4.213   4.522  15.350 -0.4942 -0.5849 -0.2261
18344TIP3    H176523   4.183   4.496  15.263 -2.1845 -1.6581  0.6467
18344TIP3    H276524   4.289   4.467  15.367  0.0618 -0.1228 -1.1423
18345TIP3   OH276525   1.327   2.173  13.459 -0.5437  0.2867  0.0767
18345TIP3    H176526   1.402   2.165  13.519 -0.4768 -1.6075 -0.1936
18345TIP3    H276527   1.354   2.241  13.396  1.4067 -1.0256 -0.6131
18346TIP3   OH276528   4.829   2.245   4.689 -0.2998  0.7166 -0.3122
18346TIP3    H176529   4.800   2.169   4.639 -0.6827 -0.5907  1.7814
18346TIP3    H276530   4.911   2.217   4.730 -1.2708  0.7445  1.8206
18347TIP3   OH276531   3.294   6.156  11.970  0.2294 -0.2631 -0.3241
18347TIP3    H176532   3.347   6.152  12.049 -1.0829 -0.9627  0.5686
18347TIP3    H276533   3.236   6.231  11.984  1.3993  0.9268 -1.5929
18348TIP3   OH276534   1.533   3.824   5.301 -1.0175  0.0960 -0.1437
18348TIP3    H176535   1.501   3.761   5.367 -2.1133  1.4023  0.6439
18348TIP3    H276536   1.512   3.783   5.217 -0.7509 -1.0467  0.3225
18349TIP3   OH276537   5.203   6.326  16.429  0.0191 -0.1362  0.1176
18349TIP3    H176538   5.272   6.325  16.363 -0.1633  1.3998 -0.1301
18349TIP3    H276539   5.204   6.238  16.466  1.2260 -0.5291 -0.7892
18350TIP3   OH276540   4.538   6.067  13.831  0.0989 -0.3240  0.0234
18350TIP3    H176541   4.555   5.994  13.891  1.1831 -1.6846 -1.8606
18350TIP3    H276542   4.472   6.034  13.771  0.1796  0.4651 -0.5063
18351TIP3   OH276543   3.707   3.396   4.967  0.4470  0.6299  0.3973
18351TIP3    H176544   3.653   3.321   4.994  1.1201  0.3784  1.0579
18351TIP3    H276545   3.781   3.395   5.027  1.0700  1.1199 -0.3515
18352TIP3   OH276546   4.855   5.152  13.181 -0.2471 -0.0366 -0.5186
18352TIP3    H176547   4.851   5.102  13.262  2.9976 -0.3977 -0.4520
18352TIP3    H276548   4.903   5.096  13.120  0.9830  1.8138 -1.3450
18353TIP3   OH276549   5.681   0.344   5.001 -0.4438 -0.0703 -0.0637
18353TIP3    H176550   5.682   0.440   4.998  0.0023 -0.0945 -0.8091
18353TIP3    H276551   5.665   0.323   5.093  0.2302  0.7150  0.2434
18354TIP3   OH276552   2.612   1.109   1.520  0.2163 -0.2725 -0.4755
18354TIP3    H176553   2.674   1.122   1.449  0.9325  0.6874  0.2971
18354TIP3    H276554   2.613   1.192   1.568 -1.7202 -0.2015 -0.4790
18355TIP3   OH276555   6.628   5.227  14.467  0.2505 -0.0208 -0.3157
18355TIP3    H176556   6.720   5.254  14.475  0.0935  0.3772  0.1819
18355TIP3    H276557   6.625   5.140  14.507  0.6504 -0.5847 -1.4536
18356TIP3   OH276558   0.215   0.534  13.093  0.1807  0.5490 -0.1826
18356TIP3    H176559   0.148   0.497  13.150 -0.4888  1.2644 -0.4907
18356TIP3    H276560   0.287   0.472  13.098  0.5462  1.0605  2.2029
18357TIP3   OH276561   2.875   6.395  14.962  0.0501 -0.3880  0.4411
18357TIP3    H176562   2.804   6.350  15.008 -0.0845  0.1287  0.7430
18357TIP3    H276563   2.858   6.488  14.977  0.3506 -0.2383 -0.1465
18358TIP3   OH276564   1.348   4.457   0.633 -0.6097 -0.2821  0.4214
18358TIP3    H176565   1.325   4.368   0.661 -0.6602 -0.9662 -1.6106
18358TIP3    H276566   1.426   4.445   0.579 -1.7921  0.5715 -1.6073
18359TIP3   OH276567   2.148   6.309  11.768 -0.4503 -0.0538  0.1839
18359TIP3    H176568   2.142   6.218  11.797  0.8414  0.0815  0.9829
18359TIP3    H276569   2.242   6.327  11.765 -0.6600  1.0029 -0.8082
18360TIP3   OH276570   3.032   2.403   3.109 -0.1143 -0.2969  0.5226
18360TIP3    H176571   3.087   2.475   3.139  0.0894 -0.3587  0.2935
18360TIP3    H276572   2.993   2.368   3.189  0.3356 -0.3829  0.7042
18361TIP3   OH276573   2.217   3.753  11.057  0.8858 -0.2222  0.7055
18361TIP3    H176574   2.288   3.740  10.994 -0.1073 -0.0551 -0.4834
18361TIP3    H276575   2.212   3.847  11.069  0.7639 -0.2254  0.6785
18362TIP3   OH276576   2.802   1.340  13.928 -0.0955  0.4649  0.0060
18362TIP3    H176577   2.749   1.387  13.993 -1.4102 -1.4317  0.4004
18362TIP3    H276578   2.845   1.271  13.978 -0.1823 -0.2825 -0.9294
18363TIP3   OH276579   2.488   5.840  13.159  0.2137  0.4055  0.4811
18363TIP3    H176580   2.478   5.748  13.181  2.3042  0.2713  1.0950
18363TIP3    H276581   2.508   5.882  13.243  2.4276  0.8732 -0.2319
18364TIP3   OH276582   6.798   0.519   0.523  0.4022  0.2692 -0.1681
18364TIP3    H176583   6.831   0.557   0.441 -0.4530  0.8062 -0.2779
18364TIP3    H276584   6.707   0.498   0.505  0.9948 -2.5180 -0.3115
18365TIP3   OH276585   4.424   0.668  10.672 -0.0914  0.3882  0.2743
18365TIP3    H176586   4.478   0.596  10.703  0.4817  0.2937 -0.8831
18365TIP3    H276587   4.481   0.718  10.614 -0.2411  2.2227  1.6138
18366TIP3   OH276588   2.726   2.000  13.765 -0.2829  0.3466  0.6517
18366TIP3    H176589   2.718   1.918  13.717  1.6355  1.0051 -0.9081
18366TIP3    H276590   2.787   1.982  13.836  0.6994  0.5734 -0.1199
18367TIP3   OH276591   3.885   4.465  11.397 -0.3698 -0.4960 -0.0840
18367TIP3    H176592   3.913   4.377  11.371  0.0772 -0.3936  0.0487
18367TIP3    H276593   3.838   4.498  11.320  1.5605  0.0824 -1.0822
18368TIP3   OH276594   2.786   3.759  11.483  0.4850 -0.8714  0.3371
18368TIP3    H176595   2.716   3.718  11.533  0.1901 -0.0399  0.6190
18368TIP3    H276596   2.772   3.730  11.393 -0.6999 -0.0970  0.2536
18369TIP3   OH276597   6.789   0.946   5.997 -0.2300  0.6336 -0.4944
18369TIP3    H176598   6.837   1.025   5.970  0.4817  0.1096 -0.7984
18369TIP3    H276599   6.854   0.893   6.043 -0.2936 -0.4407 -1.5995
18370TIP3   OH276600   5.982   5.242  14.982 -0.5048 -0.3487  0.3304
18370TIP3    H176601   5.978   5.273  14.892 -0.5343 -0.7969  0.1721
18370TIP3    H276602   6.072   5.257  15.010 -0.3919 -0.5688  0.0900
18371TIP3   OH276603   0.456   3.725   1.604  0.2747  0.3000 -0.1179
18371TIP3    H176604   0.372   3.706   1.562 -0.1205  0.4426  0.5923
18371TIP3    H276605   0.495   3.639   1.619  0.2747  0.2338 -0.4681
18372TIP3   OH276606   2.715   1.150  14.628 -0.8002 -0.0020  0.2700
18372TIP3    H176607   2.735   1.230  14.580 -0.9542  0.0059  0.2161
18372TIP3    H276608   2.799   1.120  14.662 -0.5787 -0.4013 -0.6177
18373TIP3   OH276609   6.690   2.094  14.755 -0.0105 -0.9772 -0.1434
18373TIP3    H176610   6.714   2.186  14.739  0.0069 -1.0339 -0.4560
18373TIP3    H276611   6.773   2.046  14.747 -0.1923 -1.1565 -1.0922
18374TIP3   OH276612   1.787   2.975  16.402 -0.6131  0.5389  0.2024
18374TIP3    H176613   1.770   2.933  16.318 -1.0435 -0.9746  1.0024
18374TIP3    H276614   1.874   3.015  16.392 -0.3013 -0.3321 -0.7015
18375TIP3   OH276615   1.146   0.807  14.271 -0.0287 -0.4337  0.9281
18375TIP3    H176616   1.059   0.773  14.254 -0.1037  0.2195 -0.0895
18375TIP3    H276617   1.195   0.733  14.307  0.0388 -1.8784 -1.8552
18376TIP3   OH276618   0.859   3.965   2.593 -0.3178 -0.4424  0.4936
18376TIP3    H176619   0.792   4.025   2.625  0.8159  0.7975  0.6368
18376TIP3    H276620   0.823   3.931   2.511 -0.9390  0.5737  0.3166
18377TIP3   OH276621   3.256   6.724   5.028  0.3370  0.8420  0.0242
18377TIP3    H176622   3.243   6.641   5.075 -0.4375 -0.4179 -2.2596
18377TIP3    H276623   3.350   6.743   5.040  0.1428  0.7291  2.1884
18378TIP3   OH276624   2.658   2.438  11.634 -0.2676  0.0467  0.1001
18378TIP3    H176625   2.610   2.493  11.572  1.2821  0.7794 -0.5045
18378TIP3    H276626   2.644   2.348  11.603 -2.3758  0.0967  0.7740
18379TIP3   OH276627   0.993   2.636  16.299  0.3355 -0.1384 -0.1088
18379TIP3    H176628   1.006   2.729  16.317 -2.4195  0.3968 -0.4482
18379TIP3    H276629   0.926   2.608  16.361  0.9215 -1.8740 -0.1900
18380TIP3   OH276630   1.265   0.823   2.020  0.5235 -0.4044 -0.1927
18380TIP3    H176631   1.332   0.891   2.025  1.2102 -1.1620  2.6508
18380TIP3    H276632   1.190   0.867   1.981  1.3667  1.6057  0.3136
18381TIP3   OH276633   5.806   1.092  11.531 -0.1420 -0.1973 -0.3087
18381TIP3    H176634   5.764   1.091  11.617 -0.5326  1.4990 -0.4485
18381TIP3    H276635   5.786   1.006  11.494 -0.8732 -0.5571  0.8716
18382TIP3   OH276636   3.751   1.334  14.110  0.0894 -0.4023 -0.3930
18382TIP3    H176637   3.774   1.415  14.064  0.2469 -0.6059 -0.6732
18382TIP3    H276638   3.700   1.364  14.186  2.4545  0.1710  1.0494
18383TIP3   OH276639   4.717   4.830  11.215 -0.2645  0.3411  0.2807
18383TIP3    H176640   4.791   4.780  11.247  0.9763  2.3264  0.7026
18383TIP3    H276641   4.721   4.821  11.119 -1.5287 -2.2383  0.3907
18384TIP3   OH276642   2.525   3.970   6.412  0.0383  0.1108 -0.3956
18384TIP3    H176643   2.568   4.001   6.492 -0.2302  1.3925 -0.7250
18384TIP3    H276644   2.578   4.005   6.341 -0.9163  0.7883 -0.7884
18385TIP3   OH276645   4.913   6.064   0.196  0.3253 -0.1670  0.1627
18385TIP3    H176646   4.958   6.127   0.139 -1.4524  2.2896  1.2550
18385TIP3    H276647   4.827   6.054   0.157  0.8158 -2.6164 -0.3955
18386TIP3   OH276648   5.259   5.820  16.350 -0.3318 -0.1851  0.1153
18386TIP3    H176649   5.208   5.882  16.401  0.6588 -0.6282  1.7081
18386TIP3    H276650   5.287   5.754  16.413  0.5340 -1.0196 -1.0946
18387TIP3   OH276651   4.129   6.338   4.704  0.0893  0.2763  0.0397
18387TIP3    H176652   4.103   6.316   4.793 -0.0786  1.4746  0.3121
18387TIP3    H276653   4.114   6.433   4.698  1.5533  0.4817 -0.7627
18388TIP3   OH276654   5.853   0.502  12.844  0.5936  0.1168  0.2597
18388TIP3    H176655   5.885   0.527  12.931  1.0845  1.4744 -0.2905
18388TIP3    H276656   5.762   0.533  12.842  0.6565  0.2971  0.2030
18389TIP3   OH276657   2.179   1.866  14.435 -0.4723 -0.1604  0.0624
18389TIP3    H176658   2.103   1.917  14.406  0.8087  0.6851 -2.1049
18389TIP3    H276659   2.143   1.784  14.466 -2.3608  0.7151  0.3243
18390TIP3   OH276660   0.132   1.082  11.632 -0.5492 -0.0242 -0.0021
18390TIP3    H176661   0.156   1.006  11.685 -0.8175  0.6707  1.1429
18390TIP3    H276662   0.209   1.140  11.637 -1.1298  0.6926  0.8622
18391TIP3   OH276663   6.700   0.401   2.802 -0.1097  0.1127  0.0172
18391TIP3    H176664   6.675   0.350   2.879 -0.5489  2.1351  1.2787
18391TIP3    H276665   6.756   0.470   2.837 -0.7634  1.3960 -1.3957
18392TIP3   OH276666   5.286   1.452   1.490 -0.0049  0.4243 -0.0353
18392TIP3    H176667   5.278   1.469   1.584 -0.0025  1.0071 -0.1355
18392TIP3    H276668   5.260   1.535   1.449 -0.8027 -0.0764 -0.5684
18393TIP3   OH276669   0.565   0.220   2.042  0.2054  0.4271  0.2685
18393TIP3    H176670   0.606   0.134   2.044 -0.1093  0.2473  3.1686
18393TIP3    H276671   0.476   0.204   2.009  1.1569  0.2538 -2.4469
18394TIP3   OH276672   1.977   5.995  16.703  0.1976 -0.2102  0.2567
18394TIP3    H176673   1.893   5.959  16.732 -0.1681 -0.7363 -1.3619
18394TIP3    H276674   1.953   6.067  16.644  0.8387 -0.9631 -0.9547
18395TIP3   OH276675   3.395   2.528   2.917  0.2520 -0.4103  0.1976
18395TIP3    H176676   3.478   2.483   2.931  0.8685  0.0529 -1.7131
18395TIP3    H276677   3.357   2.485   2.840 -0.6666  0.2267  0.2741
18396TIP3   OH276678   5.310   3.206   4.090 -0.0636  0.2056 -0.8963
18396TIP3    H176679   5.386   3.147   4.092 -1.1290 -1.2521  2.3057
18396TIP3    H276680   5.274   3.194   4.002  1.2878 -1.9232 -1.2396
18397TIP3   OH276681   0.997   0.966  16.460 -0.5676  0.3062  0.1772
18397TIP3    H176682   0.952   1.047  16.485 -2.1188 -0.5914  0.4270
18397TIP3    H276683   1.012   0.921  16.543 -0.1994  0.0846 -0.0086
18398TIP3   OH276684   3.540   3.266  15.102  0.2102 -0.1243 -0.0889
18398TIP3    H176685   3.448   3.270  15.129 -0.2693 -1.8348 -1.2618
18398TIP3    H276686   3.553   3.343  15.047  0.6441  2.2971  3.0844
18399TIP3   OH276687   0.737   6.652   4.512  0.4204  0.0595 -0.1970
18399TIP3    H176688   0.713   6.560   4.524 -1.3555  0.4069 -0.8021
18399TIP3    H276689   0.753   6.660   4.417 -0.9665  0.6906 -0.3958
18400TIP3   OH276690   3.324   1.299  17.105  0.4202 -0.3109 -0.4708
18400TIP3    H176691   3.290   1.387  17.089 -0.7979 -0.5230  0.7761
18400TIP3    H276692   3.249   1.242  17.093  0.5325 -0.8990  1.4007
18401TIP3   OH276693   0.991   3.971  16.815  0.9959  0.4164  0.2542
18401TIP3    H176694   0.898   3.986  16.795  1.1067  0.1310 -0.5519
18401TIP3    H276695   1.037   3.998  16.735  1.8267  2.6021  1.3742
18402TIP3   OH276696   5.238   0.453   1.575 -0.0829 -0.0138 -0.6658
18402TIP3    H176697   5.283   0.536   1.589  0.0525 -0.0624 -0.8154
18402TIP3    H276698   5.306   0.387   1.582 -0.4048 -0.2137  0.7249
18403TIP3   OH276699   2.411   4.459  14.533 -0.2426 -0.7357 -0.0725
18403TIP3    H176700   2.499   4.430  14.507  0.4860 -1.0582  2.4833
18403TIP3    H276701   2.390   4.404  14.609 -2.5193 -0.3980 -0.4038
18404TIP3   OH276702   1.510   3.787   3.517 -0.6698  0.0411  0.1393
18404TIP3    H176703   1.511   3.798   3.612 -4.5034 -0.9968  0.4696
18404TIP3    H276704   1.496   3.876   3.483  0.4205  0.3732  0.5178
18405TIP3   OH276705   0.716   0.863   0.504  0.2439 -0.6073 -0.2753
18405TIP3    H176706   0.626   0.895   0.497  0.1662 -0.3730  1.4865
18405TIP3    H276707   0.739   0.837   0.414 -1.2802  0.0926 -0.8996
18406TIP3   OH276708   1.564   1.914  15.812 -0.3697 -0.8548 -0.7226
18406TIP3    H176709   1.561   1.858  15.889 -1.9652  0.9790  0.6626
18406TIP3    H276710   1.638   1.973  15.828  0.1244 -1.3120 -1.2644
18407TIP3   OH276711   0.664   5.535  15.520 -0.2787 -0.4380  0.1217
18407TIP3    H176712   0.571   5.549  15.537 -0.8401 -0.8094 -2.2503
18407TIP3    H276713   0.706   5.618  15.541 -1.2591 -0.0333  0.4872
18408TIP3   OH276714   2.251   5.180  16.357  0.2618  0.6572  0.1219
18408TIP3    H176715   2.262   5.184  16.452 -1.4087 -2.4530  0.5915
18408TIP3    H276716   2.330   5.134  16.327  0.3419  0.7811  0.1445
18409TIP3   OH276717   1.268   2.791   4.558 -0.9613 -0.4787 -0.0818
18409TIP3    H176718   1.345   2.835   4.594 -1.0418 -0.2603 -0.1754
18409TIP3    H276719   1.253   2.834   4.474 -2.2860  0.7491  0.7364
18410TIP3   OH276720   4.069   1.480   1.823  0.3825 -0.3973  0.1319
18410TIP3    H176721   4.125   1.501   1.749 -1.4395  0.4755 -1.0873
18410TIP3    H276722   4.090   1.390   1.846  0.0128 -1.1797 -2.3898
18411TIP3   OH276723   5.744   1.336   6.419 -0.1689 -0.1101 -0.2270
18411TIP3    H176724   5.678   1.287   6.467  0.4017  1.9624  3.0028
18411TIP3    H276725   5.827   1.292   6.441 -0.1321 -0.8625 -1.7582
18412TIP3   OH276726   2.781   0.737   0.527  0.3024 -0.3201 -0.2673
18412TIP3    H176727   2.751   0.794   0.598  1.6098  2.4089 -1.7399
18412TIP3    H276728   2.808   0.656   0.571  0.8946  1.1621  2.3389
18413TIP3   OH276729   0.280   2.147  16.810 -0.1490 -0.3989  0.7599
18413TIP3    H176730   0.317   2.082  16.869  0.7749 -1.3342 -0.7888
18413TIP3    H276731   0.356   2.192  16.774 -0.6223 -0.6454 -0.5875
18414TIP3   OH276732   0.342   1.766   0.406  0.0744  0.3172 -0.0003
18414TIP3    H176733   0.299   1.680   0.400 -0.6811  0.6901 -0.0486
18414TIP3    H276734   0.433   1.746   0.426  0.3802 -0.6018 -2.0129
18415TIP3   OH276735   4.433   5.416  11.559 -0.4824 -0.0589  0.3111
18415TIP3    H176736   4.339   5.408  11.549 -0.5703 -1.0437  1.5921
18415TIP3    H276737   4.465   5.447  11.474 -1.8420 -0.6860 -0.4418
18416TIP3   OH276738   1.619   1.813   2.321 -0.1279  0.2313  0.1193
18416TIP3    H176739   1.600   1.826   2.229 -1.9751 -3.9107 -0.3215
18416TIP3    H276740   1.536   1.827   2.366  0.0530 -0.5303  0.7287
18417TIP3   OH276741   2.960   6.567   0.533 -0.0932 -0.7622  0.3745
18417TIP3    H176742   2.939   6.631   0.601  0.3029 -3.0808  2.8478
18417TIP3    H276743   2.896   6.497   0.546 -0.1001 -1.2184 -1.7999
18418TIP3   OH276744   2.542   0.115  16.569 -0.2848  0.5348 -0.1286
18418TIP3    H176745   2.582   0.094  16.484 -0.2798  1.2665 -0.3174
18418TIP3    H276746   2.458   0.070  16.568 -0.7323  1.3359 -0.9544
18419TIP3   OH276747   6.497   0.102   3.255 -0.2522 -0.3474 -0.0517
18419TIP3    H176748   6.485   0.156   3.177 -1.6854 -1.8451 -0.9355
18419TIP3    H276749   6.419   0.047   3.258 -0.5045  0.0350  2.7984
18420TIP3   OH276750   0.390   1.056  12.042 -0.2517  0.1382  0.1627
18420TIP3    H176751   0.344   1.104  12.111  1.7103  0.5644  1.2456
18420TIP3    H276752   0.423   1.125  11.983  0.9599  0.0542  0.6981
18421TIP3   OH276753   4.401   6.616  16.791 -0.7854  0.1190 -0.5696
18421TIP3    H176754   4.385   6.612  16.697 -3.0131 -2.3396 -0.1990
18421TIP3    H276755   4.356   6.539  16.827  2.3351 -0.6558  2.2265
18422TIP3   OH276756   5.199   4.449  12.885 -0.3328 -0.5206  0.0833
18422TIP3    H176757   5.204   4.531  12.835  1.0069  0.1865  1.2941
18422TIP3    H276758   5.274   4.398  12.855 -0.2202 -0.6042  0.5057
18423TIP3   OH276759   4.510   1.454   4.611 -0.4240  0.0893  0.0046
18423TIP3    H176760   4.548   1.374   4.575  1.1535  0.8945 -0.2160
18423TIP3    H276761   4.494   1.433   4.703 -0.2730 -0.5502 -0.1074
18424TIP3   OH276762   4.959   4.552  12.064 -0.1311 -0.0106  0.0545
18424TIP3    H176763   4.924   4.551  11.975  1.1393 -3.1250 -0.5599
18424TIP3    H276764   4.884   4.537  12.121 -0.4102 -3.2948 -0.9849
18425TIP3   OH276765   0.931   4.651   4.176  0.2264 -0.0766  0.5972
18425TIP3    H176766   0.947   4.708   4.101  0.5181  0.7368  1.2604
18425TIP3    H276767   0.930   4.563   4.140  0.1879  0.3183 -0.3871
18426TIP3   OH276768   5.829   4.891   5.212  0.0433  0.0985 -0.2675
18426TIP3    H176769   5.901   4.827   5.214  0.4873  0.6037  0.5663
18426TIP3    H276770   5.812   4.911   5.304  2.2064  3.6723 -0.4463
18427TIP3   OH276771   2.171   6.540  13.030  0.1817  0.0109 -0.2934
18427TIP3    H176772   2.164   6.555  12.936  1.1604 -0.5735 -0.4748
18427TIP3    H276773   2.143   6.449  13.042 -0.5856  0.2870  0.0766
18428TIP3   OH276774   0.879   2.424   3.328  0.0716 -0.6510  0.2028
18428TIP3    H176775   0.937   2.360   3.369 -0.8218 -1.4116  0.3069
18428TIP3    H276776   0.933   2.503   3.320  1.3929 -1.5779 -0.5026
18429TIP3   OH276777   1.546   2.191   1.308 -0.4057 -0.2792 -0.0823
18429TIP3    H176778   1.532   2.141   1.227 -1.1475 -0.0879 -0.0854
18429TIP3    H276779   1.475   2.255   1.308  0.5740  0.8287 -0.1123
18430TIP3   OH276780   6.026   0.855   0.578  0.2409  0.0623  0.4196
18430TIP3    H176781   5.936   0.869   0.608 -0.1690 -1.9445  0.2172
18430TIP3    H276782   6.037   0.919   0.508 -1.2807 -0.1159 -0.0237
18431TIP3   OH276783   4.642   1.314   5.846  0.3177 -0.6407 -0.1642
18431TIP3    H176784   4.728   1.337   5.879  1.3740 -0.3326 -2.8614
18431TIP3    H276785   4.655   1.231   5.802 -0.5282 -0.1546 -1.3780
18432TIP3   OH276786   6.414   1.949  14.314 -0.5372  0.0552 -0.8045
18432TIP3    H176787   6.453   1.862  14.305  3.6103  1.5896  0.1487
18432TIP3    H276788   6.437   1.994  14.232  1.4433  1.5086  0.4344
18433TIP3   OH276789   5.129   2.988  13.746 -0.3212  0.4200 -0.3936
18433TIP3    H176790   5.100   3.079  13.747  2.9753  1.6679 -1.7969
18433TIP3    H276791   5.092   2.951  13.666 -1.0718  0.7388 -0.2022
18434TIP3   OH276792   1.109   4.937   5.654  0.9358 -0.2141 -0.2814
18434TIP3    H176793   1.190   4.955   5.608  1.6095 -0.6116  0.7061
18434TIP3    H276794   1.136   4.890   5.733 -0.1821  0.2842  0.4301
18435TIP3   OH276795   0.743   6.143  12.879 -0.0980  0.4044  0.1377
18435TIP3    H176796   0.707   6.088  12.949  0.9771 -0.5939 -0.0678
18435TIP3    H276797   0.677   6.140  12.810  0.7970 -2.3833 -0.7215
18436TIP3   OH276798   0.441   0.766  15.593 -0.0947  0.0775  0.1001
18436TIP3    H176799   0.362   0.715  15.576  0.1724 -0.6896  1.0723
18436TIP3    H276800   0.420   0.818  15.671  0.8942 -1.3871  1.3972
18437TIP3   OH276801   5.302   4.160   0.435  0.2753  0.7775 -0.1238
18437TIP3    H176802   5.293   4.135   0.527 -1.7390  0.8306 -0.2685
18437TIP3    H276803   5.294   4.077   0.387  0.8010  0.8169 -0.2827
18438TIP3   OH276804   0.369   2.682   4.545 -0.1032  0.3071  0.2628
18438TIP3    H176805   0.323   2.703   4.463 -0.1627  1.4916  0.5761
18438TIP3    H276806   0.412   2.599   4.528 -0.9879  0.0080 -0.6162
18439TIP3   OH276807   0.870   5.757   5.767 -0.4536 -0.0868  0.2474
18439TIP3    H176808   0.923   5.737   5.844  0.5483  0.7030 -0.2083
18439TIP3    H276809   0.838   5.846   5.783  0.9379  0.6643 -0.8323
18440TIP3   OH276810   4.300   1.313  13.538 -0.4317  0.6805 -0.4066
18440TIP3    H176811   4.310   1.315  13.443 -1.1597 -0.5125 -0.5406
18440TIP3    H276812   4.293   1.405  13.564  0.9338  1.0716 -1.3547
18441TIP3   OH276813   3.702   5.196   0.717 -0.2427  0.0585 -0.1670
18441TIP3    H176814   3.735   5.253   0.787 -1.6005 -0.2914  0.7864
18441TIP3    H276815   3.688   5.255   0.643  2.1735  0.2741 -0.5332
18442TIP3   OH276816   4.503   0.070   2.441 -0.0064  0.4014 -0.4233
18442TIP3    H176817   4.564   0.006   2.479 -0.3569  0.5775  0.4661
18442TIP3    H276818   4.552   0.152   2.441 -0.5290  0.7672  1.2228
18443TIP3   OH276819   3.434   6.118  14.726  0.0023  0.2940 -0.0762
18443TIP3    H176820   3.408   6.026  14.719 -2.4687  0.9347 -0.1156
18443TIP3    H276821   3.509   6.126  14.667  0.0022 -1.6017 -0.3883
18444TIP3   OH276822   5.982   2.797   0.127 -0.0972 -0.1709  0.6371
18444TIP3    H176823   6.011   2.720   0.176 -1.5440 -0.8498  0.4730
18444TIP3    H276824   5.921   2.762   0.062 -2.2771  1.2950  1.7967
18445TIP3   OH276825   1.022   1.959   2.305 -0.1111  0.2388  0.4397
18445TIP3    H176826   1.000   1.876   2.263 -0.1194  0.7090 -0.5212
18445TIP3    H276827   0.941   1.988   2.346 -0.1414 -0.1645  0.6623
18446TIP3   OH276828   5.172   4.060  12.824 -0.3030 -0.2046 -0.2563
18446TIP3    H176829   5.190   4.022  12.737  1.7724  1.4944 -0.6476
18446TIP3    H276830   5.244   4.028  12.879  0.3583  1.5003 -0.0874
18447TIP3   OH276831   6.022   5.711  15.979  0.3032 -0.3229 -0.0534
18447TIP3    H176832   5.975   5.729  16.061 -1.7154 -1.8430 -0.7927
18447TIP3    H276833   6.013   5.791  15.927  1.4305  0.5818  1.0715
18448TIP3   OH276834   2.333   2.574   3.921  0.4839  0.5224 -0.2424
18448TIP3    H176835   2.300   2.580   4.010  1.6089  1.0155  0.1635
18448TIP3    H276836   2.410   2.518   3.927 -0.6244 -1.1967 -1.2868
18449TIP3   OH276837   3.899   1.963  16.589 -0.1891  0.0341  0.1799
18449TIP3    H176838   3.829   1.897  16.598 -0.9673  0.7923 -0.1184
18449TIP3    H276839   3.946   1.959  16.672  1.2957 -2.5513 -0.6770
18450TIP3   OH276840   6.591   3.834   2.775  0.3637 -0.3476  0.4361
18450TIP3    H176841   6.636   3.824   2.691  0.2019  0.6295  0.2172
18450TIP3    H276842   6.557   3.746   2.794 -0.9397 -0.2871 -1.3096
18451TIP3   OH276843   2.029   4.580  16.978  0.4019  0.3650  0.0534
18451TIP3    H176844   2.122   4.558  16.974  0.5798  1.1827 -0.6689
18451TIP3    H276845   2.021   4.641  17.052  0.3877  0.0543  0.3077
18452TIP3   OH276846   0.623   4.610   0.792 -0.2230  0.1117  0.3877
18452TIP3    H176847   0.652   4.574   0.708 -0.6807 -1.1676  0.7609
18452TIP3    H276848   0.572   4.687   0.768  1.9644  1.4254 -0.3660
18453TIP3   OH276849   3.762   5.508  16.187 -0.3347 -0.3691  0.0506
18453TIP3    H176850   3.710   5.589  16.192  0.2512  0.3997 -3.4446
18453TIP3    H276851   3.841   5.527  16.238 -0.4949  1.0344 -0.1762
18454TIP3   OH276852   1.821   1.135  15.331  0.2833  0.1917  0.0384
18454TIP3    H176853   1.823   1.231  15.334 -0.6664  0.1898  1.7349
18454TIP3    H276854   1.803   1.114  15.239  2.6046  1.5501 -0.8291
18455TIP3   OH276855   5.817   1.889  15.790 -0.2367 -0.2688 -0.3418
18455TIP3    H176856   5.814   1.834  15.869 -0.1312  1.6233  1.0689
18455TIP3    H276857   5.748   1.855  15.734 -3.0002  0.6772  2.2603
18456TIP3   OH276858   5.610   0.778   4.068  0.7881  0.3725 -0.5538
18456TIP3    H176859   5.592   0.685   4.079 -0.8706  0.5965 -1.1618
18456TIP3    H276860   5.705   0.786   4.080  0.5749 -0.8438  3.4112
18457TIP3   OH276861   1.247   4.988  17.061  0.1738  0.7591  0.4233
18457TIP3    H176862   1.281   4.953  16.978  1.0259  0.3132  0.9359
18457TIP3    H276863   1.173   5.043  17.036  0.9431  1.3291 -0.7184
18458TIP3   OH276864   1.388   1.804  14.544 -0.4063  0.1063 -0.5054
18458TIP3    H176865   1.378   1.748  14.621 -4.2925 -0.1508 -0.9603
18458TIP3    H276866   1.421   1.746  14.476 -0.0783 -0.5014  0.1601
18459TIP3   OH276867   5.349   3.741  16.793  0.1597  0.4090  0.0689
18459TIP3    H176868   5.285   3.713  16.728 -0.4254  1.9017 -0.0433
18459TIP3    H276869   5.417   3.784  16.742 -0.5004  1.9562  0.4226
18460TIP3   OH276870   2.005   5.495  13.679 -0.0607 -0.9160  0.0627
18460TIP3    H176871   2.023   5.427  13.744  0.2063  0.6767  1.7380
18460TIP3    H276872   1.909   5.496  13.672 -0.0945 -1.0764  0.4626
18461TIP3   OH276873   2.612   4.560   3.144  0.4306  0.0586 -0.4031
18461TIP3    H176874   2.698   4.520   3.129  0.4362  0.2550 -0.9160
18461TIP3    H276875   2.561   4.536   3.067  0.5722  1.4132 -0.9387
18462TIP3   OH276876   1.990   4.298  13.895  0.4993 -0.4653 -0.2569
18462TIP3    H176877   2.037   4.345  13.964  1.1803  0.2442 -1.1764
18462TIP3    H276878   1.950   4.223  13.940  0.5304  0.2326  0.9822
18463TIP3   OH276879   2.011   6.484  11.965  0.2683 -0.9292 -0.3862
18463TIP3    H176880   2.035   6.562  11.914  2.1388 -1.0364  0.2313
18463TIP3    H276881   2.094   6.437  11.975  0.3627 -0.2747  3.8380
18464TIP3   OH276882   2.657   0.528  13.032  0.5185 -0.4910  0.6184
18464TIP3    H176883   2.602   0.551  12.958 -0.2864 -1.2783  0.9573
18464TIP3    H276884   2.728   0.475  12.994  0.4069 -0.4426  0.3402
18465TIP3   OH276885   0.560   1.872   0.746 -0.3019 -0.0518  0.3594
18465TIP3    H176886   0.474   1.872   0.703 -0.3776  0.4872  0.4976
18465TIP3    H276887   0.615   1.927   0.690  0.3673 -1.5310 -0.4972
18466TIP3   OH276888   5.363   1.350   6.258  0.3224 -0.2924 -0.6859
18466TIP3    H176889   5.275   1.346   6.296 -0.5825  0.7139 -2.5601
18466TIP3    H276890   5.422   1.340   6.333 -1.3683 -0.7924  0.6373
18467TIP3   OH276891   0.189   3.642   1.562 -0.0854 -0.3353  0.1870
18467TIP3    H176892   0.098   3.613   1.554 -0.0273 -0.1925 -1.4421
18467TIP3    H276893   0.183   3.736   1.580 -0.2930 -0.1178 -0.9153
18468TIP3   OH276894   3.983   2.607   3.305 -0.0078 -0.4325 -0.2506
18468TIP3    H176895   3.954   2.668   3.237 -1.6625  0.1604  0.9183
18468TIP3    H276896   3.902   2.563   3.333  0.6102 -0.5524  1.4287
18469TIP3   OH276897   4.219   3.379  16.972 -0.3381  0.2103  0.1445
18469TIP3    H176898   4.184   3.370  16.884 -0.7245 -0.2566  0.3409
18469TIP3    H276899   4.261   3.465  16.972  0.7617 -0.3019 -0.8672
18470TIP3   OH276900   4.664   5.609   5.129  0.0522  0.4095 -0.4545
18470TIP3    H176901   4.638   5.613   5.221 -0.0229  0.8079 -0.4934
18470TIP3    H276902   4.733   5.675   5.120  1.1667 -0.6992 -0.3296
18471TIP3   OH276903   4.204   2.583  14.235 -0.1359  0.2833 -0.9729
18471TIP3    H176904   4.165   2.657  14.187 -0.6609 -0.1086 -1.1653
18471TIP3    H276905   4.240   2.527  14.167  0.9319  0.7235 -0.7818
18472TIP3   OH276906   0.638   4.747  15.992 -0.3105 -0.1746  0.3281
18472TIP3    H176907   0.633   4.838  15.963  1.6375  0.0089  0.4468
18472TIP3    H276908   0.568   4.738  16.056 -0.9234  1.0618 -0.1426
18473TIP3   OH276909   4.772   3.457  16.445  0.2094  0.0444 -0.1662
18473TIP3    H176910   4.796   3.549  16.437 -0.0548  0.1372  0.1028
18473TIP3    H276911   4.695   3.448  16.389  1.1053 -0.3536 -1.3906
18474TIP3   OH276912   6.188   1.179   5.675 -0.5147 -0.2159  0.3827
18474TIP3    H176913   6.146   1.228   5.604 -1.8159 -1.2716  0.3831
18474TIP3    H276914   6.282   1.196   5.663 -0.7936  0.6428 -0.8105
18475TIP3   OH276915   4.859   6.135   1.866 -0.1312  0.2101  0.1326
18475TIP3    H176916   4.818   6.049   1.852  2.8685 -0.9972 -2.3955
18475TIP3    H276917   4.820   6.191   1.799 -1.1172  0.4842  0.9146
18476TIP3   OH276918   0.241   2.662  12.180  0.2231 -0.0664 -0.2539
18476TIP3    H176919   0.155   2.656  12.222  0.2610  0.4692 -0.1018
18476TIP3    H276920   0.302   2.669  12.253  0.3732 -0.1296 -0.3742
18477TIP3   OH276921   1.193   2.565   4.784 -0.2880 -0.5272  0.1047
18477TIP3    H176922   1.183   2.627   4.712 -2.1504  0.3582  1.0507
18477TIP3    H276923   1.242   2.612   4.851 -1.7464 -0.0060  0.8437
18478TIP3   OH276924   5.315   4.432   1.699 -0.5053 -0.3411 -0.4012
18478TIP3    H176925   5.269   4.349   1.692 -0.4758 -0.6133  1.8966
18478TIP3    H276926   5.388   4.425   1.637 -0.4071 -2.0942 -0.1331
18479TIP3   OH276927   5.124   6.710   4.813 -0.1348 -0.5685  0.1056
18479TIP3    H176928   5.134   6.732   4.906 -0.3044  0.9205 -0.1996
18479TIP3    H276929   5.033   6.733   4.793  0.2271  0.2246 -0.6919
18480TIP3   OH276930   6.161   3.415  15.385  0.4402  0.1148  0.0842
18480TIP3    H176931   6.228   3.420  15.317 -0.2067 -2.3729 -0.8281
18480TIP3    H276932   6.085   3.377  15.340 -1.4392  2.2838  1.2143
18481TIP3   OH276933   4.944   4.852   1.996 -0.1716 -0.1401  0.3847
18481TIP3    H176934   5.016   4.872   2.056  0.5951 -3.0647  0.5914
18481TIP3    H276935   4.983   4.860   1.909 -0.2125  0.3280  0.4047
18482TIP3   OH276936   0.229   6.463   1.770  0.1920 -0.2294 -0.0184
18482TIP3    H176937   0.267   6.423   1.691  0.6068  1.3749 -0.6916
18482TIP3    H276938   0.300   6.460   1.834  0.3138 -0.3284 -0.1542
18483TIP3   OH276939   2.734   5.813  17.010 -0.4779  0.3750 -0.0816
18483TIP3    H176940   2.803   5.748  17.026  0.3379  1.1400 -0.4014
18483TIP3    H276941   2.677   5.807  17.087  0.9251  0.9469  1.0503
18484TIP3   OH276942   5.562   1.512  16.623 -0.0138 -0.2673  0.2511
18484TIP3    H176943   5.518   1.431  16.598 -0.0869 -0.3522  0.6442
18484TIP3    H276944   5.493   1.567  16.661  0.1788 -0.3364  0.7185
18485TIP3   OH276945   5.359   5.089  15.623  0.1374  0.0478 -0.2212
18485TIP3    H176946   5.265   5.097  15.640 -0.2206 -2.7118 -0.4002
18485TIP3    H276947   5.364   5.065  15.531  1.0750  0.6324 -0.3323
18486TIP3   OH276948   6.578   6.673   3.804  0.3398 -0.6753  0.0331
18486TIP3    H176949   6.539   6.702   3.722 -0.0103  0.3795  0.5509
18486TIP3    H276950   6.503   6.665   3.864  0.6581 -0.9059  0.4030
18487TIP3   OH276951   4.991   6.240  13.815 -0.4987 -0.1666 -0.0465
18487TIP3    H176952   4.944   6.317  13.782  0.4635  0.3887 -0.1762
18487TIP3    H276953   4.925   6.189  13.861 -1.1966  0.6517 -0.1118
18488TIP3   OH276954   0.375   4.888  15.141 -0.0954 -0.0433 -0.4411
18488TIP3    H176955   0.395   4.794  15.141 -1.2724 -0.3069 -0.6364
18488TIP3    H276956   0.439   4.925  15.081  0.6436 -0.6578 -0.0552
18489TIP3   OH276957   4.299   2.990  12.060  0.0407 -0.2092  0.0783
18489TIP3    H176958   4.335   2.910  12.021  0.3437 -0.8367  1.6086
18489TIP3    H276959   4.332   3.060  12.004 -0.7802 -1.1662 -1.7046
18490TIP3   OH276960   6.541   1.434  13.660  0.0413  0.0147  0.5555
18490TIP3    H176961   6.471   1.425  13.725 -0.9248  1.2098 -0.2802
18490TIP3    H276962   6.498   1.417  13.576  0.6786  1.0727 -0.0034
18491TIP3   OH276963   0.198   3.093  12.463 -0.2198  0.2333 -0.0341
18491TIP3    H176964   0.176   3.055  12.378 -2.1376  0.5822  0.2657
18491TIP3    H276965   0.265   3.159  12.444 -0.7976  0.4678 -1.3099
18492TIP3   OH276966   2.384   4.527   1.237 -0.2991  0.2791 -0.1513
18492TIP3    H176967   2.335   4.445   1.226 -0.7593  0.5052  0.1718
18492TIP3    H276968   2.317   4.592   1.255  0.0682  0.7273 -0.3855
18493TIP3   OH276969   6.293   3.162   5.316 -0.2396  0.5110 -0.3036
18493TIP3    H176970   6.321   3.242   5.361  1.0174 -0.2071  0.2293
18493TIP3    H276971   6.225   3.192   5.255 -0.6560  1.7911  0.7359
18494TIP3   OH276972   6.816   0.618  14.935  0.1496  0.2694  0.1008
18494TIP3    H176973   6.728   0.623  14.972 -0.1276 -1.2743 -0.2835
18494TIP3    H276974   6.801   0.606  14.841  0.8130  1.4487 -0.1767
18495TIP3   OH276975   6.690   1.688   2.605  0.1506 -0.3887 -0.0433
18495TIP3    H176976   6.695   1.641   2.522 -2.0016  0.1898 -0.5697
18495TIP3    H276977   6.661   1.623   2.668 -0.1872 -0.3915 -0.1976
18496TIP3   OH276978   5.752   0.483   2.437  0.3326  0.2750 -0.3971
18496TIP3    H176979   5.741   0.470   2.343  0.9213 -0.8367 -0.3364
18496TIP3    H276980   5.792   0.401   2.468 -0.2507  0.4534  0.8933
18497TIP3   OH276981   6.532   1.494  13.224  0.1939  0.3855 -0.8200
18497TIP3    H176982   6.544   1.583  13.258  0.7293 -0.0326  0.1050
18497TIP3    H276983   6.477   1.451  13.289 -0.2186  0.0917 -1.3617
18498TIP3   OH276984   3.352   3.587  15.799 -0.2364  0.5308  0.4069
18498TIP3    H176985   3.290   3.660  15.785  0.4392  1.3581  1.5326
18498TIP3    H276986   3.395   3.609  15.881  3.1066  1.1118 -1.3378
18499TIP3   OH276987   3.784   3.880  15.118  0.5179  0.5122 -0.6296
18499TIP3    H176988   3.754   3.882  15.027 -2.9116  1.9727  0.3665
18499TIP3    H276989   3.754   3.795  15.151  1.4700  0.1216 -0.7485
18500TIP3   OH276990   4.171   1.652   4.256  0.1456  0.1172 -0.1845
18500TIP3    H176991   4.224   1.653   4.335  0.3270 -2.3475 -0.1863
18500TIP3    H276992   4.230   1.620   4.188 -0.7470 -0.5394 -0.6743
18501TIP3   OH276993   0.951   2.456   5.364 -0.0433  0.1944 -0.3273
18501TIP3    H176994   1.018   2.435   5.299  0.1624  0.9264 -0.3597
18501TIP3    H276995   0.966   2.548   5.385 -0.6029  0.1762  0.1818
18502TIP3   OH276996   4.562   5.828  13.986  0.5504 -0.3445  0.1982
18502TIP3    H176997   4.550   5.739  13.952 -1.5624  0.5431 -1.6127
18502TIP3    H276998   4.657   5.837  13.997  0.7476 -3.3564  2.1428
18503TIP3   OH276999   0.295   4.142   2.468 -0.1553  0.2017  0.7294
18503TIP3    H177000   0.359   4.209   2.444  0.0702 -0.5707 -0.9691
18503TIP3    H277001   0.217   4.164   2.418 -0.5555  0.0020  1.2573
18504TIP3   OH277002   1.577   5.052   3.690  0.5128 -0.2583  0.1954
18504TIP3    H177003   1.594   4.988   3.760  0.7926 -1.0912 -0.6079
18504TIP3    H277004   1.608   5.008   3.611 -0.7829  0.2388 -0.6059
18505TIP3   OH277005   3.273   4.880  12.727 -0.1693  0.5193  0.2333
18505TIP3    H177006   3.345   4.862  12.667 -0.9460  0.5774 -0.7317
18505TIP3    H277007   3.210   4.930  12.676  0.2450  2.8035  1.7812
18506TIP3   OH277008   2.043   3.490  15.574 -0.0995 -0.3451 -0.1255
18506TIP3    H177009   2.106   3.557  15.548 -0.1027 -0.0456  0.6101
18506TIP3    H277010   2.095   3.425  15.621 -0.0317 -1.0707 -1.1619
18507TIP3   OH277011   1.559   1.460   0.251 -0.7308  0.7154  0.3291
18507TIP3    H177012   1.615   1.532   0.221 -0.2667  0.2365  0.0446
18507TIP3    H277013   1.581   1.450   0.344 -2.3640  2.3789  0.9502
18508TIP3   OH277014   6.242   2.564  16.929 -0.4523  0.2790 -0.5021
18508TIP3    H177015   6.239   2.617  16.850 -1.7966 -0.1230 -0.7476
18508TIP3    H277016   6.269   2.477  16.900 -2.0177 -0.1633 -0.7270
18509TIP3   OH277017   3.581   1.457   0.477  0.8569  0.2684  0.1784
18509TIP3    H177018   3.652   1.452   0.413  0.1855  0.2852 -0.5704
18509TIP3    H277019   3.512   1.402   0.442  0.2603  0.7271  0.6102
18510TIP3   OH277020   6.559   4.969  11.535 -0.0465  0.3986  0.3590
18510TIP3    H177021   6.632   5.030  11.550  1.9426 -1.6524 -0.3397
18510TIP3    H277022   6.582   4.924  11.454 -3.4703  1.4302 -1.3416
18511TIP3   OH277023   3.733   3.604   0.566  0.4113  0.0755 -0.2748
18511TIP3    H177024   3.693   3.632   0.649  2.1786  1.0345  0.3004
18511TIP3    H277025   3.711   3.673   0.504 -2.0046 -1.2530 -1.0234
18512TIP3   OH277026   4.059   3.906  13.734  0.2479 -0.5664 -0.1704
18512TIP3    H177027   4.104   3.947  13.660  0.7062 -1.8992 -0.6657
18512TIP3    H277028   3.980   3.869  13.696  0.2777 -0.8990  0.0850
18513TIP3   OH277029   4.183   2.645   1.776  0.2321  0.4155 -0.3562
18513TIP3    H177030   4.267   2.658   1.733  0.2219 -0.7254 -0.7500
18513TIP3    H277031   4.134   2.725   1.757 -0.0250 -0.2885 -3.0996
18514TIP3   OH277032   6.396   2.386   2.625  0.2501  0.3890  0.0581
18514TIP3    H177033   6.460   2.338   2.678  1.7305  1.2078 -0.9177
18514TIP3    H277034   6.312   2.348   2.649  1.1908 -1.4522  0.6141
18515TIP3   OH277035   0.912   4.403   1.300  0.5612  0.1623 -0.2231
18515TIP3    H177036   0.901   4.497   1.286 -0.2028  0.5977  2.6883
18515TIP3    H277037   0.998   4.394   1.339 -0.5757  0.1368  2.4945
18516TIP3   OH277038   1.669   1.925  12.116 -0.2082  0.3803  0.0229
18516TIP3    H177039   1.630   1.948  12.200  0.0306 -1.6633  0.7486
18516TIP3    H277040   1.594   1.900  12.061 -0.1600 -1.0872  0.5936
18517TIP3   OH277041   6.667   4.438   1.401  0.4691 -0.5814  0.1924
18517TIP3    H177042   6.594   4.379   1.385  0.0554  0.1420 -0.6963
18517TIP3    H277043   6.728   4.422   1.329  0.4500 -0.0844  0.0610
18518TIP3   OH277044   3.997   0.203  13.543  0.3875 -0.3765 -0.2710
18518TIP3    H177045   4.016   0.188  13.636 -1.4256  0.3722  0.2843
18518TIP3    H277046   4.050   0.139  13.497 -0.4147 -2.4054  1.4396
18519TIP3   OH277047   5.663   4.263   2.158 -0.2785  0.6817 -0.7759
18519TIP3    H177048   5.600   4.219   2.215 -0.4496 -0.7415 -1.9986
18519TIP3    H277049   5.637   4.355   2.160  0.2794  0.8626  2.1154
18520TIP3   OH277050   2.788   4.747   2.220 -0.1801  0.1329  0.6797
18520TIP3    H177051   2.729   4.818   2.248  1.1844  1.8987 -0.7008
18520TIP3    H277052   2.875   4.777   2.247  0.5278 -0.6028 -0.7055
18521TIP3   OH277053   3.444   5.939  12.841  0.1608 -0.4238 -0.1450
18521TIP3    H177054   3.406   5.992  12.911 -0.7562  0.6251 -1.3860
18521TIP3    H277055   3.432   5.848  12.870 -2.4279 -0.1063  0.0170
18522TIP3   OH277056   2.514   0.597   4.880  0.0140 -0.2753 -0.2194
18522TIP3    H177057   2.532   0.503   4.877 -0.7921 -0.4616  0.3043
18522TIP3    H277058   2.449   0.606   4.950  1.8036  0.9456  1.4068
18523TIP3   OH277059   1.208   3.571   5.545  0.0331 -0.1513  0.2837
18523TIP3    H177060   1.229   3.551   5.637 -1.0156 -1.1081  0.3354
18523TIP3    H277061   1.181   3.663   5.547  1.1902  0.2011  0.7153
18524TIP3   OH277062   3.738   2.121  14.133 -0.1568 -0.1811  0.2534
18524TIP3    H177063   3.771   2.209  14.154 -1.5516  0.6110 -0.7156
18524TIP3    H277064   3.670   2.136  14.067 -0.2186 -2.0286 -0.1567
18525TIP3   OH277065   3.799   4.577  12.399  0.6418  0.0139  0.4762
18525TIP3    H177066   3.823   4.536  12.315 -0.8647  0.3789 -0.1757
18525TIP3    H277067   3.809   4.507  12.463 -1.4263 -1.3239 -0.5362
18526TIP3   OH277068   6.542   5.664  11.737 -0.3949  0.0595 -0.0743
18526TIP3    H177069   6.450   5.664  11.710 -0.3446  0.4236 -0.2557
18526TIP3    H277070   6.541   5.690  11.829 -0.4338  0.6263 -0.2314
18527TIP3   OH277071   4.906   0.743   6.209  0.2421 -0.9394 -0.5527
18527TIP3    H177072   4.955   0.660   6.213 -2.3001 -2.5458 -0.5392
18527TIP3    H277073   4.933   0.790   6.287  1.5282 -1.8639 -0.3954
18528TIP3   OH277074   2.017   2.866  15.627 -0.1881 -0.1099 -0.0706
18528TIP3    H177075   1.923   2.850  15.620  0.0361 -1.8530  0.3199
18528TIP3    H277076   2.051   2.788  15.670  1.4005  0.6482  0.1146
18529TIP3   OH277077   1.278   6.679   1.094 -0.2624 -0.5160 -0.2500
18529TIP3    H177078   1.336   6.720   1.030 -0.2490  1.8498  1.1659
18529TIP3    H277079   1.190   6.696   1.062 -0.4406  3.6525  1.7725
18530TIP3   OH277080   1.395   6.795   4.280  0.1407 -1.0940  0.0464
18530TIP3    H177081   1.426   6.770   4.367 -0.3709 -1.9477 -0.0081
18530TIP3    H277082   1.403   6.715   4.227  0.0984 -0.6818 -0.5971
18531TIP3   OH277083   4.777   4.185  16.896 -0.1926  0.3798 -0.5625
18531TIP3    H177084   4.691   4.171  16.936 -0.3960 -2.8071 -1.8113
18531TIP3    H277085   4.840   4.162  16.964 -0.3977  0.2434 -0.4180
18532TIP3   OH277086   1.308   4.662   4.358  0.1851 -0.1437 -0.0801
18532TIP3    H177087   1.280   4.672   4.267  0.4504 -0.5229 -0.2070
18532TIP3    H277088   1.404   4.661   4.354  0.1983 -0.1694  0.2023
18533TIP3   OH277089   0.807   3.372   3.049  1.0876 -0.1052 -0.0464
18533TIP3    H177090   0.804   3.333   2.961 -2.0333  0.2757 -0.2469
18533TIP3    H277091   0.812   3.466   3.033  0.0026 -0.0047  0.1199
18534TIP3   OH277092   6.510   1.095  13.728  0.0839 -0.2067 -0.1339
18534TIP3    H177093   6.597   1.055  13.718  0.4946  0.9878 -1.8194
18534TIP3    H277094   6.523   1.163  13.794  0.7542  0.7014 -1.1562
18535TIP3   OH277095   5.314   2.957   5.559 -0.1664 -0.1632 -0.0605
18535TIP3    H177096   5.272   2.937   5.643  0.9370 -1.3156  0.2560
18535TIP3    H277097   5.350   3.045   5.570  0.5397 -0.5576  0.9385
18536TIP3   OH277098   5.390   4.726  16.276 -0.4703 -0.6564  0.1572
18536TIP3    H177099   5.405   4.748  16.184 -1.4292 -0.0763  0.1224
18536TIP3    H277100   5.457   4.774  16.324 -0.1523 -0.7226 -0.2218
18537TIP3   OH277101   3.951   0.779   5.020  0.0920  0.1617 -0.3137
18537TIP3    H177102   3.942   0.857   5.075  1.2451  0.2929 -0.2751
18537TIP3    H277103   3.919   0.707   5.075 -1.0315  0.6009 -0.3676
18538TIP3   OH277104   5.652   1.922   0.688  0.0410 -0.1809 -0.0047
18538TIP3    H177105   5.733   1.960   0.724  0.3747 -0.4172 -0.4854
18538TIP3    H277106   5.614   1.872   0.760  0.6130 -0.5183  0.0726
18539TIP3   OH277107   2.302   5.714  15.435  0.1613 -0.5177 -0.0950
18539TIP3    H177108   2.393   5.689  15.452  0.3337 -0.1568 -0.4725
18539TIP3    H277109   2.271   5.750  15.518  1.1257  1.6258 -0.5830
18540TIP3   OH277110   5.258   5.545  11.748  0.0875  0.1650 -0.0469
18540TIP3    H177111   5.164   5.541  11.730  0.3897 -0.7801 -1.5931
18540TIP3    H277112   5.284   5.632  11.719 -0.0989 -0.0468 -0.8957
18541TIP3   OH277113   1.865   3.490  15.790  0.6393  0.1076 -0.1757
18541TIP3    H177114   1.917   3.511  15.712  0.4848  0.1880 -0.2584
18541TIP3    H277115   1.788   3.546  15.783  0.1091 -0.6535 -0.5154
18542TIP3   OH277116   2.999   0.433   5.220 -0.1851 -0.4511  0.4006
18542TIP3    H177117   3.089   0.404   5.234 -0.3894 -0.7288  1.2486
18542TIP3    H277118   2.999   0.471   5.133  0.4679 -1.6100 -0.1301
18543TIP3   OH277119   0.583   3.522   0.657  0.6149 -0.0195  0.2010
18543TIP3    H177120   0.498   3.538   0.698 -0.6063  0.4578 -2.2995
18543TIP3    H277121   0.638   3.595   0.685 -0.0703  0.1294  1.1706
18544TIP3   OH277122   2.723   4.266  14.723 -0.2468  0.0890  0.1304
18544TIP3    H177123   2.700   4.295  14.635 -0.6686 -1.4123 -0.2868
18544TIP3    H277124   2.663   4.314  14.781 -1.8026 -0.8460 -0.6306
18545TIP3   OH277125   1.674   5.944  14.692  0.4659  0.3781  0.1700
18545TIP3    H177126   1.609   5.938  14.762  1.0328 -2.0651  0.5801
18545TIP3    H277127   1.749   5.988  14.732  0.8662 -1.1950  1.2317
18546TIP3   OH277128   5.483   0.232   3.457  0.6917 -0.5218  0.3067
18546TIP3    H177129   5.502   0.318   3.421  0.4973 -1.0926 -1.2458
18546TIP3    H277130   5.404   0.203   3.410 -0.2646 -0.8601  2.0145
18547TIP3   OH277131   3.903   1.386   1.168  0.0394  0.2616  0.2969
18547TIP3    H177132   3.898   1.344   1.082 -1.7111 -2.7450  1.7057
18547TIP3    H277133   3.992   1.369   1.198  0.2743  0.1992 -0.4197
18548TIP3   OH277134   3.294   2.663   0.885 -0.5673 -0.5042  0.6692
18548TIP3    H177135   3.273   2.747   0.926 -1.3392 -0.8554  1.0172
18548TIP3    H277136   3.375   2.636   0.927  0.1871  0.4885 -0.1031
18549TIP3   OH277137   1.839   3.347   6.113 -0.2587 -0.5279 -0.1576
18549TIP3    H177138   1.846   3.389   6.027  0.7303  1.1469  0.7052
18549TIP3    H277139   1.773   3.398   6.160  0.5989 -0.2106  0.7392
18550TIP3   OH277140   6.119   2.747  14.059 -0.4093  0.6906 -0.2467
18550TIP3    H177141   6.085   2.760  14.148 -2.7685  2.0734 -1.2533
18550TIP3    H277142   6.092   2.825  14.011  0.1149 -0.3414 -2.3737
18551TIP3   OH277143   5.251   3.760  13.842 -0.5535 -0.2243  0.1837
18551TIP3    H177144   5.238   3.842  13.795 -1.3332 -0.1014  0.5959
18551TIP3    H277145   5.331   3.774  13.893  0.5988 -0.5380 -1.4474
18552TIP3   OH277146   1.681   2.688  12.984 -0.2902 -0.1411 -0.3623
18552TIP3    H177147   1.726   2.748  12.925 -0.9785  0.4501 -0.3019
18552TIP3    H277148   1.623   2.637  12.927 -1.5464  0.9733 -0.1425
18553TIP3   OH277149   2.351   6.156   4.061 -0.0121  0.3659  0.1868
18553TIP3    H177150   2.281   6.092   4.051 -1.3314  1.9728 -1.4117
18553TIP3    H277151   2.388   6.167   3.973 -1.2862  3.2944 -0.1207
18554TIP3   OH277152   4.372   4.429  11.380 -0.3090 -0.2306  0.2160
18554TIP3    H177153   4.408   4.374  11.450 -0.1709 -1.4291 -0.7612
18554TIP3    H277154   4.330   4.501  11.426  1.0512 -0.1900  1.4832
18555TIP3   OH277155   3.238   5.247   1.443 -0.1245  0.5158  0.6071
18555TIP3    H177156   3.158   5.208   1.479 -1.4827  2.3307 -0.2858
18555TIP3    H277157   3.235   5.226   1.350  0.7105  0.1798  0.6518
18556TIP3   OH277158   0.656   2.907  12.080  0.7307  0.3118  0.4246
18556TIP3    H177159   0.711   2.982  12.057  1.3467  0.3043  1.7792
18556TIP3    H277160   0.573   2.945  12.108  0.6349  0.4165  0.0052
18557TIP3   OH277161   2.168   6.414   4.822 -0.0696 -0.0467 -0.2424
18557TIP3    H177162   2.163   6.374   4.735 -1.4330 -1.0960  0.2767
18557TIP3    H277163   2.228   6.357   4.870 -1.9902 -1.5601  0.4883
18558TIP3   OH277164   3.452   3.392  14.435 -0.1088  0.9197 -0.2950
18558TIP3    H177165   3.492   3.373  14.350  0.8994  1.8274 -0.0432
18558TIP3    H277166   3.375   3.444  14.414 -1.0678 -0.6306 -0.7702
18559TIP3   OH277167   1.436   3.718   2.587  0.1143 -0.1649 -0.2201
18559TIP3    H177168   1.405   3.675   2.507  0.3878  0.2037 -0.5298
18559TIP3    H277169   1.450   3.809   2.561  1.1900 -0.2570 -0.0304
18560TIP3   OH277170   0.368   5.346  12.275 -0.4082 -0.1732  0.5255
18560TIP3    H177171   0.336   5.256  12.283  0.6115 -0.7117 -0.9982
18560TIP3    H277172   0.371   5.361  12.180  0.2470  1.1790  0.7438
18561TIP3   OH277173   4.345   5.183   2.320  0.4423 -0.0461  0.1484
18561TIP3    H177174   4.356   5.236   2.399 -0.5881 -0.1311  0.3748
18561TIP3    H277175   4.254   5.153   2.325  0.9159 -1.6050 -0.1129
18562TIP3   OH277176   2.485   5.866  15.108 -0.6916  0.6923  0.0444
18562TIP3    H177177   2.538   5.789  15.087 -1.3420  0.7821 -2.1231
18562TIP3    H277178   2.403   5.830  15.143 -0.6744  0.4344 -0.1768
18563TIP3   OH277179   2.192   2.785  13.001  0.3044  0.3340  0.7927
18563TIP3    H177180   2.235   2.729  12.937 -0.4399  1.1620 -0.4942
18563TIP3    H277181   2.186   2.732  13.081 -0.0565 -1.2683 -0.2571
18564TIP3   OH277182   0.164   5.183   0.172 -0.4277  0.1899  0.0744
18564TIP3    H177183   0.099   5.115   0.155 -0.4224 -0.5199  2.4983
18564TIP3    H277184   0.136   5.222   0.255  1.9747  0.1812  0.9485
18565TIP3   OH277185   1.355   4.934   0.963 -0.5743 -0.5524  0.4106
18565TIP3    H177186   1.289   4.973   1.021 -1.6779 -1.8272  0.0636
18565TIP3    H277187   1.352   4.989   0.885  0.6222  0.9223  1.3590
18566TIP3   OH277188   3.971   5.336   1.674  0.1723 -0.2155  0.3474
18566TIP3    H177189   3.976   5.416   1.726  0.7488 -0.5587  0.8410
18566TIP3    H277190   3.981   5.265   1.738 -0.7318 -0.7029 -0.0274
18567TIP3   OH277191   4.417   1.101   0.829 -0.8530 -0.1122 -0.1455
18567TIP3    H177192   4.368   1.045   0.769 -0.3792 -0.8434  0.1404
18567TIP3    H277193   4.368   1.096   0.911 -0.0871 -1.1843  0.2643
18568TIP3   OH277194   2.334   6.773   4.893 -0.4734 -0.1928  1.1313
18568TIP3    H177195   2.258   6.755   4.838 -0.9252 -1.3531  2.0876
18568TIP3    H277196   2.369   6.686   4.914  0.5611  0.2910  1.4728
18569TIP3   OH277197   4.883   6.789   4.696  0.0288 -0.4216  0.2777
18569TIP3    H177198   4.854   6.871   4.657 -0.0169  0.7907  2.6544
18569TIP3    H277199   4.894   6.729   4.622  0.1181  1.7185 -1.5446
18570TIP3   OH277200   2.161   3.676   1.297  0.0809 -0.8943  0.1722
18570TIP3    H177201   2.157   3.624   1.217  1.3437  0.6967 -0.9921
18570TIP3    H277202   2.073   3.713   1.306  0.0875 -0.6361 -0.7905
18571TIP3   OH277203   1.961   3.392   4.408  0.5262  0.3944  0.3579
18571TIP3    H177204   1.948   3.478   4.448  0.9044 -0.4614  2.4544
18571TIP3    H277205   1.948   3.330   4.480  0.3096 -1.3105 -1.0909
18572TIP3   OH277206   3.779   1.318  15.168  0.1352 -0.6340 -0.3666
18572TIP3    H177207   3.819   1.255  15.108 -0.8921  0.8446 -2.7491
18572TIP3    H277208   3.701   1.273  15.201  0.7477 -1.4870 -0.0331
18573TIP3   OH277209   2.149   6.254   4.561 -0.0094 -0.0296  0.1354
18573TIP3    H177210   2.112   6.168   4.541  0.0380  0.0240 -0.1847
18573TIP3    H277211   2.076   6.315   4.547  0.5497  0.2474 -1.9274
18574TIP3   OH277212   1.035   4.265   0.237  0.1102  0.0242  0.6009
18574TIP3    H177213   1.015   4.323   0.164  1.5999 -0.1791 -0.0082
18574TIP3    H277214   1.052   4.325   0.311  2.9613  0.5587 -0.3435
18575TIP3   OH277215   1.941   3.676   2.151 -0.0691  0.5826 -0.3608
18575TIP3    H177216   1.934   3.755   2.205 -3.9451 -0.4407  0.9589
18575TIP3    H277217   1.992   3.615   2.205 -1.6810  0.4495  1.0929
18576TIP3   OH277218   4.436   4.046   2.446 -0.3524 -0.3840  0.4053
18576TIP3    H177219   4.479   4.100   2.379  3.0117 -1.9571  1.0992
18576TIP3    H277220   4.343   4.055   2.427  0.2266  2.6065 -1.8114
18577TIP3   OH277221   0.453   2.758  16.733  0.0252 -0.0352  0.4713
18577TIP3    H177222   0.471   2.732  16.823 -1.5479 -0.1226  0.7893
18577TIP3    H277223   0.498   2.842  16.723  1.3946 -0.6965  0.8696
18578TIP3   OH277224   1.403   0.207  12.014  0.1856 -0.5995  0.0877
18578TIP3    H177225   1.330   0.261  12.044  0.6135 -0.2956  0.5773
18578TIP3    H277226   1.441   0.171  12.093  1.3169  0.2068 -0.0740
18579TIP3   OH277227   0.746   2.826  11.481 -0.1164  0.1371 -0.2840
18579TIP3    H177228   0.767   2.893  11.545  0.0763 -0.4563  0.2875
18579TIP3    H277229   0.822   2.768  11.481 -0.0802  0.1749 -1.1132
18580TIP3   OH277230   1.320   0.143  16.712 -0.1246 -0.5417 -0.6409
18580TIP3    H177231   1.344   0.065  16.660  0.7303  1.9061 -4.3140
18580TIP3    H277232   1.230   0.162  16.686  0.1149  0.3921 -0.8304
18581TIP3   OH277233   3.035   2.189  13.579 -0.0662 -0.3013  0.0291
18581TIP3    H177234   2.945   2.207  13.551 -0.0367  1.1618  0.7486
18581TIP3    H277235   3.037   2.096  13.598 -1.2371 -0.4811 -0.6542
18582TIP3   OH277236   3.107   2.931   5.688  0.3375  0.3578  0.3061
18582TIP3    H177237   3.180   2.912   5.748  0.2576  0.3435  0.3987
18582TIP3    H277238   3.125   2.878   5.611  0.1667 -0.0219  0.5255
18583TIP3   OH277239   0.541   2.987   4.600 -0.5367  0.3041  0.0092
18583TIP3    H177240   0.568   2.950   4.517  1.0503 -1.8536  1.3765
18583TIP3    H277241   0.564   3.080   4.594  0.1377  0.0494 -1.6976
18584TIP3   OH277242   4.748   4.859  13.014 -0.3015  0.2930 -0.1861
18584TIP3    H177243   4.842   4.845  13.000 -0.1308  0.4455  0.7477
18584TIP3    H277244   4.708   4.773  12.998 -0.0458  0.3015 -0.8896
18585TIP3   OH277245   6.031   5.901  13.700  0.2231 -0.2067  0.1586
18585TIP3    H177246   5.963   5.929  13.638 -0.1628  0.6643  0.9501
18585TIP3    H277247   6.028   5.967  13.770 -0.1903 -1.8309  1.7359
18586TIP3   OH277248   1.499   6.269   2.378 -0.1041  0.1810 -0.4518
18586TIP3    H177249   1.545   6.342   2.420 -2.2446  1.5600 -0.3385
18586TIP3    H277250   1.568   6.218   2.335  1.5444  1.8601  0.0814
18587TIP3   OH277251   2.408   1.640  16.686 -0.0378  0.2863 -0.1417
18587TIP3    H177252   2.366   1.725  16.675  0.3988  0.4408 -0.6511
18587TIP3    H277253   2.359   1.598  16.756 -0.9413  0.5277 -0.6146
18588TIP3   OH277254   3.417   2.013  13.678  0.0513 -0.5872  0.0037
18588TIP3    H177255   3.363   2.069  13.623  0.7738 -0.6477 -0.7989
18588TIP3    H277256   3.397   1.924  13.649 -0.8233 -0.7330  1.0223
18589TIP3   OH277257   4.307   1.579   4.027 -0.4254  0.4409 -0.2722
18589TIP3    H177258   4.391   1.607   3.992  0.1010 -0.5338  0.1770
18589TIP3    H277259   4.296   1.489   3.996 -1.0679  0.3912  0.0754
18590TIP3   OH277260   2.885   6.800  12.508 -0.0450 -0.0258 -0.6142
18590TIP3    H177261   2.874   6.887  12.548  0.6838  0.1185 -0.7088
18590TIP3    H277262   2.808   6.751  12.536 -0.4559  0.6448 -0.5382
18591TIP3   OH277263   4.767   4.951   2.983 -0.4209 -0.5598  0.1263
18591TIP3    H177264   4.839   4.900   2.947 -1.2162 -1.8362  0.2923
18591TIP3    H277265   4.808   5.005   3.051  0.4042 -1.1885  0.1476
18592TIP3   OH277266   2.578   3.917  15.008  0.0747 -0.0890  0.0844
18592TIP3    H177267   2.617   4.004  15.015 -1.1048  0.4454  0.2968
18592TIP3    H277268   2.528   3.920  14.926  0.3873 -0.7227 -0.1340
18593TIP3   OH277269   1.947   0.734   1.733 -0.0099 -0.4370 -0.1618
18593TIP3    H177270   2.015   0.789   1.771  0.0510 -0.0743 -0.7856
18593TIP3    H277271   1.926   0.775   1.649 -1.0098 -0.5342  0.0241
18594TIP3   OH277272   1.372   2.235  12.126 -0.2896 -0.3771  0.1827
18594TIP3    H177273   1.447   2.239  12.068  0.7312 -1.2357  1.3858
18594TIP3    H277274   1.351   2.327  12.144 -1.0075 -0.0774 -1.9423
18595TIP3   OH277275   0.496   3.061  14.976 -0.4522 -0.2243  0.0451
18595TIP3    H177276   0.411   3.025  14.999 -0.2818 -0.2169  0.7069
18595TIP3    H277277   0.498   3.060  14.880 -1.6819  0.9101 -0.0268
18596TIP3   OH277278   3.925   3.996  17.188 -0.5631 -0.3633 -0.3986
18596TIP3    H177279   3.891   4.042  17.265 -1.1069  0.3772 -1.0540
18596TIP3    H277280   3.930   4.064  17.121  0.2251 -0.9232 -0.9244
18597TIP3   OH277281   1.441   1.805  11.107  0.1213  0.2607  0.1443
18597TIP3    H177282   1.405   1.804  11.195  1.2438 -1.2093  0.6084
18597TIP3    H277283   1.476   1.717  11.093  1.2282  0.8682 -1.2305
18598TIP3   OH277284   4.118   3.754  14.911  0.2450 -0.1601  0.1371
18598TIP3    H177285   4.105   3.822  14.978 -0.5412 -0.7033  0.5596
18598TIP3    H277286   4.042   3.697  14.920  0.3582 -0.5006 -0.9344
18599TIP3   OH277287   0.905   5.547   1.221  0.0617 -0.1775  0.1042
18599TIP3    H177288   0.810   5.555   1.231  0.2380 -0.1194  2.2606
18599TIP3    H277289   0.936   5.638   1.217  0.0375 -0.1965 -0.5899
18600TIP3   OH277290   1.640   0.064  15.335 -0.3674 -0.1036 -0.4351
18600TIP3    H177291   1.690   0.144  15.317 -1.0151  0.3570 -0.2209
18600TIP3    H277292   1.639   0.057  15.430 -2.2616  0.9101 -0.3463
18601TIP3   OH277293   0.236   4.401  14.258  0.0999  0.1252  0.4537
18601TIP3    H177294   0.176   4.406  14.333 -0.7002 -1.0533 -0.0983
18601TIP3    H277295   0.250   4.493  14.233 -1.6724  0.4227  0.4364
18602TIP3   OH277296   4.333   1.534  13.150  0.3592  0.0859  0.1340
18602TIP3    H177297   4.285   1.468  13.199  0.9781 -0.1209  0.4783
18602TIP3    H277298   4.424   1.523  13.178  0.7399 -0.0607 -1.0853
18603TIP3   OH277299   5.208   4.769   4.923  0.0683 -0.0913  0.0556
18603TIP3    H177300   5.113   4.764   4.916 -0.0896  1.3227  0.8537
18603TIP3    H277301   5.235   4.818   4.846  0.0020  0.6608  0.4984
18604TIP3   OH277302   5.347   4.646  11.259 -0.4155 -0.0210 -0.2954
18604TIP3    H177303   5.309   4.612  11.341  0.1175 -0.1648 -0.1045
18604TIP3    H277304   5.282   4.626  11.192 -0.6423 -0.3401  0.0173
18605TIP3   OH277305   2.712   4.807  17.167  0.0249 -0.1172 -0.2607
18605TIP3    H177306   2.794   4.820  17.120  0.4681  0.2087  0.5784
18605TIP3    H277307   2.739   4.771  17.252 -0.6623  0.4008  0.1878
18606TIP3   OH277308   6.297   6.450   4.501  0.1683 -0.0413  0.3098
18606TIP3    H177309   6.263   6.373   4.547 -0.0701  0.1281  0.4215
18606TIP3    H277310   6.392   6.448   4.517  0.0296  0.2940  1.2540
18607TIP3   OH277311   2.996   0.016  16.798  0.4581 -0.2491 -0.3771
18607TIP3    H177312   2.949  -0.066  16.784  1.0078 -0.5348 -0.5466
18607TIP3    H277313   3.074   0.010  16.743  0.7552  0.1769 -0.0118
18608TIP3   OH277314   1.313   1.948   2.377 -0.7190 -0.2956  0.0054
18608TIP3    H177315   1.341   1.883   2.441 -0.4592  0.7063  0.9438
18608TIP3    H277316   1.220   1.929   2.362 -0.5656 -1.0726  0.0300
18609TIP3   OH277317   5.060   4.876   4.269  0.4392  0.0510 -0.6517
18609TIP3    H177318   5.023   4.804   4.319  2.4572 -0.1203  0.7441
18609TIP3    H277319   5.128   4.835   4.215  2.4347  0.9555  1.0334
18610TIP3   OH277320   5.948   3.935  10.628  0.2296 -0.6961 -0.3182
18610TIP3    H177321   5.992   3.996  10.688  0.0865 -2.0811  1.2736
18610TIP3    H277322   5.880   3.894  10.681 -0.4355 -1.4095 -1.6778
18611TIP3   OH277323   3.987   5.015  12.814 -0.0405  0.8563 -0.0261
18611TIP3    H177324   4.078   4.990  12.828  0.4557  0.4280 -3.3112
18611TIP3    H277325   3.990   5.083  12.747 -2.1609  0.0773 -1.0345
18612TIP3   OH277326   3.866   3.690   3.533  0.1620  0.6710  0.7605
18612TIP3    H177327   3.923   3.616   3.515  0.2667  1.3686 -2.4449
18612TIP3    H277328   3.924   3.766   3.530 -0.7184  1.3906 -2.5189
18613TIP3   OH277329   2.826   3.317   3.402 -0.2805  0.2883 -0.2813
18613TIP3    H177330   2.841   3.359   3.487 -0.7440 -0.0431 -0.0297
18613TIP3    H277331   2.738   3.280   3.409 -0.7950  1.2585 -1.3211
18614TIP3   OH277332   0.458   3.548  13.791  0.0825 -0.1268  0.6040
18614TIP3    H177333   0.381   3.602  13.807 -0.3722 -0.5316 -0.1863
18614TIP3    H277334   0.517   3.605  13.742 -1.2588 -0.9353 -2.1399
18615TIP3   OH277335   4.062   6.485  15.819  0.3046 -0.0392 -0.4760
18615TIP3    H177336   4.126   6.538  15.772  0.5210  0.3391  0.2303
18615TIP3    H277337   4.090   6.489  15.911 -0.8636  0.3370 -0.1233
18616TIP3   OH277338   5.413   3.220   4.366 -0.2778 -0.2571 -0.2531
18616TIP3    H177339   5.343   3.226   4.431 -1.7391  1.4668 -1.8894
18616TIP3    H277340   5.368   3.224   4.281  1.6716 -0.9556 -1.3835
18617TIP3   OH277341   3.268   4.635  12.154 -0.2514  0.1970 -0.3609
18617TIP3    H177342   3.178   4.630  12.122 -0.1645  1.0547 -0.7619
18617TIP3    H277343   3.311   4.699  12.096  0.2236  0.8818  0.7064
18618TIP3   OH277344   3.282   2.774   4.182 -0.4132 -0.1359  0.1134
18618TIP3    H177345   3.357   2.715   4.172 -0.8918 -0.5505 -1.2440
18618TIP3    H277346   3.230   2.735   4.252  0.1761 -0.3388  0.4464
18619TIP3   OH277347   6.375   0.883   0.315 -0.4483 -0.7941 -0.4509
18619TIP3    H177348   6.433   0.959   0.306 -0.4070 -0.8429 -0.5953
18619TIP3    H277349   6.329   0.878   0.231 -1.7273  0.1279  0.1559
18620TIP3   OH277350   3.771   0.898   0.172  0.2726  0.7637  0.3887
18620TIP3    H177351   3.851   0.951   0.174  0.4709  0.5051 -0.3008
18620TIP3    H277352   3.702   0.958   0.147  0.1353  1.1205  1.5786
18621TIP3   OH277353   4.922   5.340  12.467 -0.0842  0.1363  0.3050
18621TIP3    H177354   4.957   5.346  12.556 -1.6574  1.1317  0.9050
18621TIP3    H277355   4.859   5.267  12.472 -0.0228  0.0578 -0.0550
18622TIP3   OH277356   1.858   2.986   4.266 -0.4798 -0.5089  0.2556
18622TIP3    H177357   1.902   3.009   4.348 -0.0085 -0.6975  0.0574
18622TIP3    H277358   1.789   2.925   4.293  0.4037 -1.4725  0.3876
18623TIP3   OH277359   2.707   0.185   2.113 -0.1781 -0.0546 -0.1117
18623TIP3    H177360   2.706   0.148   2.025  0.8901 -1.5178  0.4577
18623TIP3    H277361   2.636   0.140   2.159 -0.5723  0.5302 -0.1286
18624TIP3   OH277362   1.871   4.607  10.567  0.1086  0.1620  0.1848
18624TIP3    H177363   1.901   4.685  10.521 -0.3784  0.3608  0.1980
18624TIP3    H277364   1.930   4.538  10.538 -0.8821  0.0294 -1.6489
18625TIP3   OH277365   1.290   3.845  15.346  0.4926  0.1467 -0.5096
18625TIP3    H177366   1.353   3.781  15.380  0.7919  1.2310  1.0710
18625TIP3    H277367   1.213   3.835  15.403  0.1477  0.4658 -0.9157
18626TIP3   OH277368   4.546   5.517  13.635 -0.0707  0.1986  0.5537
18626TIP3    H177369   4.622   5.472  13.675 -0.8281 -0.3758  1.3990
18626TIP3    H277370   4.493   5.446  13.600  0.3475  0.6760 -1.1173
18627TIP3   OH277371   5.674   5.054   2.744 -0.3190  0.2792  0.1720
18627TIP3    H177372   5.758   5.026   2.778  0.6279  2.6670  0.0220
18627TIP3    H277373   5.692   5.079   2.653 -1.4672 -0.2862 -0.2318
18628TIP3   OH277374   6.644   2.242   0.512 -0.1105 -0.2503 -0.7415
18628TIP3    H177375   6.573   2.288   0.557 -1.3740 -0.8965 -1.9701
18628TIP3    H277376   6.688   2.311   0.462 -1.3789 -0.1649 -1.8086
18629TIP3   OH277377   3.979   3.954   2.537  0.0744  0.1364  0.2101
18629TIP3    H177378   4.039   3.927   2.467 -0.4816 -2.1934  0.5469
18629TIP3    H277379   4.035   3.993   2.604  0.9197  0.0307 -0.4223
18630TIP3   OH277380   5.001   3.505   6.415  0.4813  0.3036 -0.4572
18630TIP3    H177381   4.914   3.468   6.428  0.3554  1.3444  2.3908
18630TIP3    H277382   5.033   3.464   6.334 -1.9583 -1.3540 -0.6926
18631TIP3   OH277383   0.366   2.636  16.529  0.4413 -0.5145 -0.3829
18631TIP3    H177384   0.425   2.572  16.490 -0.8773 -1.3395 -1.1292
18631TIP3    H277385   0.421   2.689  16.585  1.7459 -1.7097 -0.4824
18632TIP3   OH277386   3.118   2.965   3.836 -0.4142  1.0574 -0.0258
18632TIP3    H177387   3.037   3.007   3.806 -1.6853 -0.6575  0.8215
18632TIP3    H277388   3.088   2.893   3.891  1.6669 -0.5085 -0.8301
18633TIP3   OH277389   5.154   6.091  15.379  0.6187 -0.5321  0.2951
18633TIP3    H177390   5.105   6.013  15.352  0.5972 -0.1727 -0.7268
18633TIP3    H277391   5.152   6.149  15.303 -1.4064  1.5084  1.7302
18634TIP3   OH277392   5.129   3.342   2.434  0.3589  0.1738 -0.1349
18634TIP3    H177393   5.156   3.434   2.426 -0.4427  0.4656  0.4275
18634TIP3    H277394   5.212   3.294   2.443  0.7532  0.9540  0.6106
18635TIP3   OH277395   4.440   6.295  14.226 -0.2850  0.3710 -0.5847
18635TIP3    H177396   4.396   6.335  14.152 -0.9072  1.2648  0.2467
18635TIP3    H277397   4.498   6.229  14.187 -0.6725  0.7514 -1.8399
18636TIP3   OH277398   4.323   0.228  14.577 -0.0302  0.2235  0.2164
18636TIP3    H177399   4.248   0.202  14.631 -0.4727 -0.9354 -0.9011
18636TIP3    H277400   4.390   0.254  14.640 -1.0288  0.3150  1.2724
18637TIP3   OH277401   3.937   1.121  12.009  0.2188  0.1678 -0.2622
18637TIP3    H177402   3.972   1.070  12.082  1.0549  1.0701 -0.0166
18637TIP3    H277403   3.964   1.211  12.027  0.8638  0.3489 -1.9241
18638TIP3   OH277404   2.851   0.788   0.954 -0.0208  0.0894 -0.4086
18638TIP3    H177405   2.912   0.714   0.951  0.9155  0.8770 -1.6792
18638TIP3    H277406   2.907   0.865   0.946 -1.1787  0.8323 -1.6629
18639TIP3   OH277407   3.824   4.207  11.554  0.3405 -0.0036  0.0901
18639TIP3    H177408   3.838   4.158  11.473  1.7266  0.7557 -0.1568
18639TIP3    H277409   3.757   4.156  11.601 -0.3662 -0.5479 -1.4310
18640TIP3   OH277410   0.752   6.359  14.951  0.1969  0.5974  0.1496
18640TIP3    H177411   0.725   6.362  14.859  0.9112 -2.3072 -0.2440
18640TIP3    H277412   0.777   6.268  14.966  0.6761  1.1123  3.0885
18641TIP3   OH277413   0.907   6.773   3.366 -0.2635  0.3515 -0.1368
18641TIP3    H177414   0.817   6.775   3.399  0.0260  2.7275  0.6787
18641TIP3    H277415   0.947   6.698   3.411 -1.9798 -1.2066 -1.0678
18642TIP3   OH277416   2.423   0.623  12.347 -0.1404 -0.3974 -0.1055
18642TIP3    H177417   2.335   0.610  12.381  0.1514 -1.6414  0.1995
18642TIP3    H277418   2.446   0.712  12.375 -1.2722 -0.0743 -0.1582
18643TIP3   OH277419   2.281   6.494  12.023 -0.2727 -0.2813 -0.1813
18643TIP3    H177420   2.272   6.489  12.118 -1.6710  2.1769 -0.0754
18643TIP3    H277421   2.352   6.434  12.001 -0.1445 -1.1462  2.3658
18644TIP3   OH277422   5.396   0.847   2.534  0.0363  0.8059 -0.1655
18644TIP3    H177423   5.488   0.821   2.521  0.1833  1.4223 -0.3982
18644TIP3    H277424   5.354   0.769   2.571  0.5652  0.3879 -0.4298
18645TIP3   OH277425   1.946   2.972  14.149  0.3573 -0.3012 -0.2418
18645TIP3    H177426   2.007   3.030  14.197 -0.5327 -0.9673  1.8019
18645TIP3    H277427   1.860   3.013  14.161  0.0892 -0.5967 -1.1267
18646TIP3   OH277428   0.467   6.450   6.474  0.1957 -0.0839 -0.1204
18646TIP3    H177429   0.394   6.471   6.533  1.6354 -0.8655  2.0487
18646TIP3    H277430   0.464   6.355   6.465  0.8744 -0.1102 -0.1054
18647TIP3   OH277431   4.588   3.641  15.864 -0.0140  0.2977 -0.2559
18647TIP3    H177432   4.522   3.573  15.876 -1.6667  1.3669 -2.4468
18647TIP3    H277433   4.670   3.592  15.849 -0.3057 -1.0652  2.1210
18648TIP3   OH277434   4.214   4.207   3.064 -0.0619 -0.2430 -0.3811
18648TIP3    H177435   4.299   4.164   3.056 -0.2787 -1.1312  1.6164
18648TIP3    H277436   4.187   4.192   3.154 -1.9372  0.8168 -0.7014
18649TIP3   OH277437   1.835   0.259   3.590  0.2202  0.0482  0.1623
18649TIP3    H177438   1.849   0.169   3.559  1.5502  0.1121  0.5168
18649TIP3    H277439   1.885   0.313   3.529  0.8796  0.3825  0.9785
18650TIP3   OH277440   0.225   3.219   2.028  0.0335  0.0181  0.6545
18650TIP3    H177441   0.130   3.222   2.039 -0.4031 -3.0199 -1.0167
18650TIP3    H277442   0.257   3.182   2.110  0.1628  3.0626  2.1237
18651TIP3   OH277443   5.424   3.290   0.680  0.4194 -0.1320 -0.5293
18651TIP3    H177444   5.330   3.271   0.674  0.4301 -0.4595  0.2422
18651TIP3    H277445   5.466   3.205   0.669  0.4677 -0.6784  2.9660
18652TIP3   OH277446   1.662   3.662  16.213 -0.2883  0.4899  0.2717
18652TIP3    H177447   1.579   3.637  16.255  0.5127 -3.3500 -0.0676
18652TIP3    H277448   1.730   3.633  16.274  0.8142 -0.5732 -1.3810
18653TIP3   OH277449   5.296   0.981   0.670  0.1544  0.1262  0.2327
18653TIP3    H177450   5.306   0.981   0.574 -0.0678  0.1945  0.2076
18653TIP3    H277451   5.248   0.901   0.689  0.5534 -0.0938  0.3299
18654TIP3   OH277452   2.495   0.681   2.775  0.1971 -0.1463 -0.1036
18654TIP3    H177453   2.405   0.660   2.750 -0.4968  1.7552  0.6346
18654TIP3    H277454   2.537   0.711   2.694 -0.7074  1.6765  0.0573
18655TIP3   OH277455   5.812   3.269   0.590  0.2008 -0.3273  0.2534
18655TIP3    H177456   5.793   3.216   0.668  0.5324 -1.3039 -0.3127
18655TIP3    H277457   5.733   3.261   0.536 -0.2156  0.7289  0.6789
18656TIP3   OH277458   3.637   2.621   3.166  0.5978 -0.4315  0.1316
18656TIP3    H177459   3.552   2.659   3.189 -0.0396 -0.8765 -1.3881
18656TIP3    H277460   3.690   2.696   3.140 -0.4547 -0.4045 -2.2401
18657TIP3   OH277461   6.822   4.137   4.778  0.5281 -0.0573  0.6245
18657TIP3    H177462   6.897   4.103   4.826  0.4643 -0.8051  0.2057
18657TIP3    H277463   6.854   4.150   4.689  0.0985 -0.6170  0.3842
18658TIP3   OH277464   4.493   4.969   2.237 -0.6719  0.7536  0.1028
18658TIP3    H177465   4.545   4.982   2.158  0.9282  1.9399  1.2956
18658TIP3    H277466   4.464   5.057   2.262  2.9759  1.2632  3.4620
18659TIP3   OH277467   5.300   1.352   0.159  0.2951 -0.4589  0.0559
18659TIP3    H177468   5.220   1.305   0.182  1.0988 -2.5082 -1.0811
18659TIP3    H277469   5.302   1.351   0.063  2.0095 -1.1114  0.0586
18660TIP3   OH277470   4.008   0.995   1.057 -0.2899 -0.5322  0.1269
18660TIP3    H177471   3.981   0.959   0.972  0.2262  2.0631 -1.2508
18660TIP3    H277472   3.927   1.003   1.107 -0.8819 -0.4368 -0.8221
18661TIP3   OH277473   5.266   1.141  12.790  0.0069 -0.4618 -0.4420
18661TIP3    H177474   5.354   1.103  12.795  0.0141 -0.3598  0.3781
18661TIP3    H277475   5.281   1.235  12.798 -0.1926 -0.4582 -0.1084
18662TIP3   OH277476   1.039   3.910   3.512  0.0152  0.9048  0.9279
18662TIP3    H177477   1.080   3.949   3.589  0.7643  0.4300  0.7756
18662TIP3    H277478   1.030   3.817   3.534 -0.0413  0.8207  0.5549
18663TIP3   OH277479   5.557   0.085  14.570  0.0295 -0.7330 -0.1398
18663TIP3    H177480   5.642   0.046  14.550 -0.5086 -2.0636  0.0684
18663TIP3    H277481   5.495   0.035  14.517 -0.8857 -1.3036  1.4138
18664TIP3   OH277482   4.972   1.433  17.022  0.5986 -0.2612  0.0947
18664TIP3    H177483   4.953   1.340  17.029  0.1433 -0.0953  1.0921
18664TIP3    H277484   5.061   1.442  17.058  0.3768 -0.2132  0.6366
18665TIP3   OH277485   0.822   4.940   2.267  0.4124 -0.2581  0.5020
18665TIP3    H177486   0.875   4.937   2.346 -1.9830 -1.5799  2.2137
18665TIP3    H277487   0.732   4.954   2.300 -0.7759 -1.6863 -1.9002
18666TIP3   OH277488   5.918   5.769  11.999 -0.2386 -0.1544 -0.4193
18666TIP3    H177489   5.972   5.723  11.934  1.2319  1.2382 -0.2573
18666TIP3    H277490   5.855   5.818  11.947 -0.8257 -1.1239 -0.6525
18667TIP3   OH277491   1.320   2.080   1.763 -0.2215  0.1500 -0.1490
18667TIP3    H177492   1.259   2.136   1.715 -1.5174 -1.5630 -0.5611
18667TIP3    H277493   1.345   2.133   1.839 -0.8928  1.5303 -0.8455
18668TIP3   OH277494   3.711   1.901   1.046 -0.1810 -0.2495 -0.1394
18668TIP3    H177495   3.789   1.874   0.998  0.0199 -0.1732  0.1364
18668TIP3    H277496   3.723   1.863   1.133 -0.3518 -0.0645 -0.0346
18669TIP3   OH277497   3.884   2.862   0.905  0.2784 -0.3200 -0.2328
18669TIP3    H177498   3.937   2.934   0.871 -0.4118 -0.4538 -1.6459
18669TIP3    H277499   3.911   2.785   0.855  0.1160 -0.7924  0.3871
18670TIP3   OH277500   0.167   2.344  11.511  0.3994 -0.5093  0.5503
18670TIP3    H177501   0.166   2.430  11.470 -1.6569 -0.8401 -0.2138
18670TIP3    H277502   0.236   2.296  11.464  0.6875  0.3208  0.1086
18671TIP3   OH277503   6.453   2.364   1.327 -0.4445 -0.0790 -0.6761
18671TIP3    H177504   6.471   2.434   1.390 -1.2540 -0.6693  0.2316
18671TIP3    H277505   6.488   2.397   1.245  0.5600  0.7466  0.0570
18672TIP3   OH277506   1.902   2.765  16.952  0.3493 -0.5302  0.1817
18672TIP3    H177507   1.985   2.729  16.984 -0.2073 -1.0754  1.0762
18672TIP3    H277508   1.870   2.819  17.024 -0.3830 -0.8456  0.1048
18673TIP3   OH277509   5.464   0.853  13.628  0.1527 -0.3991 -0.3250
18673TIP3    H177510   5.539   0.877  13.573  0.7767 -0.6179  0.4066
18673TIP3    H277511   5.410   0.932  13.630 -0.7818 -0.9053 -2.6256
18674TIP3   OH277512   4.757   3.937   6.114 -0.4585 -0.4314 -0.7184
18674TIP3    H177513   4.805   3.893   6.043  1.5145 -2.0295  1.4323
18674TIP3    H277514   4.825   3.964   6.175 -2.1324 -0.1511  1.1113
18675TIP3   OH277515   1.855   6.426  12.201  0.1760 -0.4933  0.0057
18675TIP3    H177516   1.898   6.410  12.117 -0.4109 -1.2183 -0.1747
18675TIP3    H277517   1.780   6.365  12.201 -0.3408  0.1261  0.6719
18676TIP3   OH277518   0.590   4.781  11.779  0.1514  0.4022  0.2258
18676TIP3    H177519   0.567   4.768  11.871 -0.5715 -0.6208 -0.0789
18676TIP3    H277520   0.519   4.834  11.743  0.3035  0.5864  0.1928
18677TIP3   OH277521   1.324   2.982  16.225 -0.4411  0.0028  0.6057
18677TIP3    H177522   1.314   2.981  16.320  1.3788 -0.5433  0.8200
18677TIP3    H277523   1.307   2.891  16.199 -2.9824  0.5385  0.1131
18678TIP3   OH277524   2.510   0.815   0.088  0.2311  0.4804  0.0894
18678TIP3    H177525   2.509   0.752   0.160 -2.2749  0.4628  0.1485
18678TIP3    H277526   2.499   0.761   0.010  1.6845  0.6045 -0.2256
18679TIP3   OH277527   4.732   2.847  17.092  0.5187 -0.1634 -0.0147
18679TIP3    H177528   4.765   2.803  17.013  0.0647 -2.2004  0.8641
18679TIP3    H277529   4.803   2.905  17.119  2.1826 -2.1276  0.0811
18680TIP3   OH277530   1.836   5.781   4.892 -0.1688 -0.1062 -0.5725
18680TIP3    H177531   1.809   5.815   4.977  2.5706  0.7183  0.0833
18680TIP3    H277532   1.905   5.718   4.913  0.0714 -0.3938 -2.1499
18681TIP3   OH277533   3.285   5.990  15.881 -0.4512  0.1571 -0.3403
18681TIP3    H177534   3.274   5.918  15.819  0.8961 -0.6840  0.3581
18681TIP3    H277535   3.232   6.061  15.844 -0.1137 -0.4861 -2.1833
18682TIP3   OH277536   2.449   4.673  14.363  0.5372 -0.2760 -0.4518
18682TIP3    H177537   2.463   4.670  14.269  0.3348 -3.5662 -0.5046
18682TIP3    H277538   2.414   4.586  14.385  2.2054 -0.2918  2.8771
18683TIP3   OH277539   4.927   2.177  12.266 -0.0054  0.2203  0.4382
18683TIP3    H177540   4.885   2.156  12.350 -0.0720 -1.2414  0.0689
18683TIP3    H277541   5.019   2.187  12.287  0.0951 -0.9051  0.5836
18684TIP3   OH277542   2.535   6.800  10.595  0.2369  0.0256  0.4344
18684TIP3    H177543   2.451   6.779  10.554  0.1241  0.0423  0.6575
18684TIP3    H277544   2.582   6.717  10.598  0.1327 -0.0289  0.5314
18685TIP3   OH277545   1.067   5.882   0.433 -0.1172  0.6295  0.1890
18685TIP3    H177546   1.128   5.810   0.413  0.2102  0.9211  0.1287
18685TIP3    H277547   1.044   5.868   0.525 -1.0852 -0.3109 -0.1744
18686TIP3   OH277548   0.446   5.259   6.484 -0.4769  0.7999  0.2732
18686TIP3    H177549   0.394   5.184   6.512 -0.4016  1.2842  1.7926
18686TIP3    H277550   0.460   5.245   6.390 -0.6163 -0.9847  0.4852
18687TIP3   OH277551   3.072   0.952  11.663  0.0017 -0.2011 -0.0096
18687TIP3    H177552   3.007   0.888  11.695 -0.3117  0.5784  0.9745
18687TIP3    H277553   3.139   0.953  11.731  0.7090 -0.4884 -0.6945
18688TIP3   OH277554   3.329   3.252  16.151 -0.2458  0.4409  0.9570
18688TIP3    H177555   3.394   3.319  16.173 -0.8419  1.5532 -0.5191
18688TIP3    H277556   3.310   3.267  16.058 -2.1686 -0.2399  1.2096
18689TIP3   OH277557   4.244   3.602   1.653  0.6507 -0.4417 -0.1534
18689TIP3    H177558   4.328   3.637   1.623  0.0151  0.7119 -0.6835
18689TIP3    H277559   4.265   3.554   1.734  1.5328  1.7454  1.0099
18690TIP3   OH277560   1.599   6.688   2.888 -0.3858 -0.1192 -0.1607
18690TIP3    H177561   1.512   6.723   2.870 -1.1067 -1.7925 -0.1033
18690TIP3    H277562   1.631   6.739   2.962 -1.9619 -0.4921  0.8134
18691TIP3   OH277563   5.266   4.264  10.936  0.3435 -0.3381 -0.4157
18691TIP3    H177564   5.230   4.215  10.863 -1.1641 -0.1716  0.1884
18691TIP3    H277565   5.268   4.202  11.009 -1.8297  0.5078  0.4265
18692TIP3   OH277566   6.601   3.505   3.242 -0.1128  0.3901  0.0678
18692TIP3    H177567   6.682   3.540   3.278  0.0208 -1.3945  1.6076
18692TIP3    H277568   6.597   3.415   3.272 -0.8392 -0.7670 -3.1032
18693TIP3   OH277569   0.907   1.635   2.744  0.5847  0.1477 -0.3015
18693TIP3    H177570   0.884   1.618   2.835  0.9745  0.8028 -0.0730
18693TIP3    H277571   0.845   1.703   2.716  0.1890 -0.3548 -0.6580
18694TIP3   OH277572   1.267   1.617  14.980  0.2464  0.3046 -0.4380
18694TIP3    H177573   1.212   1.685  15.018  1.4502  1.5772 -0.8964
18694TIP3    H277574   1.215   1.537  14.988 -0.4714  0.9120  1.8274
18695TIP3   OH277575   4.266   0.636   4.376 -0.6506 -0.3324  0.2963
18695TIP3    H177576   4.295   0.682   4.455 -2.6453 -0.2439  1.0401
18695TIP3    H277577   4.283   0.698   4.305 -0.1755  0.1802  0.8428
18696TIP3   OH277578   1.584   6.119   5.655 -0.3461  1.0205  0.4371
18696TIP3    H177579   1.546   6.168   5.728 -0.9197  1.0517  0.1235
18696TIP3    H277580   1.576   6.178   5.580 -0.3829  0.7262  0.2072
18697TIP3   OH277581   2.661   0.987  15.031 -0.4177 -0.0726 -0.2960
18697TIP3    H177582   2.595   0.919  15.033 -0.3450 -0.1849 -1.2446
18697TIP3    H277583   2.695   0.991  15.121 -0.8487 -0.8476 -0.0936
18698TIP3   OH277584   3.601   1.634   1.132 -0.1295  0.2037 -0.1940
18698TIP3    H177585   3.624   1.563   1.073 -0.9591  0.2656 -0.5968
18698TIP3    H277586   3.597   1.711   1.076 -1.7439  0.1222 -0.2181
18699TIP3   OH277587   3.359   4.800  12.993 -0.0429 -0.0531  0.2123
18699TIP3    H177588   3.281   4.804  13.048 -0.1058  2.5824  0.0738
18699TIP3    H277589   3.334   4.846  12.913  2.0589  2.4576  0.8447
18700TIP3   OH277590   5.796   3.788  10.398  0.1902 -0.4224 -0.0723
18700TIP3    H177591   5.742   3.709  10.404 -1.1526  0.2956 -1.7536
18700TIP3    H277592   5.839   3.795  10.483 -2.3305 -1.0940  1.3409
18701TIP3   OH277593   1.531   1.888   1.196  0.6070  0.0196 -0.7816
18701TIP3    H177594   1.574   1.830   1.133  0.3178 -0.1853 -0.7904
18701TIP3    H277595   1.445   1.904   1.159 -0.0986 -1.2106  0.2135
18702TIP3   OH277596   2.105   5.131   6.142 -0.0116  0.0018 -0.1731
18702TIP3    H177597   2.086   5.161   6.231  1.4195 -0.8845  0.4772
18702TIP3    H277598   2.130   5.211   6.094  1.5770  0.2069  0.9129
18703TIP3   OH277599   1.266   0.432   5.265 -0.0684 -0.0676  0.7624
18703TIP3    H177600   1.282   0.396   5.352  0.1719  0.8186  1.0860
18703TIP3    H277601   1.184   0.390   5.238  1.0135 -2.1297  0.4238
18704TIP3   OH277602   1.814   0.132  12.780  0.4083 -0.4791 -0.3286
18704TIP3    H177603   1.814   0.177  12.695  1.5438  0.5650  0.1840
18704TIP3    H277604   1.832   0.040  12.759  1.8693 -0.0360 -1.1653
18705TIP3   OH277605   6.360   6.059   1.106 -0.7284 -0.2819  0.4934
18705TIP3    H177606   6.268   6.035   1.099  0.0404 -3.1901 -1.1096
18705TIP3    H277607   6.370   6.135   1.049 -2.1349  0.1367  0.7776
18706TIP3   OH277608   1.897   0.882  14.695 -0.0823  0.0594  0.2228
18706TIP3    H177609   1.870   0.842  14.613 -0.3084 -0.6162  0.6168
18706TIP3    H277610   1.944   0.812  14.741  1.9912  1.0617 -0.2574
18707TIP3   OH277611   0.381   2.052   3.096 -0.1865 -0.0666 -0.9934
18707TIP3    H177612   0.434   1.973   3.107 -0.5128 -0.1977 -0.3740
18707TIP3    H277613   0.299   2.033   3.141  0.5696  1.4547  1.1762
18708TIP3   OH277614   1.795   6.443  11.359  0.5054 -0.5057  0.3915
18708TIP3    H177615   1.887   6.449  11.385  0.5571  0.5707  0.0237
18708TIP3    H277616   1.795   6.384  11.283  0.7793 -1.1273  0.8690
18709TIP3   OH277617   0.436   1.001   1.584  0.2054 -0.0137  0.4830
18709TIP3    H177618   0.492   1.072   1.616  0.0072  1.3851 -2.0250
18709TIP3    H277619   0.367   0.993   1.650  0.2855  2.0915  0.8910
18710TIP3   OH277620   6.515   2.673   1.815 -0.1243 -0.0530  0.3840
18710TIP3    H177621   6.455   2.598   1.814  0.8230 -0.8610  1.3192
18710TIP3    H277622   6.499   2.715   1.899 -0.7860  0.9267 -0.2215
18711TIP3   OH277623   1.809   5.994  12.722  0.0942  0.3213 -0.0830
18711TIP3    H177624   1.723   5.970  12.758  0.2920  0.2140  0.3231
18711TIP3    H277625   1.854   6.038  12.794  1.2740 -1.7141  0.4931
18712TIP3   OH277626   0.118   4.390  13.967 -0.1606 -0.2508  0.0248
18712TIP3    H177627   0.149   4.375  14.056  0.5844 -2.9353 -0.6012
18712TIP3    H277628   0.026   4.362  13.969 -0.0057 -0.7805 -0.1490
18713TIP3   OH277629   0.455   4.454   1.815  0.3989 -0.0626 -0.7344
18713TIP3    H177630   0.415   4.409   1.889 -1.1540  0.2618 -1.3383
18713TIP3    H277631   0.426   4.404   1.738  1.4234  0.0052 -1.1829
18714TIP3   OH277632   5.138   5.391   2.274  0.2871  0.7321 -0.3683
18714TIP3    H177633   5.134   5.310   2.223 -0.3305  0.1585  0.5570
18714TIP3    H277634   5.231   5.415   2.276  0.5046 -0.0957 -0.4333
18715TIP3   OH277635   0.597   3.830   3.004 -0.2156 -0.1567  0.0024
18715TIP3    H177636   0.677   3.780   3.024 -0.9888 -0.8074  1.6796
18715TIP3    H277637   0.629   3.915   2.972  1.1910  0.0383  1.7546
18716TIP3   OH277638   1.879   2.697   4.842 -0.3424  1.0549 -0.4905
18716TIP3    H177639   1.913   2.631   4.902  1.9725  1.4610 -1.2187
18716TIP3    H277640   1.948   2.764   4.839 -1.9538  2.7906 -0.9073
18717TIP3   OH277641   1.733   2.029   5.472  0.2927 -0.0484  0.6081
18717TIP3    H177642   1.718   2.105   5.529  2.4318  0.6273  0.3606
18717TIP3    H277643   1.646   2.007   5.438 -0.6117  1.2894  1.9246
18718TIP3   OH277644   1.590   2.021   6.020  0.1954 -0.2275  0.3462
18718TIP3    H177645   1.669   1.967   6.015 -0.5087 -1.5227  2.1294
18718TIP3    H277646   1.620   2.103   6.059  1.0339  0.2205 -1.1552
18719TIP3   OH277647   3.714   4.717  14.436 -0.3362  0.2885 -0.6864
18719TIP3    H177648   3.751   4.754  14.356 -1.3255  0.6397 -0.9998
18719TIP3    H277649   3.679   4.792  14.484 -1.5422 -0.1083 -0.8998
18720TIP3   OH277650   3.616   4.637   4.116  0.1218 -0.1305 -0.0259
18720TIP3    H177651   3.711   4.621   4.116  0.1196 -0.2087  0.7295
18720TIP3    H277652   3.591   4.627   4.208 -0.4499  0.9119 -0.0579
18721TIP3   OH277653   0.772   1.594  12.712 -0.1449  0.5274 -0.0144
18721TIP3    H177654   0.707   1.566  12.776 -0.8438  1.9587 -0.0566
18721TIP3    H277655   0.840   1.636  12.764  0.1646  0.1050 -0.0731
18722TIP3   OH277656   0.853   1.083   1.786  0.5228 -0.3111 -0.5127
18722TIP3    H177657   0.781   1.034   1.826  0.3522 -2.5111 -3.1667
18722TIP3    H277658   0.818   1.172   1.775 -1.2982 -0.9620 -0.4451
18723TIP3   OH277659   5.146   6.534  11.836 -0.7526  0.6462 -0.3199
18723TIP3    H177660   5.150   6.568  11.925 -0.3342 -1.5268  0.5676
18723TIP3    H277661   5.060   6.560  11.804 -1.6264  0.0224  1.3835
18724TIP3   OH277662   1.897   3.278  10.754 -0.1477 -0.2143  0.5377
18724TIP3    H177663   1.867   3.333  10.682  0.6644  0.0291  0.3686
18724TIP3    H277664   1.885   3.332  10.832 -0.9810 -0.4601  0.5884
18725TIP3   OH277665   5.175   3.327   4.544 -0.3248 -0.0961 -0.4721
18725TIP3    H177666   5.098   3.383   4.547 -0.4492 -0.2822 -0.1806
18725TIP3    H277667   5.189   3.300   4.634  0.6974  0.7611 -0.3498
18726TIP3   OH277668   2.441   4.314   5.744  0.0818  0.2727 -0.6858
18726TIP3    H177669   2.403   4.228   5.729  0.3157 -0.1482  0.9008
18726TIP3    H277670   2.499   4.329   5.669 -0.0943 -0.8694 -1.0609
18727TIP3   OH277671   3.325   5.656  12.410  0.5450  0.0060  0.2472
18727TIP3    H177672   3.280   5.670  12.493  0.5174 -0.2271  0.2709
18727TIP3    H277673   3.375   5.736  12.396 -0.2931  0.4941 -0.0384
18728TIP3   OH277674   5.747   1.215  12.849  0.0436 -0.6413 -1.0473
18728TIP3    H177675   5.802   1.206  12.772 -0.0571  0.0753 -1.2073
18728TIP3    H277676   5.808   1.230  12.921  0.0880 -0.2836 -1.1558
18729TIP3   OH277677   5.275   4.664   0.216 -0.2506 -0.2611 -0.1721
18729TIP3    H177678   5.252   4.731   0.152 -0.0171 -1.2826 -1.3618
18729TIP3    H277679   5.326   4.600   0.167  0.3757 -0.8257  1.1572
18730TIP3   OH277680   0.743   0.217   1.795 -0.1540  0.0814 -0.8510
18730TIP3    H177681   0.733   0.126   1.824  0.5746  0.4431  0.6035
18730TIP3    H277682   0.817   0.251   1.845 -0.4214  1.4835 -1.3508
18731TIP3   OH277683   0.362   5.915  12.099 -0.3268  0.4190 -0.3314
18731TIP3    H177684   0.379   6.000  12.058  2.2150 -0.0207 -0.3460
18731TIP3    H277685   0.319   5.936  12.182  1.8994  1.9134  0.5377
18732TIP3   OH277686   3.390   2.310  12.367  0.0496  0.3943  0.3000
18732TIP3    H177687   3.459   2.326  12.431 -1.4766  1.3405  1.7916
18732TIP3    H277688   3.310   2.340  12.410 -1.0315  1.2284 -2.1261
18733TIP3   OH277689   1.493   0.591  14.972  0.0963 -0.8757  0.2796
18733TIP3    H177690   1.488   0.545  14.888  0.4696 -1.7900  0.7367
18733TIP3    H277691   1.563   0.546  15.019  0.1329 -0.1396  0.9365
18734TIP3   OH277692   1.674   3.702   2.073  0.5116 -0.0918  0.1245
18734TIP3    H177693   1.648   3.769   2.136  0.8876 -1.8653  2.2632
18734TIP3    H277694   1.760   3.672   2.102  0.1796 -1.7968 -0.5006
18735TIP3   OH277695   5.939   5.015   2.810 -0.0107 -0.7602  0.5034
18735TIP3    H177696   5.984   5.087   2.856  0.6871 -1.1503  0.4451
18735TIP3    H277697   5.987   5.006   2.728 -0.7242 -0.6375  0.0717
18736TIP3   OH277698   1.717   1.550   2.814  0.3111 -0.9597  0.3480
18736TIP3    H177699   1.631   1.579   2.845  0.4614 -1.2519  1.0580
18736TIP3    H277700   1.716   1.568   2.720 -0.5387 -0.9926  0.3446
18737TIP3   OH277701   6.349   4.865  16.521  0.5886 -0.0794  0.4990
18737TIP3    H177702   6.284   4.809  16.563  0.5817  0.0903  0.7143
18737TIP3    H277703   6.315   4.954  16.533  0.4694 -0.0434 -0.0591
18738TIP3   OH277704   6.812   6.756   5.725 -0.3558  0.2767  0.3362
18738TIP3    H177705   6.886   6.776   5.668  0.8144  0.6538  1.9080
18738TIP3    H277706   6.810   6.660   5.728 -1.2786  0.2065 -1.3353
18739TIP3   OH277707   6.026   2.623  10.900 -0.1710  0.0191  0.3699
18739TIP3    H177708   5.942   2.610  10.944 -1.0949 -1.4733 -1.6642
18739TIP3    H277709   6.087   2.566  10.948 -0.4776  0.5085  1.3682
18740TIP3   OH277710   4.895   6.487   1.239 -0.0339  0.5222 -0.6338
18740TIP3    H177711   4.913   6.568   1.287  1.2369  0.5388 -1.0850
18740TIP3    H277712   4.835   6.514   1.169  0.8872  1.2382 -1.1792
18741TIP3   OH277713   0.457   1.957  14.340 -0.1865 -0.4015  0.1878
18741TIP3    H177714   0.534   1.961  14.397 -0.4306  2.1296  0.4425
18741TIP3    H277715   0.383   1.952  14.400 -0.3854  1.1247  0.0987
18742TIP3   OH277716   0.700   5.906  11.612 -0.3429  0.5661 -0.3963
18742TIP3    H177717   0.669   5.869  11.530  1.6955 -1.6487 -0.2841
18742TIP3    H277718   0.789   5.937  11.593 -0.2192  0.9652  0.7217
18743TIP3   OH277719   2.976   1.978  15.801 -0.0014  0.0583 -0.1865
18743TIP3    H177720   3.024   1.951  15.880  0.8656  1.1885 -0.2956
18743TIP3    H277721   3.008   1.919  15.732  1.3032  0.8204 -0.2649
18744TIP3   OH277722   6.515   3.305   1.585 -0.1178 -0.8687  0.4449
18744TIP3    H177723   6.462   3.226   1.591 -0.4253 -0.7803 -0.8700
18744TIP3    H277724   6.586   3.282   1.525  0.0046 -0.2619  0.3533
18745TIP3   OH277725   5.426   0.553   3.460  0.4392 -0.2788  0.2102
18745TIP3    H177726   5.369   0.508   3.523 -1.4066  1.0362 -0.4385
18745TIP3    H277727   5.383   0.539   3.375  0.1327  2.1526 -0.0914
18746TIP3   OH277728   5.792   0.014   5.632 -0.7491 -0.3517 -0.0500
18746TIP3    H177729   5.752   0.099   5.646  1.2735  0.5059  0.9797
18746TIP3    H277730   5.765  -0.038   5.707  0.3042  0.3456  0.8447
18747TIP3   OH277731   2.436   1.455   0.103  0.6443  0.3943  0.2101
18747TIP3    H177732   2.468   1.443   0.013  0.7911 -0.4676  0.3645
18747TIP3    H277733   2.516   1.457   0.156  0.5067 -0.3173  0.4456
18748TIP3   OH277734   6.687   3.758  11.721 -0.4505 -0.3989 -0.2340
18748TIP3    H177735   6.715   3.677  11.678 -0.3017 -0.3716 -0.1907
18748TIP3    H277736   6.710   3.746  11.813  1.4765  0.4935 -0.5404
18749TIP3   OH277737   0.200   1.222  12.160  0.7497  0.1378 -0.4198
18749TIP3    H177738   0.180   1.305  12.204  0.2541  1.0714 -2.2924
18749TIP3    H277739   0.122   1.169  12.173  0.6798  0.3259 -0.0409
18750TIP3   OH277740   6.074   6.740  13.159 -0.2502  0.2512 -0.0085
18750TIP3    H177741   6.108   6.812  13.213 -1.1012 -0.8676  2.1535
18750TIP3    H277742   6.138   6.730  13.089  0.4259  2.4198  0.2254
18751TIP3   OH277743   3.623   1.419  14.359  0.0321  0.1540 -0.0173
18751TIP3    H177744   3.616   1.465  14.443 -0.5645  0.0842 -0.0215
18751TIP3    H277745   3.542   1.368  14.354  0.6358 -0.8065 -0.0680
18752TIP3   OH277746   6.545   0.986  15.524  0.4793 -0.2992 -0.4230
18752TIP3    H177747   6.608   0.996  15.452  1.0970  0.4902  0.2165
18752TIP3    H277748   6.549   1.069  15.571  0.1280 -0.8348  0.5633
18753TIP3   OH277749   4.375   6.827  11.176  0.3239  0.1891 -0.8579
18753TIP3    H177750   4.294   6.877  11.169  0.3036  0.1145 -1.1783
18753TIP3    H277751   4.370   6.763  11.105 -1.0214 -2.2389  1.2549
18754TIP3   OH277752   3.304   2.739   3.405 -0.0811  0.5871 -0.3342
18754TIP3    H177753   3.226   2.760   3.456 -0.2418 -0.1598 -0.2635
18754TIP3    H277754   3.279   2.662   3.353  0.4845  0.5756 -0.5957
18755TIP3   OH277755   2.046   5.075   2.293 -0.3021  0.4479 -0.1764
18755TIP3    H177756   2.059   5.126   2.373  2.2414  1.0967 -0.9305
18755TIP3    H277757   1.976   5.122   2.246 -0.3645  1.2574  0.6980
18756TIP3   OH277758   4.630   4.866  13.268  0.0878  0.5005  0.6059
18756TIP3    H177759   4.688   4.852  13.192 -0.8072 -2.0346  0.2814
18756TIP3    H277760   4.542   4.872  13.230 -0.2063  0.9401  1.3402
18757TIP3   OH277761   6.682   2.567   5.701  0.1796  0.4115 -0.2534
18757TIP3    H177762   6.643   2.618   5.630  0.0094  1.1699  0.3713
18757TIP3    H277763   6.648   2.608   5.781 -1.3027 -1.7092  0.2858
18758TIP3   OH277764   4.538   2.247  16.809 -0.2493  0.2222 -0.5375
18758TIP3    H177765   4.622   2.268  16.849 -0.7296  0.4595  0.3725
18758TIP3    H277766   4.472   2.278  16.872 -1.0228  0.2500 -1.3347
18759TIP3   OH277767   0.829   1.127  12.862 -0.5527 -0.0353 -0.1535
18759TIP3    H177768   0.881   1.179  12.801  2.1026 -0.4950  1.5651
18759TIP3    H277769   0.774   1.191  12.907  2.6141  1.4690  1.8849
18760TIP3   OH277770   6.628   0.460   5.238  0.5274 -0.5079 -0.3730
18760TIP3    H177771   6.659   0.440   5.327 -2.3790 -0.5329  0.7608
18760TIP3    H277772   6.621   0.556   5.236 -1.3291 -0.5962  0.2177
18761TIP3   OH277773   3.935   0.040  11.645 -0.5124 -0.2217  0.8189
18761TIP3    H177774   4.006   0.012  11.587 -2.5721 -0.2603 -1.8760
18761TIP3    H277775   3.872  -0.032  11.642 -2.5024  1.4625 -0.2029
18762TIP3   OH277776   5.634   0.477  13.431 -0.0456  0.5066 -0.2879
18762TIP3    H177777   5.584   0.409  13.385 -1.1155  1.2775 -0.3003
18762TIP3    H277778   5.725   0.460  13.407  0.1085 -2.5941  1.8231
18763TIP3   OH277779   5.970   2.049   1.636 -0.1532  0.0333  0.6506
18763TIP3    H177780   6.031   2.030   1.566 -0.2209  1.5538  0.1389
18763TIP3    H277781   5.980   1.977   1.698 -0.9777 -2.0342 -1.4764
18764TIP3   OH277782   4.919   2.473  14.607  0.2584  0.0220  0.6966
18764TIP3    H177783   5.001   2.455  14.561 -0.7813 -2.3526 -0.4144
18764TIP3    H277784   4.945   2.523  14.684  2.4764  1.1825 -0.6825
18765TIP3   OH277785   3.238   1.019  15.481 -0.2969 -0.2737 -0.0208
18765TIP3    H177786   3.250   1.067  15.563  0.7582  1.7517 -1.2806
18765TIP3    H277787   3.284   0.937  15.494 -0.9073 -0.3872  1.6961
18766TIP3   OH277788   1.150   2.302   1.778  0.0535  0.2378  0.3863
18766TIP3    H177789   1.085   2.328   1.843 -0.5055  0.0766 -0.0966
18766TIP3    H277790   1.099   2.278   1.701  0.7251  1.3446 -0.4489
18767TIP3   OH277791   1.901   4.169   0.528  0.3561 -0.0736 -1.0506
18767TIP3    H177792   1.862   4.098   0.476 -1.4818 -0.4715  0.7081
18767TIP3    H277793   1.994   4.147   0.533  0.0463 -1.6753 -1.6397
18768TIP3   OH277794   0.074   4.704  15.916 -0.0318  0.3539 -0.4595
18768TIP3    H177795   0.153   4.697  15.863  0.3766  2.4806 -0.2350
18768TIP3    H277796   0.068   4.620  15.961  1.7111 -0.1164 -1.0100
18769TIP3   OH277797   3.962   1.318  10.528 -0.7597 -0.7957 -0.3507
18769TIP3    H177798   3.917   1.251  10.476 -1.0533  0.5730 -1.9370
18769TIP3    H277799   3.896   1.350  10.588 -0.6478 -1.8137  0.3509
18770TIP3   OH277800   0.893   0.394   4.111 -0.5153  0.1218 -0.1297
18770TIP3    H177801   0.807   0.433   4.097 -0.3717  0.2485 -0.7014
18770TIP3    H277802   0.943   0.461   4.158 -1.3709 -0.7523  2.1843
18771TIP3   OH277803   5.525   2.351   0.187 -0.2339 -0.2874  0.1170
18771TIP3    H177804   5.589   2.279   0.193 -0.0920 -0.0628  1.8728
18771TIP3    H277805   5.530   2.394   0.272 -0.6052  1.5876 -0.7757
18772TIP3   OH277806   6.392   5.506  11.430 -0.1080 -0.1012 -0.9014
18772TIP3    H177807   6.479   5.489  11.468 -0.7066  0.6693  0.9024
18772TIP3    H277808   6.407   5.578  11.369  0.5779 -0.1802 -0.8413
18773TIP3   OH277809   6.307   2.165   6.585 -0.2329 -0.5710  0.1232
18773TIP3    H177810   6.332   2.238   6.529 -1.0139  0.3908  0.9850
18773TIP3    H277811   6.262   2.104   6.527 -0.9713  0.3774 -0.3295
18774TIP3   OH277812   4.872   4.633   0.869  0.1812 -0.3616 -0.0229
18774TIP3    H177813   4.777   4.623   0.873  0.2905 -1.0364  3.0097
18774TIP3    H277814   4.905   4.543   0.859  0.5089 -0.6296  2.6904
18775TIP3   OH277815   1.646   2.171   1.975  0.3187  0.3442 -0.1154
18775TIP3    H177816   1.567   2.226   1.976  0.7405  0.9621 -0.0700
18775TIP3    H277817   1.649   2.136   1.886  0.4389  0.9874 -0.3727
18776TIP3   OH277818   0.471   6.252   4.284 -0.0974  0.0745 -0.4897
18776TIP3    H177819   0.476   6.185   4.352  3.5333 -0.0486 -0.6839
18776TIP3    H277820   0.500   6.208   4.204 -2.4202  0.7139 -1.7724
18777TIP3   OH277821   5.699   5.662  14.159  0.0896  0.5091  0.6989
18777TIP3    H177822   5.726   5.599  14.226 -0.1275 -0.5708 -0.2047
18777TIP3    H277823   5.703   5.613  14.077  0.2469  1.7819 -0.0735
18778TIP3   OH277824   1.316   3.017   2.508 -0.5717 -0.1552  0.2755
18778TIP3    H177825   1.311   2.927   2.539 -4.2198  0.0510  0.7861
18778TIP3    H277826   1.293   3.012   2.415 -1.2870  0.2468  0.4194
18779TIP3   OH277827   0.860   3.747  14.302 -0.0931 -0.0654  0.5311
18779TIP3    H177828   0.798   3.746  14.229  1.8386  1.1861 -1.1962
18779TIP3    H277829   0.860   3.837  14.333 -0.5803 -0.4933  1.8923
18780TIP3   OH277830   2.606   0.475  15.390  0.2114 -0.1842  0.2512
18780TIP3    H177831   2.584   0.567  15.403  2.0969  0.6762 -2.0499
18780TIP3    H277832   2.551   0.447  15.317  0.2416 -0.6445  0.3997
18781TIP3   OH277833   0.937   1.141  11.471 -0.1737 -0.2858  0.0690
18781TIP3    H177834   0.967   1.232  11.461  0.3592 -0.4086  0.4707
18781TIP3    H277835   0.906   1.116  11.384 -1.7549  0.7695  0.2906
18782TIP3   OH277836   5.406   5.208   4.370 -0.5026 -0.5646 -0.4346
18782TIP3    H177837   5.447   5.295   4.366  0.0813 -0.8656 -1.2672
18782TIP3    H277838   5.446   5.167   4.447  0.0430 -0.4944 -0.6739
18783TIP3   OH277839   1.127   5.301   4.300  0.9119 -0.1644  0.0778
18783TIP3    H177840   1.080   5.372   4.343  0.8846 -0.7562  1.0511
18783TIP3    H277841   1.058   5.249   4.257  0.9467  0.4654 -0.7653
18784TIP3   OH277842   0.968   3.401   5.570 -0.4057 -0.2310  0.3351
18784TIP3    H177843   0.902   3.424   5.505  0.3462 -2.1972 -1.2503
18784TIP3    H277844   1.032   3.472   5.566 -1.3831  0.6629  0.4012
18785TIP3   OH277845   3.334   1.278   0.432  0.0726  0.1889 -0.9520
18785TIP3    H177846   3.356   1.217   0.502  2.6037  0.7434 -1.1922
18785TIP3    H277847   3.276   1.343   0.473 -0.8379 -1.0771 -0.1544
18786TIP3   OH277848   6.506   6.236  16.277 -0.0124 -0.0682 -0.5170
18786TIP3    H177849   6.508   6.311  16.218 -1.1483 -0.1243 -0.6405
18786TIP3    H277850   6.570   6.258  16.345  1.4807 -0.1108 -1.8677
18787TIP3   OH277851   1.084   4.067  13.578 -0.1149  0.3336 -0.2033
18787TIP3    H177852   1.100   4.144  13.524 -0.1941  0.1030 -0.5596
18787TIP3    H277853   1.129   4.086  13.660 -1.0221  1.2176  0.1174
18788TIP3   OH277854   6.492   4.034  15.620 -0.1822  0.1499 -0.3680
18788TIP3    H177855   6.453   4.122  15.629  1.8256  1.0089  0.7063
18788TIP3    H277856   6.454   3.984  15.693  1.0253  1.1397  1.0161
18789TIP3   OH277857   6.358   1.348   4.433  0.0305 -0.1458 -0.2404
18789TIP3    H177858   6.290   1.282   4.444  0.0663  0.1487  2.1754
18789TIP3    H277859   6.311   1.427   4.408 -0.2555 -0.4480 -0.6906
18790TIP3   OH277860   2.114   1.251  14.217 -0.4940 -0.4673  0.2617
18790TIP3    H177861   2.096   1.160  14.194  0.1541 -1.1500  2.1859
18790TIP3    H277862   2.196   1.272  14.172 -0.6770 -0.8081 -0.2383
18791TIP3   OH277863   4.446   6.076   4.905  0.6661  0.1276 -0.8113
18791TIP3    H177864   4.400   6.056   4.823  1.6632 -0.3207 -1.2798
18791TIP3    H277865   4.388   6.043   4.974  0.0606  0.0298 -1.3590
18792TIP3   OH277866   5.499   1.659   5.260 -0.1828  0.2120  0.1610
18792TIP3    H177867   5.503   1.566   5.283  0.4182  0.0320 -0.6257
18792TIP3    H277868   5.437   1.697   5.322 -1.0253 -0.8695  0.0051
18793TIP3   OH277869   3.488   5.559   4.166 -0.2669  0.4596 -0.4826
18793TIP3    H177870   3.564   5.569   4.109 -0.0805  1.6427 -0.0704
18793TIP3    H277871   3.439   5.486   4.130 -0.0498  1.0470 -2.0370
18794TIP3   OH277872   0.157   4.573  13.210  0.1760  0.1110  0.8972
18794TIP3    H177873   0.121   4.495  13.166 -0.9587 -0.0073  1.9616
18794TIP3    H277874   0.165   4.638  13.141 -2.3747  0.2025  0.5896
18795TIP3   OH277875   4.348   3.143  16.154  0.2120  0.4618  0.0007
18795TIP3    H177876   4.377   3.234  16.163 -0.7157  0.6637  1.4721
18795TIP3    H277877   4.252   3.149  16.158  0.1599 -0.6061  0.6492
18796TIP3   OH277878   3.478   5.125   1.468  0.3473  0.0744  0.1246
18796TIP3    H177879   3.516   5.106   1.554  1.4763 -0.2742 -0.4304
18796TIP3    H277880   3.392   5.161   1.487  0.1919 -0.8982  1.3730
18797TIP3   OH277881   3.408   6.093  11.729 -0.1386 -0.8078 -0.0643
18797TIP3    H177882   3.379   6.127  11.814 -1.0786  1.3155 -1.1593
18797TIP3    H277883   3.503   6.100  11.731 -0.1783 -0.3467  0.6502
18798TIP3   OH277884   1.474   5.630  12.224  1.1075  0.2765 -0.0599
18798TIP3    H177885   1.493   5.711  12.272  0.4262 -0.6160  1.8099
18798TIP3    H277886   1.486   5.653  12.132  1.2569  2.4036  0.4508
18799TIP3   OH277887   5.232   4.856  12.839  0.1434  0.3288 -0.2944
18799TIP3    H177888   5.317   4.824  12.868  0.3587  0.5195 -0.6988
18799TIP3    H277889   5.231   4.837  12.745  0.7602  2.4904 -0.8032
18800TIP3   OH277890   6.022   3.634  14.051 -0.2386  0.7449  0.1307
18800TIP3    H177891   6.077   3.601  14.121  0.8717  0.1894 -0.9586
18800TIP3    H277892   6.083   3.672  13.988 -0.6464 -2.5226 -2.5706
18801TIP3   OH277893   4.092   2.048   3.528 -0.1201  0.3920 -0.7851
18801TIP3    H177894   4.016   2.013   3.482 -0.8380  0.5945  0.2207
18801TIP3    H277895   4.128   1.974   3.577 -0.8158  0.7141  0.2440
18802TIP3   OH277896   2.150   2.179   4.502 -0.2382 -0.7187  0.2706
18802TIP3    H177897   2.141   2.155   4.409  0.4749  0.4659 -0.1252
18802TIP3    H277898   2.129   2.272   4.505  0.6395 -0.5368  1.1535
18803TIP3   OH277899   2.391   3.887   5.523  0.5390  0.3671 -0.7833
18803TIP3    H177900   2.391   3.922   5.612  1.4651  0.5377 -0.8397
18803TIP3    H277901   2.416   3.961   5.468  1.1166 -0.0195 -1.0550
18804TIP3   OH277902   0.963   3.665   5.693 -0.9387 -0.1458  0.1009
18804TIP3    H177903   0.944   3.754   5.663 -1.2420 -0.8870 -2.0647
18804TIP3    H277904   0.883   3.616   5.676 -0.5497 -1.0018  0.6370
18805TIP3   OH277905   5.665   1.319  13.616  0.1038 -0.1689  0.4039
18805TIP3    H177906   5.610   1.372  13.559 -0.1005  0.1662  0.9105
18805TIP3    H277907   5.732   1.379  13.647  0.4509 -0.4494  0.2070
18806TIP3   OH277908   3.956   6.806  11.343  0.0275 -0.0983 -0.1280
18806TIP3    H177909   4.011   6.829  11.267  0.7903 -0.4524  0.3019
18806TIP3    H277910   3.897   6.880  11.353  0.6882  0.4738 -0.3692
18807TIP3   OH277911   1.369   3.519   2.375 -0.6360 -0.2894  0.1791
18807TIP3    H177912   1.420   3.448   2.415 -0.3197  0.0276  0.3362
18807TIP3    H277913   1.417   3.542   2.296 -0.5780 -0.0471  0.2842
18808TIP3   OH277914   5.907   2.670  11.717 -0.4288 -0.6335 -0.0477
18808TIP3    H177915   5.841   2.617  11.762 -0.3367  0.9049  2.0035
18808TIP3    H277916   5.942   2.728  11.784  0.3573  1.1857 -1.9231
18809TIP3   OH277917   3.972   1.164  16.384  0.1105  0.1426 -0.8076
18809TIP3    H177918   3.923   1.127  16.311 -1.1291 -0.4041  0.2539
18809TIP3    H277919   4.040   1.100  16.403 -0.7887 -0.6586 -0.2433
18810TIP3   OH277920   3.402   5.788   2.782  0.1087  0.1747  0.2690
18810TIP3    H177921   3.401   5.698   2.749  0.1132  0.3322 -0.1672
18810TIP3    H277922   3.339   5.835   2.727  0.3309  0.5050  0.2912
18811TIP3   OH277923   1.309   0.668   4.451  0.0771  0.4694 -0.3676
18811TIP3    H177924   1.278   0.577   4.452 -1.8418  1.0606 -0.7216
18811TIP3    H277925   1.382   0.668   4.389 -0.8532 -0.5665 -1.5123
18812TIP3   OH277926   0.288   0.966   0.715 -0.8258  0.4770 -0.4064
18812TIP3    H177927   0.253   1.054   0.730  1.7334  1.1816  2.3414
18812TIP3    H277928   0.238   0.909   0.773  0.0891  0.8677  0.8087
18813TIP3   OH277929   4.518   4.009   1.821  0.1251 -0.0940  0.1007
18813TIP3    H177930   4.589   4.009   1.758  0.4573 -0.0547  0.4727
18813TIP3    H277931   4.501   3.916   1.839  1.2626 -0.0994  1.3182
18814TIP3   OH277932   2.284   6.590   5.607  0.1487 -0.7697 -0.0429
18814TIP3    H177933   2.361   6.577   5.551  0.5097 -0.1953  0.3048
18814TIP3    H277934   2.313   6.561   5.694  0.8090  1.6779  0.6423
18815TIP3   OH277935   0.064   6.676  12.257  0.2740 -0.4608  0.2879
18815TIP3    H177936   0.150   6.637  12.242  0.0313 -0.9691  0.1984
18815TIP3    H277937   0.029   6.692  12.170  0.3601 -0.0580  0.3236
18816TIP3   OH277938   1.283   1.267   5.388 -0.2148 -0.4752 -0.1643
18816TIP3    H177939   1.270   1.353   5.349 -0.3837 -0.6143 -0.4214
18816TIP3    H277940   1.247   1.206   5.324 -0.1010 -0.7372  0.0177
18817TIP3   OH277941   0.244   6.652   6.213 -0.4649 -0.5619 -0.4473
18817TIP3    H177942   0.248   6.644   6.308  2.0118 -0.3468 -0.4832
18817TIP3    H277943   0.158   6.616   6.190 -1.2698 -0.3044  1.8652
18818TIP3   OH277944   6.185   4.782  12.791  0.0242 -0.5635 -0.0927
18818TIP3    H177945   6.243   4.718  12.749 -0.3164 -1.5144  0.8311
18818TIP3    H277946   6.215   4.785  12.882 -0.0905  0.4610 -0.0788
18819TIP3   OH277947   0.752   5.856   2.364 -0.1610 -0.1032 -0.3149
18819TIP3    H177948   0.735   5.944   2.331  1.2578  0.4688  0.4015
18819TIP3    H277949   0.747   5.864   2.459 -1.0331 -1.0423 -0.2577
18820TIP3   OH277950   1.207   6.821  13.920 -0.0153  0.4821  0.8348
18820TIP3    H177951   1.144   6.777  13.864  0.2866  1.1685 -0.0642
18820TIP3    H277952   1.183   6.914  13.916  0.1442  0.5670  1.6683
18821TIP3   OH277953   2.710   4.045   0.769  0.1292 -0.0211 -0.0688
18821TIP3    H177954   2.722   3.997   0.687 -1.9797  1.1195 -1.1243
18821TIP3    H277955   2.730   4.136   0.746  0.7424  0.1461  1.0389
18822TIP3   OH277956   4.234   2.875   0.416  0.1813  0.0647  0.6270
18822TIP3    H177957   4.165   2.928   0.456  0.4379 -1.0167  2.6445
18822TIP3    H277958   4.309   2.887   0.473  1.0790 -0.2910 -0.4575
18823TIP3   OH277959   0.051   3.529  13.790 -0.1632 -0.0070 -0.4660
18823TIP3    H177960   0.015   3.563  13.872  1.6443 -0.1126  0.4186
18823TIP3    H277961   0.068   3.607  13.737 -2.0346  0.0257 -1.1111
18824TIP3   OH277962   0.646   0.982  16.200  0.5585  0.2425  0.3579
18824TIP3    H177963   0.625   1.036  16.276 -2.0009 -0.7594  0.4652
18824TIP3    H277964   0.639   0.892  16.231  0.7625 -0.1820 -0.7688
18825TIP3   OH277965   1.784   5.313   4.288 -0.3075 -0.3041 -0.3736
18825TIP3    H177966   1.787   5.317   4.192  1.1855  2.0185 -0.3001
18825TIP3    H277967   1.704   5.360   4.311  0.3629  0.9223 -0.4656
18826TIP3   OH277968   3.401   4.085   2.137  0.5014  0.2338  0.0766
18826TIP3    H177969   3.362   4.127   2.213 -1.3496  2.4162 -1.9065
18826TIP3    H277970   3.467   4.148   2.106  0.7375 -0.2841 -0.5058
18827TIP3   OH277971   2.606   1.397   3.638 -0.3147 -0.8547  0.1618
18827TIP3    H177972   2.608   1.443   3.722  0.1255 -0.3879 -0.0966
18827TIP3    H277973   2.521   1.352   3.637 -0.9576  0.3107  0.2318
18828TIP3   OH277974   5.063   3.960   3.231 -0.1393 -0.2102 -0.2034
18828TIP3    H177975   5.147   4.003   3.214  0.0919 -0.3288  0.5785
18828TIP3    H277976   5.003   3.997   3.167  0.8603 -1.2310 -1.8070
18829TIP3   OH277977   1.980   6.518   5.769  0.1027 -0.2128  0.2740
18829TIP3    H177978   2.045   6.587   5.786  0.9016 -0.5915 -1.1132
18829TIP3    H277979   1.897   6.558   5.794  0.3932  1.6816 -1.4356
18830TIP3   OH277980   4.779   3.837   4.431 -0.1559 -0.0138 -0.0704
18830TIP3    H177981   4.717   3.803   4.495  1.1122 -1.9887  0.2263
18830TIP3    H277982   4.793   3.764   4.370  0.6124  0.9445 -1.0902
18831TIP3   OH277983   0.645   0.827   3.557  0.1330  0.0007 -0.4254
18831TIP3    H177984   0.728   0.824   3.510  1.1606 -0.6219  1.3255
18831TIP3    H277985   0.603   0.743   3.538  0.6968 -0.3869  0.0019
18832TIP3   OH277986   2.739   0.644   3.768  0.1984  0.1797  0.0107
18832TIP3    H177987   2.735   0.685   3.682  0.1188  0.9604  0.3789
18832TIP3    H277988   2.817   0.681   3.809  2.3048 -2.7413 -0.9856
18833TIP3   OH277989   0.878   0.177   4.870 -0.0319 -0.1880  0.4679
18833TIP3    H177990   0.965   0.170   4.910 -0.1282 -0.6786  0.6034
18833TIP3    H277991   0.827   0.107   4.911  0.0144 -1.0605 -0.8779
18834TIP3   OH277992   4.137   0.001  13.462  0.6880  0.2109 -0.1062
18834TIP3    H177993   4.166  -0.006  13.371  0.3756 -2.5696 -0.0917
18834TIP3    H277994   4.213  -0.025  13.513  0.1338 -0.7078  0.2689
18835TIP3   OH277995   1.422   1.084  14.977  0.1786 -0.2489 -0.0037
18835TIP3    H177996   1.501   1.113  15.022  0.9830 -1.7673 -0.3794
18835TIP3    H277997   1.450   1.009  14.925 -0.6012  1.5193 -3.3115
18836TIP3   OH277998   0.236   4.437   5.477  0.3480  0.2644 -0.5015
18836TIP3    H177999   0.239   4.503   5.407  1.9392  1.9570  1.0662
18836TIP3    H278000   0.327   4.422   5.500 -0.0940 -0.9880  0.5913
18837TIP3   OH278001   2.782   5.824  14.975  0.3390 -0.8953  0.0539
18837TIP3    H178002   2.820   5.736  14.980 -2.3222 -2.1541  4.1409
18837TIP3    H278003   2.825   5.872  15.046 -2.2889 -1.0156  1.8899
18838TIP3   OH278004   6.507   4.950  16.845  0.2677 -0.3080  0.4872
18838TIP3    H178005   6.411   4.945  16.842  0.2898 -0.8604  0.5560
18838TIP3    H278006   6.531   4.992  16.762 -0.0882  0.9047  0.9796
18839TIP3   OH278007   3.326   5.365   3.667 -0.5181  0.0102 -0.1659
18839TIP3    H178008   3.396   5.411   3.713 -0.1401 -0.5883 -0.1294
18839TIP3    H278009   3.280   5.433   3.619 -0.7518  0.6107  0.8830
18840TIP3   OH278010   2.000   6.301  16.097 -0.7025  0.4185 -0.4606
18840TIP3    H178011   1.968   6.320  16.008  0.5916  1.8703 -0.6688
18840TIP3    H278012   1.976   6.378  16.148  0.1899  0.4224 -0.0208
18841TIP3   OH278013   5.340   4.324   3.882  0.1204  0.6419  0.2615
18841TIP3    H178014   5.430   4.317   3.850  1.4045  0.1624  3.5853
18841TIP3    H278015   5.319   4.417   3.873 -0.4354  0.3107 -3.5823
18842TIP3   OH278016   1.083   0.784   0.166  0.3650  0.0163 -0.0650
18842TIP3    H178017   1.054   0.699   0.132 -0.3077  1.3001 -3.0030
18842TIP3    H278018   1.168   0.799   0.125  1.0101  0.3008  1.3243
18843TIP3   OH278019   6.735   6.001   4.187  0.2127  0.5821 -0.1635
18843TIP3    H178020   6.754   6.011   4.094 -1.4419  1.1937 -0.4646
18843TIP3    H278021   6.808   6.044   4.231  0.4021  1.3588 -1.1979
18844TIP3   OH278022   1.971   3.546   6.679 -0.3261  0.5414  0.2608
18844TIP3    H178023   2.050   3.499   6.705  0.1698  1.2687  0.1113
18844TIP3    H278024   1.931   3.491   6.611 -0.0183  0.1137  0.4214
18845TIP3   OH278025   6.019   6.184   1.484  0.2675  0.7469 -0.1162
18845TIP3    H178026   6.096   6.196   1.430  0.3848  1.4484  0.2017
18845TIP3    H278027   6.038   6.106   1.536 -0.6946 -1.2351 -2.5188
18846TIP3   OH278028   1.138   4.530  15.775 -0.3238 -0.4293 -0.4651
18846TIP3    H178029   1.059   4.572  15.808 -0.9722 -0.6217 -1.7219
18846TIP3    H278030   1.199   4.603  15.761 -0.3618 -0.2507  0.2620
18847TIP3   OH278031   2.121   4.622  13.872 -0.1558 -0.4720 -0.1370
18847TIP3    H178032   2.158   4.554  13.928 -1.5161 -0.7297  0.4944
18847TIP3    H278033   2.082   4.574  13.799 -1.6487 -0.4703  0.6122
18848TIP3   OH278034   2.266   1.359   4.056 -0.7765  0.2852  0.3211
18848TIP3    H178035   2.336   1.347   4.120  1.2692  2.8961 -1.2014
18848TIP3    H278036   2.276   1.285   3.996 -0.3838 -0.2409  1.0157
18849TIP3   OH278037   0.219   2.876  13.438 -0.3710  0.5334  0.9915
18849TIP3    H178038   0.283   2.863  13.508  0.9039  0.4797 -0.1408
18849TIP3    H278039   0.183   2.963  13.455  2.5256  2.0983 -0.2127
18850TIP3   OH278040   6.611   1.708  14.306  0.5718  0.3872 -0.0578
18850TIP3    H178041   6.555   1.734  14.233  0.2997  0.3156  0.1197
18850TIP3    H278042   6.621   1.613  14.297 -1.8546 -0.1287  1.5869
18851TIP3   OH278043   6.648   4.811   2.992 -0.2491  0.6189 -0.2580
18851TIP3    H178044   6.695   4.882   2.949 -3.1923  2.2274 -1.0870
18851TIP3    H278045   6.627   4.845   3.079 -0.2717  0.0737 -0.0435
18852TIP3   OH278046   1.882   3.983  10.795  0.1873  0.0992 -0.4110
18852TIP3    H178047   1.820   4.055  10.783  0.9108  0.6535 -0.8631
18852TIP3    H278048   1.827   3.904  10.797 -0.6825  0.7058  0.8195
18853TIP3   OH278049   0.156   2.793  16.718 -0.5349 -0.1650  0.6170
18853TIP3    H178050   0.160   2.773  16.812  0.0302  1.3607  0.9586
18853TIP3    H278051   0.244   2.774  16.686 -0.6743 -0.5067  0.4409
18854TIP3   OH278052   2.792   0.872  17.220 -0.1597  0.4913  0.0677
18854TIP3    H178053   2.885   0.890  17.204 -0.3353 -0.8153 -3.4199
18854TIP3    H278054   2.791   0.821  17.301  2.3079 -0.2654 -0.2828
18855TIP3   OH278055   3.781   5.334   6.246  0.5718  0.0977  0.8229
18855TIP3    H178056   3.750   5.367   6.162  0.1074  0.1683  1.0202
18855TIP3    H278057   3.851   5.273   6.223 -0.2946 -0.7325  0.3213
18856TIP3   OH278058   0.765   2.820   1.241 -0.2915 -0.2231 -0.5386
18856TIP3    H178059   0.840   2.806   1.183  0.0900 -0.9715  0.1283
18856TIP3    H278060   0.797   2.798   1.328 -0.9617  0.5605 -0.0750
18857TIP3   OH278061   4.719   3.053  11.502 -0.3924 -0.0190  0.5267
18857TIP3    H178062   4.748   2.963  11.488 -0.2806  0.1388 -0.3818
18857TIP3    H278063   4.646   3.064  11.441  2.0077  1.6387 -2.3344
18858TIP3   OH278064   6.468   3.598   2.774  0.0510 -0.2147 -0.0481
18858TIP3    H178065   6.468   3.509   2.809  0.4176 -0.7023 -1.2368
18858TIP3    H278066   6.425   3.590   2.689 -1.9508  1.1620  0.7648
18859TIP3   OH278067   2.990   4.334  15.677  0.0754  0.1962  0.1183
18859TIP3    H178068   2.901   4.366  15.663  0.0325 -0.5679 -1.5800
18859TIP3    H278069   2.989   4.244  15.645  1.3169 -0.0255  0.6420
18860TIP3   OH278070   0.046   0.496   3.745 -0.1816 -0.5009 -0.0341
18860TIP3    H178071   0.048   0.577   3.694  0.6517 -0.3667  0.1981
18860TIP3    H278072  -0.042   0.494   3.783 -0.0426  0.5805  0.4009
18861TIP3   OH278073   5.566   1.507   0.295  0.5421 -0.4500  0.5663
18861TIP3    H178074   5.546   1.421   0.260 -1.4356  0.2689 -0.2114
18861TIP3    H278075   5.644   1.494   0.349  2.9522 -1.9150 -2.8887
18862TIP3   OH278076   4.816   5.610  12.136  0.2406 -0.0673  0.1276
18862TIP3    H178077   4.740   5.629  12.192  0.6533  0.3161  0.5586
18862TIP3    H278078   4.862   5.539  12.182  0.9379  0.6883  0.6245
18863TIP3   OH278079   0.264   0.678   0.676  0.2977 -0.6104  0.0201
18863TIP3    H178080   0.245   0.585   0.664 -1.8932 -0.5950  2.4360
18863TIP3    H278081   0.335   0.680   0.739  0.0387 -0.6597  0.3159
18864TIP3   OH278082   4.313   1.762  12.808  0.3101 -0.4641  0.3861
18864TIP3    H178083   4.396   1.805  12.790  0.0654  0.9003  2.1674
18864TIP3    H278084   4.272   1.750  12.723  1.7722 -0.0090 -0.4067
18865TIP3   OH278085   4.740   0.256   5.108 -0.4650  0.3261  0.0633
18865TIP3    H178086   4.735   0.225   5.018  1.5475  1.2096 -0.3976
18865TIP3    H278087   4.753   0.351   5.101 -1.0541  0.5232  1.3126
18866TIP3   OH278088   5.651   0.741   2.466 -0.6310 -0.4122  0.2017
18866TIP3    H178089   5.721   0.793   2.426 -1.7501  0.8671 -0.1618
18866TIP3    H278090   5.677   0.650   2.450  0.7299  0.0320 -0.2858
18867TIP3   OH278091   0.137   6.619  16.276  0.0518  0.1902  0.2864
18867TIP3    H178092   0.157   6.696  16.223  2.9681  0.4343  1.5592
18867TIP3    H278093   0.145   6.648  16.366 -0.9633 -1.1241  0.8400
18868TIP3   OH278094   1.374   0.341  12.849  0.0046 -0.0921  0.3163
18868TIP3    H178095   1.330   0.334  12.764  2.0408  0.2496 -0.8340
18868TIP3    H278096   1.320   0.401  12.899  0.0649  1.7435 -1.6813
18869TIP3   OH278097   0.761   3.324   2.783  0.5814  0.2466  0.3949
18869TIP3    H178098   0.696   3.313   2.714 -0.5553  1.0497  1.2863
18869TIP3    H278099   0.786   3.416   2.777 -0.8533  0.8126  2.1110
18870TIP3   OH278100   3.847   0.916  14.542  0.0048  0.4570  0.0399
18870TIP3    H178101   3.882   0.963  14.618 -0.2117 -0.0403  0.4545
18870TIP3    H278102   3.868   0.972  14.468  1.3874  0.3412  0.3086
18871TIP3   OH278103   3.208   6.683   0.582  0.1015  0.3839 -0.3175
18871TIP3    H178104   3.122   6.654   0.553 -0.5404  0.5367  1.3018
18871TIP3    H278105   3.257   6.602   0.597  0.4764  0.3036 -1.8010
18872TIP3   OH278106   5.355   3.205   2.505 -0.3453  0.3192 -0.1253
18872TIP3    H178107   5.305   3.123   2.500  1.0949 -0.5178 -1.5954
18872TIP3    H278108   5.389   3.207   2.595 -0.6207 -0.5456  0.0059
18873TIP3   OH278109   6.429   3.042   6.708 -0.1887 -0.4101 -0.9836
18873TIP3    H178110   6.490   3.084   6.769 -0.7522  0.3408 -0.9095
18873TIP3    H278111   6.478   3.034   6.627  0.1284 -0.1447 -0.8222
18874TIP3   OH278112   0.773   4.560  10.218  0.3375 -0.6908 -0.2413
18874TIP3    H178113   0.830   4.555  10.142  0.6094  0.3019 -0.1220
18874TIP3    H278114   0.685   4.572  10.181  0.4923 -0.0127 -0.4104
18875TIP3   OH278115   0.688   1.440   1.184  0.4928 -0.1577  0.0707
18875TIP3    H178116   0.760   1.379   1.170  0.9022  0.4297 -0.4127
18875TIP3    H278117   0.728   1.527   1.182 -0.1065  0.1464  0.5927
18876TIP3   OH278118   0.139   6.111   4.265  0.1465 -0.4945 -0.2672
18876TIP3    H178119   0.175   6.145   4.184 -0.6789 -2.9356 -1.7647
18876TIP3    H278120   0.179   6.164   4.334  4.0560 -0.9500 -1.9720
18877TIP3   OH278121   6.406   3.755  10.640 -0.3921 -0.1352  0.5924
18877TIP3    H178122   6.322   3.761  10.594 -0.3026 -0.2712  0.4098
18877TIP3    H278123   6.454   3.687  10.593 -0.2069 -0.1080  0.7416
18878TIP3   OH278124   6.521   3.704  10.982 -0.5662 -0.2494  0.9945
18878TIP3    H178125   6.430   3.726  11.002  0.1469  2.1558  1.9706
18878TIP3    H278126   6.542   3.758  10.906  1.1237  2.4760  3.1912
18879TIP3   OH278127   2.532   2.942   3.942  0.0001  0.3138  1.0350
18879TIP3    H178128   2.481   3.022   3.936 -1.5967 -0.6934  0.6476
18879TIP3    H278129   2.500   2.887   3.870  1.5674 -0.4040  0.8375
18880TIP3   OH278130   4.274   4.237  13.441 -0.6833 -0.2171 -0.8268
18880TIP3    H178131   4.333   4.183  13.388 -0.1385  1.3209 -1.8460
18880TIP3    H278132   4.319   4.321  13.449 -2.1381  0.5562 -0.4700
18881TIP3   OH278133   4.641   0.315   0.053 -0.5490  0.2023 -0.1858
18881TIP3    H178134   4.617   0.295   0.143 -1.0671 -0.4711 -0.4607
18881TIP3    H278135   4.737   0.319   0.054 -0.5745  0.9734  0.5364
18882TIP3   OH278136   2.885   5.815   3.440  0.1194  0.4123  0.0041
18882TIP3    H178137   2.924   5.843   3.358  2.9785 -0.5030  0.9180
18882TIP3    H278138   2.917   5.877   3.505  0.0538 -0.3796  0.8225
18883TIP3   OH278139   3.456   1.081   5.726  0.0802 -0.4979 -0.5404
18883TIP3    H178140   3.391   1.151   5.717 -1.1354 -1.7670 -2.5508
18883TIP3    H278141   3.506   1.084   5.644  0.6570 -1.3732 -0.2366
18884TIP3   OH278142   4.721   5.418   5.855 -0.4674  0.5946 -0.3083
18884TIP3    H178143   4.741   5.489   5.916  0.4003 -0.1091  0.2444
18884TIP3    H278144   4.755   5.339   5.897  0.5020  0.1334 -1.8788
18885TIP3   OH278145   1.165   3.437   6.321  0.4472 -0.1354 -0.4003
18885TIP3    H178146   1.093   3.449   6.259  1.4365  0.6080 -1.4329
18885TIP3    H278147   1.125   3.390   6.394 -1.0604  0.1621 -0.9935
18886TIP3   OH278148   3.597   0.996   4.125 -0.4079  0.6082 -0.8285
18886TIP3    H178149   3.552   1.068   4.171  1.1271  1.6181 -0.8407
18886TIP3    H278150   3.644   1.040   4.054 -1.0517 -0.6830 -2.0957
18887TIP3   OH278151   5.301   0.249  12.275 -0.2099  0.6058 -0.1086
18887TIP3    H178152   5.265   0.292  12.353 -4.5950 -2.4475 -0.0757
18887TIP3    H278153   5.306   0.320  12.210 -1.1939  2.3306  1.5782
18888TIP3   OH278154   4.956   1.665  15.498 -0.0367 -0.6181  0.0576
18888TIP3    H178155   4.952   1.701  15.409  1.3216 -1.9132 -0.5624
18888TIP3    H278156   5.049   1.667  15.521 -0.5264  1.5199  2.2718
18889TIP3   OH278157   0.868   6.660   2.361  0.0274  0.0618  0.5972
18889TIP3    H178158   0.839   6.606   2.434  2.4441 -0.9058  0.9163
18889TIP3    H278159   0.940   6.711   2.396 -0.3095  1.3659 -0.5104
18890TIP3   OH278160   5.803   3.482   4.765 -0.0613  0.1452  0.1024
18890TIP3    H178161   5.786   3.390   4.784 -0.7804  0.4508  0.9802
18890TIP3    H278162   5.729   3.509   4.711  0.1803  0.2008 -0.2048
18891TIP3   OH278163   3.057   0.445  15.292  0.1833 -0.0947 -0.0969
18891TIP3    H178164   3.116   0.494  15.235 -0.2340  0.5152 -0.0204
18891TIP3    H278165   3.053   0.496  15.372 -0.3825 -0.1633 -0.0715
18892TIP3   OH278166   2.594   3.906   1.978  0.3512  0.3401  0.1329
18892TIP3    H178167   2.566   3.940   2.063  0.5242 -0.5437  0.5587
18892TIP3    H278168   2.690   3.913   1.980  0.5429 -1.7728  0.9705
18893TIP3   OH278169   0.447   1.514   0.179 -0.1684  0.5702 -0.6012
18893TIP3    H178170   0.485   1.432   0.144  1.5782  1.8465 -1.9084
18893TIP3    H278171   0.522   1.572   0.190 -1.1402  1.4635  2.0337
18894TIP3   OH278172   4.540   6.259   5.079 -0.0226  0.2029  0.5389
18894TIP3    H178173   4.469   6.323   5.073  0.6108  1.0390  1.6157
18894TIP3    H278174   4.518   6.193   5.014 -1.5362  0.6933  0.5154
18895TIP3   OH278175   6.693   4.326  14.729  0.2000  0.9365 -0.3797
18895TIP3    H178176   6.681   4.349  14.821 -0.6675  1.2483 -0.5578
18895TIP3    H278177   6.783   4.294  14.724 -0.4559 -1.4198  1.0401
18896TIP3   OH278178   2.776   2.254  16.088  0.0889  0.0121  0.3643
18896TIP3    H178179   2.742   2.217  16.007  1.6821 -2.2137  0.6038
18896TIP3    H278180   2.728   2.208  16.157  0.6371 -0.1170  0.6667
18897TIP3   OH278181   2.492   5.092  15.088  0.8548 -0.1590  0.5363
18897TIP3    H178182   2.402   5.086  15.120  0.7573 -0.9855  0.1164
18897TIP3    H278183   2.546   5.080  15.166  0.6049  0.0523  0.7432
18898TIP3   OH278184   4.101   0.647  14.117 -0.2639 -0.4483  0.1980
18898TIP3    H178185   4.076   0.724  14.066 -2.2385 -0.0878  1.5598
18898TIP3    H278186   4.106   0.679  14.207  1.3985 -1.4269  0.4977
18899TIP3   OH278187   4.435   3.018  12.551 -0.9864 -0.2056 -0.0345
18899TIP3    H178188   4.395   3.068  12.480  0.8044 -0.5179 -1.3363
18899TIP3    H278189   4.491   2.955  12.507  1.8678  0.9860  1.6290
18900TIP3   OH278190   4.616   2.215   1.642 -0.6157 -0.0473 -0.1602
18900TIP3    H178191   4.592   2.307   1.651 -2.6979 -0.3739 -1.6286
18900TIP3    H278192   4.668   2.212   1.561 -1.2415 -0.2574 -0.5604
18901TIP3   OH278193   3.653   4.586   1.958 -0.0080 -0.6901 -0.0469
18901TIP3    H178194   3.598   4.652   2.000  1.0756  0.1481  0.0984
18901TIP3    H278195   3.591   4.520   1.926 -1.0528  0.0016  0.4928
18902TIP3   OH278196   5.460   3.203  12.885 -0.2957  0.8618 -0.0227
18902TIP3    H178197   5.525   3.137  12.909 -0.0509  0.6908 -1.1283
18902TIP3    H278198   5.442   3.249  12.967  1.6452  1.2863  0.2313
18903TIP3   OH278199   5.748   2.194   1.515 -0.0236 -0.1184 -0.4271
18903TIP3    H178200   5.800   2.234   1.445  1.2825  0.3806  0.7790
18903TIP3    H278201   5.791   2.110   1.533  0.6406  0.4493  0.8156
18904TIP3   OH278202   5.413   3.242   2.813 -0.3384  0.2859  0.2736
18904TIP3    H178203   5.385   3.179   2.880  0.9893 -1.1876 -0.4690
18904TIP3    H278204   5.386   3.327   2.847 -2.7482 -0.7019  1.0591
18905TIP3   OH278205   6.605   4.862  12.624  0.1443 -0.2914  0.6254
18905TIP3    H178206   6.634   4.795  12.563 -0.5847  0.3375 -0.4563
18905TIP3    H278207   6.542   4.817  12.681 -0.2036 -0.5866  0.0247
18906TIP3   OH278208   5.583   2.554  11.986  0.5607  0.2409  0.1047
18906TIP3    H178209   5.504   2.589  12.027 -1.0266 -0.9545 -1.7871
18906TIP3    H278210   5.584   2.594  11.899  2.5182  0.8288  0.3430
18907TIP3   OH278211   5.209   4.107  14.312 -0.2034  0.1620 -0.1860
18907TIP3    H178212   5.227   4.189  14.264  1.6349 -0.2555 -0.3136
18907TIP3    H278213   5.150   4.133  14.382 -2.1832  0.9939 -2.0403
18908TIP3   OH278214   0.633   5.601   6.067 -0.7186 -0.2822 -0.0425
18908TIP3    H178215   0.638   5.509   6.095  0.8363  0.1873  1.3682
18908TIP3    H278216   0.652   5.598   5.973  1.4397 -1.2458  0.3606
18909TIP3   OH278217   1.086   4.452   0.452 -0.1206  0.0557  0.5606
18909TIP3    H178218   1.153   4.444   0.520 -0.8648 -0.4534  1.2478
18909TIP3    H278219   1.065   4.545   0.451  1.8169  0.5617 -0.8943
18910TIP3   OH278220   1.646   5.559  13.307 -0.4755 -0.0739  0.1754
18910TIP3    H178221   1.730   5.605  13.309 -0.0331 -0.8235 -0.5837
18910TIP3    H278222   1.586   5.617  13.354  0.5170  0.3517  0.9546
18911TIP3   OH278223   6.626   5.467   3.016 -0.2426  0.5928 -0.5341
18911TIP3    H178224   6.647   5.471   3.109 -0.4153  0.3152 -0.4816
18911TIP3    H278225   6.699   5.417   2.978 -0.9213 -0.6193 -0.3083
18912TIP3   OH278226   5.058   5.065   3.618  0.3187 -0.2920  0.8287
18912TIP3    H178227   5.032   4.982   3.658 -0.0547 -0.3428  0.4978
18912TIP3    H278228   4.979   5.119   3.623 -0.6785 -1.2428 -2.2963
18913TIP3   OH278229   0.160   4.024  11.770 -0.1858  0.4001 -0.7632
18913TIP3    H178230   0.212   4.093  11.811 -0.7238 -0.2275  1.0700
18913TIP3    H278231   0.091   4.071  11.722  1.1685  1.1801 -2.0375
18914TIP3   OH278232   2.714   2.120  15.564 -0.5775  0.7188 -0.5431
18914TIP3    H178233   2.784   2.063  15.532 -1.8868 -0.1539 -1.9922
18914TIP3    H278234   2.744   2.209  15.543 -0.7508  0.2602 -3.0228
18915TIP3   OH278235   1.746   1.937  12.646  0.1394  0.1017  0.1984
18915TIP3    H178236   1.732   2.011  12.587  1.0523 -0.7341 -1.1218
18915TIP3    H278237   1.658   1.901  12.660 -0.0081 -0.2631 -1.4582
18916TIP3   OH278238   5.560   0.562  12.139 -0.3920  0.2343  0.3162
18916TIP3    H178239   5.623   0.494  12.163 -0.1625  0.8104  1.4583
18916TIP3    H278240   5.482   0.515  12.109  0.4347 -0.4890 -0.7407
18917TIP3   OH278241   3.018   1.026  12.211  0.6019  0.1714 -0.2045
18917TIP3    H178242   3.083   1.089  12.179  0.0730  1.4632  1.1435
18917TIP3    H278243   2.998   0.971  12.135  0.5759  2.0665 -1.6498
18918TIP3   OH278244   3.311   0.926   1.789  0.2020 -0.4344  0.6024
18918TIP3    H178245   3.391   0.904   1.740 -0.4927  0.8643 -1.2094
18918TIP3    H278246   3.246   0.864   1.756 -0.2992  0.5226 -0.2355
18919TIP3   OH278247   5.116   5.622  16.482 -0.2215  0.3265 -0.1362
18919TIP3    H178248   5.072   5.600  16.565 -0.5526 -3.9546 -1.2089
18919TIP3    H278249   5.049   5.607  16.415  0.5283  2.0859 -1.3387
18920TIP3   OH278250   6.285   0.409  14.795  0.3746 -0.1637  0.0978
18920TIP3    H178251   6.220   0.398  14.725 -1.0107 -0.3308  1.3615
18920TIP3    H278252   6.345   0.475  14.761 -1.4571  1.3103 -0.4591
18921TIP3   OH278253   4.583   5.929   6.468  0.3678  0.2687 -0.7088
18921TIP3    H178254   4.678   5.941   6.470  0.3335  0.4589  0.6160
18921TIP3    H278255   4.571   5.834   6.464  0.6441  0.0945  1.4277
18922TIP3   OH278256   6.726   6.523  13.672  0.3818 -0.3497 -0.1916
18922TIP3    H178257   6.725   6.445  13.728  0.2355 -0.3644 -0.2130
18922TIP3    H278258   6.769   6.494  13.592  1.6622 -0.0147  0.3520
18923TIP3   OH278259   6.520   4.006   2.313 -0.2243  0.3712 -0.0390
18923TIP3    H178260   6.572   4.081   2.283  0.5840 -0.3090 -0.3988
18923TIP3    H278261   6.462   4.042   2.380  0.7775  1.1494  0.4369
18924TIP3   OH278262   3.461   2.764  10.901  0.4158 -0.2289 -0.0110
18924TIP3    H178263   3.463   2.821  10.824 -0.7707 -0.5293 -0.2802
18924TIP3    H278264   3.523   2.694  10.881  2.8053  1.5128  0.8028
18925TIP3   OH278265   5.268   2.925  11.560  0.0457 -0.6568 -0.3416
18925TIP3    H178266   5.298   2.936  11.469  1.6868  1.1748  0.3426
18925TIP3    H278267   5.175   2.949  11.557 -0.0471 -1.0755 -1.6057
18926TIP3   OH278268   4.967   1.034  15.031 -0.4531  0.1492 -0.4178
18926TIP3    H178269   4.995   1.090  14.959 -0.2807  0.4606 -0.1086
18926TIP3    H278270   5.048   1.005  15.072 -0.4986 -1.1394 -1.1789
18927TIP3   OH278271   3.156   0.741   4.863 -0.3463 -0.4185 -0.3593
18927TIP3    H178272   3.092   0.698   4.921 -0.3533  0.7031  0.4858
18927TIP3    H278273   3.234   0.686   4.869  0.6260  1.0601  2.9102
18928TIP3   OH278274   3.767   4.941  13.354  0.5595 -0.0278  0.5504
18928TIP3    H178275   3.807   5.017  13.311 -0.6346  0.1490 -0.2849
18928TIP3    H278276   3.840   4.882  13.370  1.2901  0.6590 -0.1384
18929TIP3   OH278277   3.725   5.739   3.737  0.5011  0.1557  0.3565
18929TIP3    H178278   3.707   5.815   3.792  1.0951  0.1586  0.5553
18929TIP3    H278279   3.733   5.774   3.649  1.1479  0.3911  0.4979
18930TIP3   OH278280   5.491   3.445  15.099 -0.2570  0.0399 -0.6528
18930TIP3    H178281   5.516   3.389  15.025  0.1735 -0.5455 -0.0814
18930TIP3    H278282   5.397   3.430  15.111 -0.1776 -0.4333 -0.6172
18931TIP3   OH278283   3.236   5.943  12.576 -0.3210 -0.1434  0.0091
18931TIP3    H178284   3.153   5.969  12.618 -0.1663  1.6912 -0.7564
18931TIP3    H278285   3.259   5.860  12.619 -2.0966 -0.2464  0.8557
18932TIP3   OH278286   4.780   3.898   2.065  0.1486 -0.0034 -0.0771
18932TIP3    H178287   4.876   3.902   2.057  0.0483  0.9143 -1.2837
18932TIP3    H278288   4.760   3.956   2.138  0.5277 -0.2908  0.2560
18933TIP3   OH278289   5.825   3.955  13.903  0.3300 -0.1606 -0.2560
18933TIP3    H178290   5.823   3.863  13.877  1.4204 -0.1909 -0.2757
18933TIP3    H278291   5.895   3.960  13.968  0.0801  0.5993 -0.0364
18934TIP3   OH278292   1.708   1.853   4.902 -0.1227  0.3898 -0.4103
18934TIP3    H178293   1.691   1.801   4.981 -0.1646  0.9002 -0.0758
18934TIP3    H278294   1.799   1.833   4.879 -0.5614 -0.9067 -1.1070
18935TIP3   OH278295   3.786   2.124  12.075  0.4785 -0.3259 -0.7447
18935TIP3    H178296   3.716   2.148  12.137  1.2388  2.2471 -0.7954
18935TIP3    H278297   3.755   2.042  12.036 -0.9598 -0.9908  1.5772
18936TIP3   OH278298   2.751   6.229   6.019  0.0244  0.4842 -0.1510
18936TIP3    H178299   2.696   6.306   6.004  0.3021  0.4943 -1.1859
18936TIP3    H278300   2.739   6.209   6.112 -3.4946 -0.8840 -0.7424
18937TIP3   OH278301   2.162   5.224  13.274 -0.6647  0.1968 -0.8289
18937TIP3    H178302   2.145   5.131  13.257  0.9702 -0.5638  1.3232
18937TIP3    H278303   2.110   5.243  13.352  2.3872 -0.2312  1.4744
18938TIP3   OH278304   2.858   6.696   5.018 -0.1051 -0.3045 -0.1172
18938TIP3    H178305   2.889   6.700   4.927  0.3925 -0.4912  0.0424
18938TIP3    H278306   2.938   6.689   5.070 -0.2248  1.8826  0.4765
18939TIP3   OH278307   5.130   1.917  13.173 -0.1738 -0.3258  0.1188
18939TIP3    H178308   5.138   1.909  13.078  1.3413 -1.9859  0.3105
18939TIP3    H278309   5.040   1.891  13.192 -0.7493  0.8300 -0.9086
18940TIP3   OH278310   4.549   4.653   3.933  0.0063 -0.1779 -0.1023
18940TIP3    H178311   4.524   4.604   3.854  0.7722 -0.6936 -0.0364
18940TIP3    H278312   4.510   4.739   3.921 -3.0013 -1.3062  0.6261
18941TIP3   OH278313   4.275   2.522  12.214 -0.3876 -0.0026  0.5758
18941TIP3    H178314   4.290   2.434  12.248 -0.5751  0.3363  1.5555
18941TIP3    H278315   4.329   2.526  12.135 -0.2135 -0.9217  0.6369
18942TIP3   OH278316   1.839   5.163  11.461 -0.1152 -0.0646 -0.2725
18942TIP3    H178317   1.920   5.124  11.427 -0.6517 -0.2401 -1.3959
18942TIP3    H278318   1.791   5.189  11.383 -0.6033  1.1788  0.4164
18943TIP3   OH278319   6.403   4.223  15.380  0.2690  0.4739  0.3763
18943TIP3    H178320   6.477   4.163  15.372  0.3178  0.6800 -1.0469
18943TIP3    H278321   6.442   4.310  15.371 -0.2030  0.5573 -1.2888
18944TIP3   OH278322   0.119   0.804   1.672 -0.4407 -0.0582  0.3772
18944TIP3    H178323   0.092   0.892   1.643  1.7567  0.5199 -0.0711
18944TIP3    H278324   0.112   0.750   1.593 -0.0603  0.1422  0.2047
18945TIP3   OH278325   3.523   6.342  14.315 -0.4796 -0.0240  0.1562
18945TIP3    H178326   3.500   6.429  14.347  0.4639  1.2678 -2.3606
18945TIP3    H278327   3.615   6.350  14.291  0.2088 -2.3774  1.7499
18946TIP3   OH278328   4.279   0.613  16.239  0.5631 -0.0298 -0.2957
18946TIP3    H178329   4.347   0.665  16.194 -1.0804  2.6696  0.0864
18946TIP3    H278330   4.215   0.594  16.171  0.3228 -0.0482 -0.0642
18947TIP3   OH278331   2.389   1.442  13.246  0.0249  0.2241  0.1686
18947TIP3    H178332   2.383   1.512  13.180  0.3320 -0.2441 -0.3659
18947TIP3    H278333   2.308   1.449  13.296 -0.1715  0.6465 -0.2053
18948TIP3   OH278334   0.236   2.409   4.385 -0.4237 -0.0090 -0.4610
18948TIP3    H178335   0.223   2.504   4.380  0.6931  0.2732  1.3227
18948TIP3    H278336   0.164   2.378   4.440  1.0295  0.3137  1.7474
18949TIP3   OH278337   1.775   0.559  13.103 -0.1310  0.6526  0.1761
18949TIP3    H178338   1.798   0.518  13.020  0.4016 -0.6381  0.9299
18949TIP3    H278339   1.841   0.526  13.164 -0.7481  1.2741  1.1987
18950TIP3   OH278340   4.502   1.776  10.537 -0.0070  0.5063 -0.0890
18950TIP3    H178341   4.408   1.762  10.529  0.0849  0.2143 -0.7617
18950TIP3    H278342   4.510   1.868  10.561 -0.4873  0.3449  0.7251
18951TIP3   OH278343   2.206   0.382   5.260 -0.0128 -0.0904 -0.8428
18951TIP3    H178344   2.295   0.348   5.258 -0.0208 -0.0972 -1.0725
18951TIP3    H278345   2.213   0.468   5.217 -0.3700 -0.6710 -2.0828
18952TIP3   OH278346   4.494   2.051   5.193 -0.1573  0.1230 -0.1383
18952TIP3    H178347   4.557   1.999   5.243  1.4826  0.9456 -1.2480
18952TIP3    H278348   4.459   2.115   5.255 -1.2190 -1.4182  0.9088
18953TIP3   OH278349   3.627   5.670   1.273 -0.1032  0.3779  0.1870
18953TIP3    H178350   3.610   5.576   1.276  4.4483 -0.7305 -1.2992
18953TIP3    H278351   3.680   5.688   1.350  0.5400  1.3571 -0.4613
18954TIP3   OH278352   1.823   5.412  13.952 -0.3318 -0.0325 -0.1970
18954TIP3    H178353   1.845   5.431  14.044  0.7290  0.3989 -0.5290
18954TIP3    H278354   1.781   5.326  13.956  1.2835 -0.8579  0.5327
18955TIP3   OH278355   5.035   3.007   3.441 -0.1190 -0.5377  0.1462
18955TIP3    H178356   5.064   2.987   3.351  2.6365  0.9246  0.5927
18955TIP3    H278357   5.060   2.929   3.491 -0.9272 -1.0324 -0.2115
18956TIP3   OH278358   3.009   6.361   2.488  0.3386  0.0992 -0.1932
18956TIP3    H178359   2.972   6.279   2.456 -0.0288  0.1128  0.1975
18956TIP3    H278360   2.998   6.423   2.416 -0.8624  0.2413  0.1017
18957TIP3   OH278361   1.779   4.263   2.985 -0.1232  0.2309  0.1240
18957TIP3    H178362   1.749   4.185   3.032  0.3485  1.0869  1.9251
18957TIP3    H278363   1.707   4.285   2.927 -1.2155 -0.2235  1.2708
18958TIP3   OH278364   4.106   4.235  11.625  0.3046 -0.1698 -0.2993
18958TIP3    H178365   4.150   4.185  11.556  2.0059  2.9122 -1.6911
18958TIP3    H278366   4.022   4.259  11.587 -0.9292 -2.5822  0.7356
18959TIP3   OH278367   1.019   4.230   2.783 -0.6256 -0.7822 -0.3407
18959TIP3    H178368   1.040   4.312   2.828  1.3140 -0.5395 -1.5387
18959TIP3    H278369   0.931   4.243   2.748 -0.1655  1.0166 -0.9409
18960TIP3   OH278370   6.525   4.707  10.843  0.2800  0.4988  0.1038
18960TIP3    H178371   6.492   4.795  10.826  0.4477  0.2610 -1.7070
18960TIP3    H278372   6.617   4.720  10.864  0.6056  0.7114 -1.3304
18961TIP3   OH278373   3.469   4.192  15.163 -0.1141 -0.5954  0.0014
18961TIP3    H178374   3.512   4.258  15.217 -0.6875  1.5330 -2.0173
18961TIP3    H278375   3.541   4.143  15.123  0.3631 -2.8645  3.1752
18962TIP3   OH278376   3.107   2.130  15.005  0.5607  0.3495  0.4119
18962TIP3    H178377   3.135   2.050  14.960 -1.7200  0.2821 -1.0316
18962TIP3    H278378   3.039   2.167  14.949 -1.0815  1.3188  2.8699
18963TIP3   OH278379   1.241   6.806   4.959  0.0485  0.7799  0.1960
18963TIP3    H178380   1.172   6.841   5.014  0.2098 -0.4282  1.1973
18963TIP3    H278381   1.233   6.855   4.876 -0.8388  1.8942  0.9140
18964TIP3   OH278382   3.159   6.458  16.912 -0.0688  0.4303  0.2980
18964TIP3    H178383   3.146   6.530  16.973  0.4715 -0.2607  1.2644
18964TIP3    H278384   3.143   6.379  16.965  0.9678 -0.2012 -0.2974
18965TIP3   OH278385   1.506   5.226   0.510 -0.3230 -0.1861  0.0702
18965TIP3    H178386   1.529   5.217   0.418 -0.2376  1.7246 -0.1427
18965TIP3    H278387   1.436   5.162   0.524  0.4588 -1.3148 -1.0007
18966TIP3   OH278388   0.741   3.796   0.294 -0.0999  0.7609 -0.9756
18966TIP3    H178389   0.823   3.753   0.317 -0.2449  1.3108  0.6548
18966TIP3    H278390   0.767   3.872   0.241  0.2307 -0.5576 -2.7862
18967TIP3   OH278391   2.469   1.411   2.893 -0.1862  0.0657  0.1994
18967TIP3    H178392   2.397   1.474   2.896 -0.6927 -0.5272  0.9844
18967TIP3    H278393   2.521   1.430   2.970 -0.3754 -0.5071  0.4726
18968TIP3   OH278394   5.692   1.596  13.927  0.0456 -0.3022  0.2039
18968TIP3    H178395   5.776   1.563  13.896 -0.3919 -1.7439  0.4773
18968TIP3    H278396   5.628   1.532  13.895 -1.1166  1.4303 -1.0969
18969TIP3   OH278397   5.887   2.250  16.702 -0.0665 -0.3470  0.2022
18969TIP3    H178398   5.901   2.180  16.767 -1.3040 -0.3991  0.4318
18969TIP3    H278399   5.808   2.224  16.655  2.1133 -1.6275 -3.1357
18970TIP3   OH278400   1.322   2.882  13.773  0.5631  0.9741 -0.1353
18970TIP3    H178401   1.254   2.849  13.714  2.3138 -1.1390 -1.1663
18970TIP3    H278402   1.338   2.809  13.834  0.0558  2.4553  1.8722
18971TIP3   OH278403   1.730   6.635   1.939 -0.5778  0.2473 -0.5628
18971TIP3    H178404   1.692   6.581   2.009 -0.9266  0.3132 -0.7008
18971TIP3    H278405   1.743   6.720   1.980  0.9680 -0.2047 -0.0217
18972TIP3   OH278406   3.095   2.669   4.981 -0.3042  0.0164 -0.0777
18972TIP3    H178407   3.153   2.721   4.925  0.1634 -1.6844 -1.2188
18972TIP3    H278408   3.150   2.643   5.055 -0.3902  0.6471  0.2181
18973TIP3   OH278409   3.040   3.371   4.788  0.2973  0.3216  0.2025
18973TIP3    H178410   3.121   3.421   4.799  0.6914 -0.5960  1.7825
18973TIP3    H278411   3.068   3.286   4.755  0.0786 -0.2438  1.4207
18974TIP3   OH278412   5.882   3.612   6.145  0.5300  0.6447  0.0486
18974TIP3    H178413   5.796   3.648   6.167  0.5217  0.7405 -0.1357
18974TIP3    H278414   5.944   3.674   6.184  0.5150  0.6938 -0.0052
18975TIP3   OH278415   3.137   5.298  14.194  0.3293  0.1320 -0.5448
18975TIP3    H178416   3.165   5.385  14.221  1.0547  0.1845 -1.3960
18975TIP3    H278417   3.219   5.250  14.181 -0.0742 -1.0067  0.8954
18976TIP3   OH278418   2.909   1.968  13.964  0.0357  0.0533 -0.1804
18976TIP3    H178419   3.000   1.958  13.937 -0.0480  1.2277 -0.9589
18976TIP3    H278420   2.906   2.055  14.005 -1.4653  1.8029 -3.5783
18977TIP3   OH278421   2.655   2.287   4.600 -0.5662  0.3865 -0.1474
18977TIP3    H178422   2.584   2.298   4.536  0.1607  1.0166 -0.8709
18977TIP3    H278423   2.703   2.370   4.596  0.5792 -0.2624 -0.1354
18978TIP3   OH278424   1.335   2.371   6.052 -0.3033 -0.0958 -0.1202
18978TIP3    H178425   1.297   2.458   6.040 -0.6313 -0.3485 -1.0010
18978TIP3    H278426   1.408   2.385   6.112 -0.7096  0.6887  0.2117
18979TIP3   OH278427   3.678   3.656  12.642 -0.6620 -1.2855 -0.0745
18979TIP3    H178428   3.603   3.712  12.621 -0.7293 -1.1257  0.5706
18979TIP3    H278429   3.640   3.571  12.661 -0.5791 -1.4995 -0.8267
18980TIP3   OH278430   4.389   3.205  11.898  0.0085 -0.4018 -0.1043
18980TIP3    H178431   4.461   3.209  11.835 -0.3021 -0.0254 -0.4292
18980TIP3    H278432   4.423   3.252  11.975 -0.0054  0.0390 -0.3677
18981TIP3   OH278433   2.591   2.435   3.928 -0.1619  0.2815 -0.6234
18981TIP3    H178434   2.564   2.343   3.929 -0.1732  0.2876 -0.3931
18981TIP3    H278435   2.661   2.440   3.993 -1.1848  0.7409  0.4715
18982TIP3   OH278436   4.467   3.891  16.339 -0.0832 -0.1211 -0.3151
18982TIP3    H178437   4.374   3.879  16.324 -0.2000  0.6292 -0.2071
18982TIP3    H278438   4.488   3.976  16.301  0.7207 -0.6159 -1.0308
18983TIP3   OH278439   6.440   5.742   5.026  0.6595  0.0303 -0.0784
18983TIP3    H178440   6.369   5.678   5.028  0.0371  0.6985 -0.5378
18983TIP3    H278441   6.501   5.709   4.960  0.2042  0.0585 -0.5131
18984TIP3   OH278442   4.470   0.637  16.907 -0.3589 -0.4710 -0.0232
18984TIP3    H178443   4.479   0.661  17.000 -3.2043 -0.3429  0.3153
18984TIP3    H278444   4.559   0.617  16.879  0.8156  0.9296  2.3319
18985TIP3   OH278445   4.899   1.259  12.714 -0.0408  0.3803 -0.1620
18985TIP3    H178446   4.978   1.306  12.688  0.5450 -0.5694 -0.1348
18985TIP3    H278447   4.870   1.302  12.794  1.0899  0.0353  0.4503
18986TIP3   OH278448   1.716   0.212  16.455  0.1223 -0.2717  0.2717
18986TIP3    H178449   1.715   0.116  16.457 -0.4177 -0.2577  1.7776
18986TIP3    H278450   1.705   0.234  16.363 -0.5505 -1.6549 -0.0051
18987TIP3   OH278451   6.425   6.411   2.949 -0.5529 -0.0198  0.0657
18987TIP3    H178452   6.475   6.416   3.030 -0.0217  0.2514 -0.2674
18987TIP3    H278453   6.350   6.469   2.962  0.1530  0.9369 -0.0548
18988TIP3   OH278454   5.478   6.080   6.053 -0.6305  0.6447  0.0279
18988TIP3    H178455   5.487   6.163   6.099  0.6816 -0.1319  1.2364
18988TIP3    H278456   5.487   6.013   6.121  0.2830 -0.5289 -1.1918
18989TIP3   OH278457   4.216   1.153   2.801  0.2485  0.8132  0.9186
18989TIP3    H178458   4.264   1.074   2.775 -0.1888 -0.4837  3.6969
18989TIP3    H278459   4.141   1.155   2.741 -0.2094 -1.4348  1.3081
18990TIP3   OH278460   4.576   6.432  11.131 -0.1678  1.6087 -0.1360
18990TIP3    H178461   4.608   6.357  11.079  0.2902  1.1569  0.7697
18990TIP3    H278462   4.578   6.506  11.070  2.9975  1.6907 -0.1044
18991TIP3   OH278463   1.997   3.623   4.546  0.1947  0.5612 -0.4869
18991TIP3    H178464   2.009   3.614   4.641 -0.3273 -1.1297 -0.5409
18991TIP3    H278465   2.083   3.646   4.512  1.3142 -2.4005  0.0451
18992TIP3   OH278466   0.210   0.126  14.717 -0.2867  0.2229 -0.5718
18992TIP3    H178467   0.227   0.094  14.806 -0.4756 -0.4213 -0.7585
18992TIP3    H278468   0.297   0.144  14.681 -0.2507  1.2521  0.0122
18993TIP3   OH278469   3.419   2.736  16.696 -0.0261 -0.5045  0.3615
18993TIP3    H178470   3.368   2.693  16.628 -1.7365  1.5758  0.2095
18993TIP3    H278471   3.509   2.705  16.683 -0.2165  0.0121 -3.0838
18994TIP3   OH278472   0.238   4.222  15.905  0.1388  0.3180  0.2582
18994TIP3    H178473   0.180   4.289  15.941  0.5257  2.2594 -2.4079
18994TIP3    H278474   0.326   4.253  15.926  0.3454 -1.4358  2.3066
18995TIP3   OH278475   5.668   1.512  11.560 -0.2594 -0.5030  0.0615
18995TIP3    H178476   5.589   1.538  11.606 -0.0647  0.8852 -0.3372
18995TIP3    H278477   5.737   1.514  11.627 -0.3076 -0.2791  0.1065
18996TIP3   OH278478   4.603   4.340  10.357  0.0093 -0.7874 -0.3714
18996TIP3    H178479   4.523   4.364  10.311  0.5657 -0.8802 -1.4212
18996TIP3    H278480   4.633   4.421  10.397 -0.6284 -0.7620  0.0715
18997TIP3   OH278481   3.602   2.613  13.309  0.1252 -0.0157  0.4363
18997TIP3    H178482   3.687   2.632  13.347 -0.2999  0.5519  1.1389
18997TIP3    H278483   3.543   2.604  13.384  0.0835 -3.4247  0.1592
18998TIP3   OH278484   2.790   4.719  16.191 -0.5535  0.1545 -0.0816
18998TIP3    H178485   2.750   4.634  16.210 -1.2167  0.1729 -1.2890
18998TIP3    H278486   2.817   4.713  16.100 -3.1989  2.1622 -1.1564
18999TIP3   OH278487   4.119   3.304   5.014 -0.2432 -0.0373  0.5038
18999TIP3    H178488   4.190   3.327   5.073 -0.4563 -0.3817  0.9030
18999TIP3    H278489   4.042   3.346   5.051  0.1505  2.4789 -1.3029
19000TIP3   OH278490   3.760   3.172  14.016  0.1183  0.5229 -0.2592
19000TIP3    H178491   3.665   3.179  14.007  0.1008  1.6731  0.5123
19000TIP3    H278492   3.795   3.210  13.936 -0.0797  1.1762 -0.0435
19001TIP3   OH278493   1.680   4.446  10.258  0.4742  0.1209  0.2129
19001TIP3    H178494   1.716   4.357  10.254  2.1314  0.7579  0.4774
19001TIP3    H278495   1.736   4.498  10.201  0.9935  1.4640  1.8404
19002TIP3   OH278496   4.306   2.535  12.557  0.5339 -0.1630  0.1922
19002TIP3    H178497   4.272   2.496  12.637  1.5722 -0.9730  0.2497
19002TIP3    H278498   4.321   2.627  12.580 -1.2776  0.1715  0.2495
19003TIP3   OH278499   5.338   3.458   2.962 -0.2568 -0.4354 -0.7908
19003TIP3    H178500   5.385   3.521   3.016 -1.8957  0.1077  0.0680
19003TIP3    H278501   5.257   3.441   3.010  0.3280 -3.6456 -0.6780
19004TIP3   OH278502   4.803   5.819  11.803 -0.3240  0.0132  0.4396
19004TIP3    H178503   4.778   5.871  11.880  0.5864  0.9848  0.1103
19004TIP3    H278504   4.858   5.749  11.839  2.0933  1.8240  0.5028
19005TIP3   OH278505   3.356   2.807  12.210 -0.2111 -0.2731 -0.1882
19005TIP3    H178506   3.448   2.789  12.229  0.1454  1.9042  0.4350
19005TIP3    H278507   3.307   2.741  12.259  0.9886 -0.4090  0.8607
19006TIP3   OH278508   6.109   1.238   1.216 -0.1476 -0.1646  0.0935
19006TIP3    H178509   6.164   1.272   1.286 -1.6086 -0.0588  1.2483
19006TIP3    H278510   6.070   1.316   1.176 -0.2620 -0.2765 -0.0178
19007TIP3   OH278511   5.435   3.462  17.198 -0.0062  0.3967 -0.9396
19007TIP3    H178512   5.464   3.494  17.112 -1.7455  2.1973 -0.9449
19007TIP3    H278513   5.349   3.424  17.181  0.2964 -0.6249 -0.2199
19008TIP3   OH278514   0.096   0.313  15.995 -0.2919 -0.0912 -0.5941
19008TIP3    H178515   0.002   0.297  15.994 -0.1282 -1.1873  0.3127
19008TIP3    H278516   0.130   0.256  16.064  0.8633  1.3067  0.0372
19009TIP3   OH278517   6.691   1.443   5.341 -0.2559  0.0400  0.2301
19009TIP3    H178518   6.609   1.411   5.379 -2.2554  1.4613 -2.4900
19009TIP3    H278519   6.742   1.474   5.415 -1.2827 -2.6563  2.2274
19010TIP3   OH278520   4.674   2.750  16.647  0.3389 -0.3233  0.4956
19010TIP3    H178521   4.673   2.712  16.735 -0.3780 -2.5330 -0.4127
19010TIP3    H278522   4.584   2.779  16.632  0.7994  1.5348  1.0406
19011TIP3   OH278523   2.944   1.761   1.477 -0.4681  0.0917 -0.8618
19011TIP3    H178524   3.025   1.810   1.465  1.2177 -2.6622 -1.5511
19011TIP3    H278525   2.878   1.811   1.428  0.5555  2.8094  0.3684
19012TIP3   OH278526   0.908   4.201  14.038 -0.0309 -0.0373  0.1033
19012TIP3    H178527   0.844   4.141  14.000  0.8076 -1.2298  0.5251
19012TIP3    H278528   0.992   4.158  14.025  0.7670  1.7108 -0.8229
19013TIP3   OH278529   3.605   6.599   1.062 -0.1103 -0.5222  0.2670
19013TIP3    H178530   3.614   6.690   1.034 -0.3387 -1.2672 -2.5213
19013TIP3    H278531   3.687   6.557   1.037  0.3029 -0.9634  2.2340
19014TIP3   OH278532   3.705   0.292   5.558 -0.3183  0.3565  0.3456
19014TIP3    H178533   3.636   0.356   5.577  1.0984  2.1979 -0.4642
19014TIP3    H278534   3.670   0.239   5.486 -0.7764  1.4815 -0.2739
19015TIP3   OH278535   0.216   4.817   2.745 -0.4004  0.4489  0.2449
19015TIP3    H178536   0.135   4.866   2.760 -0.5459  0.0828  0.6779
19015TIP3    H278537   0.225   4.813   2.650  0.2796  2.4124  0.1889
19016TIP3   OH278538   4.547   0.443   2.583 -0.4136  0.1451 -0.0030
19016TIP3    H178539   4.473   0.490   2.544  0.0254  0.7580 -0.1207
19016TIP3    H278540   4.581   0.389   2.512  0.6438  1.5748 -0.6359
19017TIP3   OH278541   2.713   3.628  11.947 -0.5925  0.1293 -0.5058
19017TIP3    H178542   2.629   3.609  11.906 -0.9427  1.1673 -0.3197
19017TIP3    H278543   2.704   3.718  11.978 -0.6390 -0.7883  2.4894
19018TIP3   OH278544   1.616   0.647   1.670  0.4070 -0.2676 -0.2689
19018TIP3    H178545   1.709   0.667   1.685  0.0188  2.0228 -0.4615
19018TIP3    H278546   1.578   0.644   1.758  0.4033  0.4418 -0.2351
19019TIP3   OH278547   2.499   5.028   6.109  0.4251  0.7108 -0.5063
19019TIP3    H178548   2.570   4.997   6.165 -0.0517  0.2658 -0.1271
19019TIP3    H278549   2.441   5.076   6.169 -1.0189 -1.2792 -0.2051
19020TIP3   OH278550   1.421   1.864   5.795  0.5476 -0.4125  0.1036
19020TIP3    H178551   1.429   1.939   5.735  0.8290 -1.3362 -1.0613
19020TIP3    H278552   1.432   1.787   5.738 -0.5727 -1.3677  1.1253
19021TIP3   OH278553   3.024   6.592   0.884 -0.1800  0.6605 -0.2588
19021TIP3    H178554   3.018   6.504   0.848 -1.5109  1.4016 -1.9634
19021TIP3    H278555   3.041   6.648   0.809  3.6421  1.6570  1.1120
19022TIP3   OH278556   0.621   5.259  15.197 -0.5562  0.2104  0.0489
19022TIP3    H178557   0.586   5.224  15.115  1.2894 -0.1503 -0.6404
19022TIP3    H278558   0.625   5.354  15.183 -0.3881  0.1639 -0.2292
19023TIP3   OH278559   2.403   0.062   0.720 -0.2155  0.3678 -0.3219
19023TIP3    H178560   2.388   0.154   0.696 -0.3780  0.0741 -1.4181
19023TIP3    H278561   2.328   0.038   0.773  0.9969  1.5428  2.0646
19024TIP3   OH278562   4.801   3.958  17.110  0.2254 -0.4811 -0.0322
19024TIP3    H178563   4.816   3.864  17.097 -0.1950 -1.2679  3.9408
19024TIP3    H278564   4.708   3.970  17.096  0.1868 -0.7695 -0.0190
19025TIP3   OH278565   0.316   5.369   1.406 -0.1419 -0.2860 -0.0447
19025TIP3    H178566   0.272   5.336   1.484 -1.3697  1.1583 -0.0708
19025TIP3    H278567   0.388   5.421   1.439 -1.9735  2.1969  0.3131
19026TIP3   OH278568   1.502   3.990   0.222 -0.0201 -0.1802  0.2869
19026TIP3    H178569   1.458   4.045   0.157 -0.4937  0.5396  1.2036
19026TIP3    H278570   1.561   4.049   0.268 -0.5120 -0.4221  1.2606
19027TIP3   OH278571   2.286   4.581   0.567 -0.3315  0.3044 -0.0921
19027TIP3    H178572   2.361   4.542   0.613 -0.4662 -1.6454 -1.4517
19027TIP3    H278573   2.303   4.676   0.571  0.4913  0.1329  2.4706
19028TIP3   OH278574   4.915   2.998  15.104 -0.5285  0.3054  0.5538
19028TIP3    H178575   4.850   3.059  15.139  0.4235  1.6979 -0.0323
19028TIP3    H278576   4.931   3.028  15.014 -0.7024 -1.3766 -0.0861
19029TIP3   OH278577   1.711   0.660   3.109 -0.1255  0.1793  0.0455
19029TIP3    H178578   1.715   0.574   3.151 -1.4464 -0.2250 -0.6015
19029TIP3    H278579   1.793   0.666   3.060  1.1048  0.3419  1.9989
19030TIP3   OH278580   6.422   2.283  14.705  0.2464 -0.1766  0.4366
19030TIP3    H178581   6.506   2.255  14.743  0.2838 -0.7401 -0.0437
19030TIP3    H278582   6.447   2.350  14.641  0.3666 -0.6092  0.0288
19031TIP3   OH278583   3.003   4.870  10.841  0.6524 -0.2751  0.2458
19031TIP3    H178584   2.939   4.799  10.838 -0.6614  0.8913 -0.5940
19031TIP3    H278585   3.018   4.892  10.749 -0.8794  2.1455  0.4914
19032TIP3   OH278586   5.448   1.265   1.703 -0.8173 -0.7841  0.5550
19032TIP3    H178587   5.449   1.288   1.611 -1.7014  0.9536  0.9380
19032TIP3    H278588   5.537   1.233   1.721 -0.1104  0.4536 -0.5271
19033TIP3   OH278589   2.086   5.034  11.395  0.3229  0.2115 -0.2919
19033TIP3    H178590   2.076   4.951  11.442 -0.6541 -1.0231 -2.4936
19033TIP3    H278591   2.131   5.010  11.314  0.6957  1.9772 -0.6437
19034TIP3   OH278592   1.891   6.437  12.656  0.2020 -0.1584  0.2274
19034TIP3    H178593   1.840   6.486  12.592  1.3579  0.9923  0.1357
19034TIP3    H278594   1.826   6.403  12.718 -0.8164 -0.2641 -0.8603
19035TIP3   OH278595   3.429   4.248   6.165 -0.1428 -0.2009  0.2279
19035TIP3    H178596   3.395   4.336   6.184 -3.9407 -1.3554 -0.2411
19035TIP3    H278597   3.444   4.249   6.070 -2.9374 -0.6916 -0.3277
19036TIP3   OH278598   2.312   2.638  11.264 -0.0364  0.2102  0.1540
19036TIP3    H178599   2.398   2.674  11.241 -0.1452 -0.1714 -0.9017
19036TIP3    H278600   2.301   2.563  11.205 -1.0417  0.1795  0.3672
19037TIP3   OH278601   2.129   5.229   5.206 -0.4877  0.3443 -0.0132
19037TIP3    H178602   2.158   5.168   5.274 -0.5652  0.9162  0.5472
19037TIP3    H278603   2.137   5.180   5.125  1.1452  0.1712  0.2165
19038TIP3   OH278604   5.723   6.589   0.652 -0.3621  0.1513  0.3949
19038TIP3    H178605   5.638   6.561   0.619 -0.4660  0.6868  0.2062
19038TIP3    H278606   5.725   6.557   0.742  0.1805 -1.8791 -0.2908
19039TIP3   OH278607   2.278   5.030   4.638 -0.3910  0.4891 -0.1330
19039TIP3    H178608   2.230   5.107   4.667  1.0968  1.5028 -0.3163
19039TIP3    H278609   2.368   5.044   4.665  0.4904  0.1145 -2.5537
19040TIP3   OH278610   5.741   0.430   4.397  0.3964 -0.2624  0.1386
19040TIP3    H178611   5.762   0.457   4.307  1.1693  0.5078  0.5369
19040TIP3    H278612   5.657   0.386   4.389  1.2611 -1.8313 -1.2475
19041TIP3   OH278613   2.693   2.317  13.920 -0.4197 -0.0085  0.2665
19041TIP3    H178614   2.688   2.309  13.825  0.9658 -0.3170  0.1967
19041TIP3    H278615   2.603   2.335  13.948 -0.6521  1.2733 -1.1975
19042TIP3   OH278616   3.201   0.518   5.450 -0.6447  0.0591  0.3085
19042TIP3    H178617   3.249   0.601   5.445  0.2851 -0.2277  2.9621
19042TIP3    H278618   3.268   0.452   5.459 -1.4535 -0.7641  0.4396
19043TIP3   OH278619   3.383   4.681  11.454 -0.3532  0.2104  0.2865
19043TIP3    H178620   3.410   4.594  11.424 -1.2966  0.4030 -1.2219
19043TIP3    H278621   3.438   4.742  11.405 -0.6488  0.5013  0.3127
19044TIP3   OH278622   4.130   3.367   2.086 -0.1396  0.3502  0.3307
19044TIP3    H178623   4.065   3.329   2.145  0.6515 -0.1285  0.9313
19044TIP3    H278624   4.175   3.292   2.047 -1.2220  0.6500 -1.5852
19045TIP3   OH278625   2.229   5.977  11.445 -0.6349  0.0479  0.3757
19045TIP3    H178626   2.257   5.944  11.531 -0.9209  0.0578  0.4740
19045TIP3    H278627   2.308   5.973  11.391 -0.8535 -1.5680  0.1428
19046TIP3   OH278628   5.831   1.117  17.194  0.4018 -0.5513  0.6173
19046TIP3    H178629   5.736   1.113  17.181  0.3132 -1.9681  1.4571
19046TIP3    H278630   5.868   1.074  17.117  0.4378  0.7784 -0.1441
19047TIP3   OH278631   5.782   6.690  17.091 -0.1054  0.1165  0.9459
19047TIP3    H178632   5.733   6.634  17.030  0.0367  1.2539 -0.2403
19047TIP3    H278633   5.857   6.636  17.116  0.2573 -0.1058 -0.5019
19048TIP3   OH278634   5.661   2.959   5.495  0.6707 -0.0045  0.2055
19048TIP3    H178635   5.699   2.874   5.474 -0.0744 -0.6218  1.2237
19048TIP3    H278636   5.582   2.938   5.546 -0.1797  1.2633 -0.5302
19049TIP3   OH278637   1.433   6.289  14.780 -0.1842 -0.1867  0.1043
19049TIP3    H178638   1.494   6.315  14.710 -1.3694  2.5010 -0.0518
19049TIP3    H278639   1.375   6.225  14.739 -1.5020  2.0827 -1.8237
19050TIP3   OH278640   2.111   5.952   5.461  0.1649 -0.3689  0.3381
19050TIP3    H178641   2.025   5.913   5.441  0.5095 -1.5305  1.0065
19050TIP3    H278642   2.111   6.035   5.414 -0.6639 -1.1226 -1.0554
19051TIP3   OH278643   0.920   1.125   0.293 -0.1214 -0.1675 -0.7383
19051TIP3    H178644   0.826   1.110   0.298 -0.0342 -0.4549  0.2601
19051TIP3    H278645   0.940   1.177   0.371  0.3692  0.8778 -1.5516
19052TIP3   OH278646   6.468   0.603   0.642  0.3785  0.1642 -0.2208
19052TIP3    H178647   6.398   0.609   0.577  0.6363 -0.0531 -0.5155
19052TIP3    H278648   6.521   0.529   0.615  1.1029  0.7238 -0.3650
19053TIP3   OH278649   2.527   6.013  15.581  0.4763  0.6679 -0.2430
19053TIP3    H178650   2.563   6.028  15.493  1.7521 -1.0760 -0.0725
19053TIP3    H278651   2.432   6.014  15.568  0.6123  1.3235 -1.4590
19054TIP3   OH278652   0.187   2.284  16.419  0.1665  0.1897  0.0586
19054TIP3    H178653   0.202   2.366  16.467  1.0850 -0.3392  0.7155
19054TIP3    H278654   0.147   2.226  16.483 -0.7643  0.1948 -0.4920
19055TIP3   OH278655   1.103   5.564  16.858  0.9494  0.1752 -0.5553
19055TIP3    H178656   1.057   5.538  16.779  0.9693  0.2570 -0.5938
19055TIP3    H278657   1.189   5.594  16.828  1.7723 -1.7651 -0.3290
19056TIP3   OH278658   0.333   1.304  11.023 -0.2945  0.0626 -0.0214
19056TIP3    H178659   0.415   1.286  10.979  0.3442  0.6698  0.8744
19056TIP3    H278660   0.269   1.315  10.953 -0.3968 -3.6971 -0.7125
19057TIP3   OH278661   3.115   4.543   5.718 -0.4170  0.0931  0.2136
19057TIP3    H178662   3.136   4.574   5.806 -0.2592 -0.0011  0.2093
19057TIP3    H278663   3.022   4.519   5.723 -1.2531  2.9233 -0.4681
19058TIP3   OH278664   2.710   2.801   2.581  0.7921 -0.3460 -0.1911
19058TIP3    H178665   2.654   2.866   2.539  1.2379  0.3609  0.2838
19058TIP3    H278666   2.648   2.735   2.615  0.3625 -0.3448 -0.9570
19059TIP3   OH278667   3.312   2.369  12.871 -0.3732 -0.1617  0.1936
19059TIP3    H178668   3.289   2.377  12.964  2.0312  0.8971  0.7664
19059TIP3    H278669   3.234   2.400  12.825 -1.5579 -0.5541  1.8415
19060TIP3   OH278670   2.164   5.715  12.711 -0.3991 -0.2299  0.0933
19060TIP3    H178671   2.215   5.653  12.659 -0.6207 -1.3816  1.1979
19060TIP3    H278672   2.091   5.739  12.655 -0.2503 -0.8761 -0.3971
19061TIP3   OH278673   3.244   2.638  11.374 -0.0707 -0.2197  0.2683
19061TIP3    H178674   3.293   2.697  11.432 -1.5236  1.0159  0.3151
19061TIP3    H278675   3.246   2.682  11.289  1.8428 -1.8997 -0.6441
19062TIP3   OH278676   2.033   4.175  16.116 -0.4497  0.4652 -0.2328
19062TIP3    H178677   1.967   4.106  16.123 -0.0007 -0.0961 -1.2620
19062TIP3    H278678   2.062   4.190  16.206  0.9309 -2.1848 -0.1318
19063TIP3   OH278679   5.955   6.050  15.299 -0.5986 -0.1138 -0.1864
19063TIP3    H178680   5.867   6.052  15.261 -0.8261 -1.5723  0.1958
19063TIP3    H278681   5.965   6.134  15.343 -0.4628  1.5124 -3.1006
19064TIP3   OH278682   5.648   0.818   6.745 -0.2894  0.2433 -0.0803
19064TIP3    H178683   5.663   0.736   6.791 -0.2555 -0.2119 -0.8935
19064TIP3    H278684   5.553   0.828   6.745 -0.2778  0.3842  0.3168
19065TIP3   OH278685   3.395   1.593  17.031  0.1314  0.4616 -0.3838
19065TIP3    H178686   3.455   1.592  16.956 -0.2211 -1.3235 -0.6978
19065TIP3    H278687   3.452   1.597  17.107  0.6296 -0.2581 -0.7036
19066TIP3   OH278688   0.924   3.839   5.344  0.6302  0.5553  0.4682
19066TIP3    H178689   0.928   3.904   5.414  1.5345  0.6535  0.3442
19066TIP3    H278690   1.016   3.824   5.321  0.3332  0.9639 -1.0990
19067TIP3   OH278691   6.490   0.993  12.732  0.4527  0.2788 -0.0202
19067TIP3    H178692   6.459   0.902  12.728  0.0306  0.4159  0.1204
19067TIP3    H278693   6.416   1.045  12.700 -0.4578  0.8299  2.7214
19068TIP3   OH278694   5.147   2.841   0.509 -0.0966 -0.0674 -0.0594
19068TIP3    H178695   5.055   2.826   0.529  0.1889  0.1782  1.5834
19068TIP3    H278696   5.171   2.768   0.452 -1.4400  0.1816 -0.9832
19069TIP3   OH278697   0.297   5.514   0.879  0.0439 -0.2568  0.1970
19069TIP3    H178698   0.326   5.587   0.824  0.0603 -1.4150 -1.3795
19069TIP3    H278699   0.204   5.531   0.893 -0.0420 -0.1276 -0.4853
19070TIP3   OH278700   0.714   1.728  16.771  0.4461  0.1821 -0.8639
19070TIP3    H178701   0.660   1.671  16.826 -0.4543  1.6023 -0.2085
19070TIP3    H278702   0.651   1.778  16.719  1.2416 -0.0586 -2.0914
19071TIP3   OH278703   0.501   1.674  13.298 -0.4186  0.1225 -0.2446
19071TIP3    H178704   0.437   1.692  13.229  0.6101  0.3425 -1.1634
19071TIP3    H278705   0.487   1.581  13.319 -0.2052 -0.1633 -1.3269
19072TIP3   OH278706   5.935   2.665   5.693 -0.4012 -0.3422 -0.1101
19072TIP3    H178707   5.957   2.653   5.600 -0.5502  0.5727 -0.2708
19072TIP3    H278708   6.013   2.636   5.740 -0.6444 -1.6482 -0.4739
19073TIP3   OH278709   1.902   1.780   2.171 -0.3344 -0.0333  0.6689
19073TIP3    H178710   1.807   1.788   2.182 -0.5873 -1.4493 -0.1767
19073TIP3    H278711   1.916   1.687   2.155  1.0710  0.3166 -0.3473
19074TIP3   OH278712   4.744   6.405   3.403 -0.4661 -0.5754 -0.1851
19074TIP3    H178713   4.707   6.493   3.402 -0.3109 -0.5119 -0.7992
19074TIP3    H278714   4.669   6.347   3.395 -0.5186 -0.4760 -0.4282
19075TIP3   OH278715   1.486   6.252   2.802  0.4403 -0.7030  0.2775
19075TIP3    H178716   1.465   6.185   2.867 -1.9415 -0.2145  0.1128
19075TIP3    H278717   1.477   6.208   2.718 -1.0827 -0.2538  0.1714
19076TIP3   OH278718   4.578   2.561  11.609 -0.4172 -0.1855  0.2708
19076TIP3    H178719   4.638   2.508  11.662 -0.5437 -0.5580  0.0421
19076TIP3    H278720   4.583   2.524  11.521  1.9279  2.1299 -0.7181
19077TIP3   OH278721   3.543   1.841   3.934  0.2798  0.0678 -0.0520
19077TIP3    H178722   3.522   1.789   4.012  0.6751 -0.6229 -0.4071
19077TIP3    H278723   3.561   1.777   3.866 -0.7788  0.6622 -0.9242
19078TIP3   OH278724   1.195   1.626  15.806  0.2025  0.5101  0.4010
19078TIP3    H178725   1.115   1.586  15.841 -0.2222 -0.0915 -1.1678
19078TIP3    H278726   1.250   1.552  15.781  0.4305  0.9082 -0.3034
19079TIP3   OH278727   2.529   0.580   4.483  0.1273  0.1403  0.2850
19079TIP3    H178728   2.613   0.562   4.525  1.1412 -0.4871 -1.8628
19079TIP3    H278729   2.482   0.636   4.545  2.1635  0.5838  1.5090
19080TIP3   OH278730   5.032   0.622   5.895 -0.6594  0.3394  0.0230
19080TIP3    H178731   4.991   0.618   5.981  0.5365 -0.6667  0.5791
19080TIP3    H278732   5.050   0.715   5.881 -2.2332  0.6840  0.1713
19081TIP3   OH278733   0.283   0.675  15.926 -0.6396 -0.2053  0.1684
19081TIP3    H178734   0.302   0.697  16.017 -1.0168  0.0086  0.1917
19081TIP3    H278735   0.272   0.759  15.882 -1.1282 -0.3245  0.0633
19082TIP3   OH278736   2.797   3.494   4.930 -0.0342  0.1173 -0.2860
19082TIP3    H178737   2.862   3.443   4.977  1.3170  1.6798 -0.3756
19082TIP3    H278738   2.809   3.470   4.838 -1.9600 -2.1401 -0.0421
19083TIP3   OH278739   6.500   4.657  16.420  0.8370 -0.1042 -0.1855
19083TIP3    H178740   6.594   4.676  16.410  0.9220 -0.7902 -0.7440
19083TIP3    H278741   6.466   4.733  16.468  1.8996 -0.4055  1.1264
19084TIP3   OH278742   0.862   4.572  13.337 -0.4681  0.3875  0.0542
19084TIP3    H178743   0.902   4.516  13.270  1.2227  1.5440  0.0358
19084TIP3    H278744   0.841   4.512  13.409  0.7903 -0.3602 -0.1801
19085TIP3   OH278745   1.580   2.270  11.944  0.1205 -0.3291  0.3538
19085TIP3    H178746   1.668   2.307  11.952 -0.5222  1.3435  0.1127
19085TIP3    H278747   1.530   2.337  11.898 -1.0845 -1.6047 -0.2551
19086TIP3   OH278748   6.116   4.529   0.153 -0.4272 -0.5351  0.3322
19086TIP3    H178749   6.121   4.512   0.059  0.6452 -1.3920  0.5237
19086TIP3    H278750   6.096   4.444   0.192  1.0080 -0.6049  0.9989
19087TIP3   OH278751   1.225   6.497   4.930  0.0607  0.2258 -0.3045
19087TIP3    H178752   1.272   6.502   4.847  1.3765  1.8922  0.4764
19087TIP3    H278753   1.230   6.586   4.965 -1.1400 -0.2658  1.2075
19088TIP3   OH278754   6.431   0.772   2.733  0.1215  0.6955  0.1395
19088TIP3    H178755   6.479   0.853   2.748 -0.0367  0.8812 -0.3295
19088TIP3    H278756   6.342   0.791   2.762  0.5326  0.0309  1.9719
19089TIP3   OH278757   5.585   1.192   0.977 -0.8650 -0.4258  0.0856
19089TIP3    H178758   5.530   1.175   0.900  0.1798  1.2966 -1.1105
19089TIP3    H278759   5.665   1.142   0.960 -0.8164 -0.4129  0.2803
19090TIP3   OH278760   5.677   2.263  13.233 -0.1607 -0.0486 -0.4076
19090TIP3    H178761   5.732   2.324  13.184  0.9395 -1.5009 -1.0778
19090TIP3    H278762   5.587   2.290  13.215  0.2885  2.0238  0.2268
19091TIP3   OH278763   0.378   5.242  11.268  0.2035 -0.1847  0.4315
19091TIP3    H178764   0.398   5.286  11.351 -0.7697  0.3898  0.3680
19091TIP3    H278765   0.457   5.255  11.215  1.3639 -1.6336  1.6747
19092TIP3   OH278766   0.821   0.250  16.701  0.5349  0.8031  0.1848
19092TIP3    H178767   0.809   0.182  16.635  0.0503  1.1097 -0.0514
19092TIP3    H278768   0.868   0.207  16.772  1.3491  0.5491 -0.4881
19093TIP3   OH278769   2.061   0.696  14.791  0.5236 -0.1144 -0.3685
19093TIP3    H178770   2.133   0.642  14.825  0.0196 -0.2784  0.4549
19093TIP3    H278771   1.995   0.694  14.860 -0.0458  0.4913 -0.8889
19094TIP3   OH278772   2.506   1.270   0.484 -0.7861  0.0376  0.2394
19094TIP3    H178773   2.455   1.344   0.517  0.1043  0.9173 -0.2969
19094TIP3    H278774   2.453   1.233   0.414 -1.8756 -0.7298  1.4310
19095TIP3   OH278775   4.574   4.484   0.335 -0.3298 -0.6056 -0.5405
19095TIP3    H178776   4.638   4.533   0.284 -0.5783  1.8086  1.2624
19095TIP3    H278777   4.550   4.410   0.280  0.9600  0.6642 -2.9649
19096TIP3   OH278778   5.146   6.222   3.555 -0.0311 -0.3193 -0.3913
19096TIP3    H178779   5.226   6.241   3.604 -0.9282  1.3252  0.5234
19096TIP3    H278780   5.081   6.283   3.590 -1.6006 -1.3538 -1.3699
19097TIP3   OH278781   0.885   4.636   3.688  0.2231  0.6667  0.6490
19097TIP3    H178782   0.951   4.700   3.714 -0.4889  1.0698  1.5108
19097TIP3    H278783   0.919   4.552   3.719 -0.3323  1.0584  2.4183
19098TIP3   OH278784   3.806   1.762  13.813  0.5696 -0.8532 -0.1831
19098TIP3    H178785   3.813   1.715  13.896 -0.0642  0.9862  0.9862
19098TIP3    H278786   3.806   1.855  13.838 -3.6702 -0.1783 -1.7867
19099TIP3   OH278787   1.006   2.037   2.682  0.2280 -0.3519  0.4355
19099TIP3    H178788   1.055   2.097   2.627 -0.5808  0.1883  0.2798
19099TIP3    H278789   1.019   1.951   2.642 -1.8672  0.2602 -1.8027
19100TIP3   OH278790   4.551   0.916   3.831 -0.5988 -0.2525  0.6717
19100TIP3    H178791   4.504   0.989   3.791 -0.9409 -0.9254 -0.1971
19100TIP3    H278792   4.486   0.846   3.836 -0.0101 -0.8170  0.5518
19101TIP3   OH278793   6.290   0.866   5.222  0.3583 -0.0574  0.6555
19101TIP3    H178794   6.298   0.818   5.139  0.3527  0.5705  0.2832
19101TIP3    H278795   6.268   0.799   5.287  0.2470 -0.5381  0.1268
19102TIP3   OH278796   5.074   4.432  14.214  0.1538 -0.3020  0.1958
19102TIP3    H178797   5.073   4.354  14.159  2.1524 -0.6523  0.5846
19102TIP3    H278798   5.166   4.460  14.215 -0.2245  1.0367  1.4826
19103TIP3   OH278799   1.286   2.117  17.184 -0.2981  0.0398  0.7043
19103TIP3    H178800   1.321   2.198  17.145 -0.2165 -0.0376  0.6133
19103TIP3    H278801   1.278   2.057  17.109  1.3012 -0.6189  1.0102
19104TIP3   OH278802   2.682   5.467  13.407  0.1915  0.4311 -0.0331
19104TIP3    H178803   2.660   5.457  13.500  1.9388 -0.5567  0.3104
19104TIP3    H278804   2.644   5.389  13.365  0.7303  0.0777  0.1247
19105TIP3   OH278805   6.769   3.488  12.011  0.3104 -0.1541  0.4389
19105TIP3    H178806   6.675   3.486  12.030  0.3577  0.3180  0.7229
19105TIP3    H278807   6.775   3.465  11.919 -0.0109 -1.2191  0.6660
19106TIP3   OH278808   6.608   6.526   4.313  0.2496 -0.2981 -0.3904
19106TIP3    H178809   6.688   6.575   4.292  0.8631 -0.7915  0.7342
19106TIP3    H278810   6.634   6.434   4.304  0.1425 -0.4859  1.0903
19107TIP3   OH278811   1.165   3.138  12.535  0.5447 -0.4563 -1.4801
19107TIP3    H178812   1.230   3.135  12.605  0.1561  0.8407 -1.0193
19107TIP3    H278813   1.150   3.047  12.512  0.5115 -0.9479  0.3064
19108TIP3   OH278814   5.253   0.809   5.844 -0.3224 -0.8006 -0.2687
19108TIP3    H178815   5.277   0.771   5.928 -2.6161 -0.2946  0.6876
19108TIP3    H278816   5.337   0.827   5.801  0.9429 -0.4430  2.1738
19109TIP3   OH278817   3.407   1.925  14.077  0.2541 -0.1838  0.0408
19109TIP3    H178818   3.453   1.867  14.016 -1.5998  0.2049 -1.8435
19109TIP3    H278819   3.410   2.011  14.035  0.8259  0.5992  1.6011
19110TIP3   OH278820   1.871   6.276   2.343  0.2709 -0.4222 -0.5945
19110TIP3    H178821   1.916   6.269   2.426 -1.1980 -0.1022  0.2716
19110TIP3    H278822   1.882   6.368   2.317 -1.6395  0.2444  0.7194
19111TIP3   OH278823   0.797   6.016   0.408 -0.2335 -0.4669  0.7301
19111TIP3    H178824   0.870   5.954   0.401 -0.6803 -1.1202  1.6508
19111TIP3    H278825   0.738   5.992   0.336  1.0200  0.8751 -0.8041
19112TIP3   OH278826   2.246   0.069  14.364 -0.0627  0.0112  0.5923
19112TIP3    H178827   2.252   0.074  14.269  1.2506 -1.6683  0.5393
19112TIP3    H278828   2.178   0.003  14.381  0.5723 -0.6156  0.7693
19113TIP3   OH278829   6.305   3.759   1.657  0.0178  0.8443  1.0149
19113TIP3    H178830   6.210   3.749   1.648  0.1662  0.1719 -0.0008
19113TIP3    H278831   6.342   3.689   1.603  1.1041  2.2602 -0.1799
19114TIP3   OH278832   3.862   3.805  10.540  0.4417 -0.2217 -0.1691
19114TIP3    H178833   3.943   3.825  10.588  2.1860  0.4565 -3.1441
19114TIP3    H278834   3.890   3.747  10.470 -1.6543  0.1245 -1.3612
19115TIP3   OH278835   2.176   2.695  17.061  0.1533  0.4583 -0.1920
19115TIP3    H178836   2.154   2.683  17.154  0.1784  0.2830 -0.2097
19115TIP3    H278837   2.216   2.782  17.057  3.1264 -0.7421  0.5069
19116TIP3   OH278838   1.847   0.571  14.054  0.5428 -0.6310  0.3081
19116TIP3    H178839   1.821   0.489  14.012 -2.4755  0.4016 -0.1028
19116TIP3    H278840   1.816   0.563  14.145  1.8769 -0.6107  0.7912
19117TIP3   OH278841   3.568   4.808  12.569 -0.4662  0.2353 -1.2306
19117TIP3    H178842   3.551   4.782  12.478  0.2756  1.1660 -1.6514
19117TIP3    H278843   3.581   4.903  12.565  1.8797  0.0053 -0.5216
19118TIP3   OH278844   3.572   4.545   2.616  0.4756  0.2338  0.4616
19118TIP3    H178845   3.612   4.564   2.531  1.4888 -0.1321  0.8321
19118TIP3    H278846   3.616   4.606   2.676  0.0164  0.2496  0.7823
19119TIP3   OH278847   4.874   4.676  12.412  0.4488  0.1762  0.0779
19119TIP3    H178848   4.885   4.693  12.506  1.2857 -0.0259  0.0192
19119TIP3    H278849   4.954   4.632  12.386 -0.2386 -0.7390 -0.5147
19120TIP3   OH278850   1.180   2.863  12.490  0.9945 -0.8589 -0.5946
19120TIP3    H178851   1.250   2.872  12.555  0.3618  0.6430 -0.0897
19120TIP3    H278852   1.227   2.845  12.408  2.0526  0.7892 -0.4028
19121TIP3   OH278853   2.590   2.014  16.900  0.1555 -0.5108  0.4879
19121TIP3    H178854   2.517   1.953  16.910  0.1144 -0.4110  0.8017
19121TIP3    H278855   2.648   1.995  16.974 -0.6099  0.8616  1.4887
19122TIP3   OH278856   1.859   6.663   0.974  0.3598  0.2128  0.2694
19122TIP3    H178857   1.836   6.611   1.051 -0.3876 -0.0304 -0.1049
19122TIP3    H278858   1.788   6.728   0.967  0.2635  0.0447 -0.3787
19123TIP3   OH278859   6.122   6.578  13.965 -0.2483  0.2081 -0.4409
19123TIP3    H178860   6.134   6.485  13.945  1.0924  0.4806 -1.0198
19123TIP3    H278861   6.208   6.606  13.997 -1.5933  0.3306  3.7231
19124TIP3   OH278862   5.375   3.720   1.737 -0.2393 -0.1752 -0.2904
19124TIP3    H178863   5.426   3.800   1.729 -0.0670 -0.3187 -0.6785
19124TIP3    H278864   5.311   3.727   1.665  0.6589 -1.0200 -1.1964
19125TIP3   OH278865   3.830   3.663  16.219 -0.0827 -0.1682 -0.4159
19125TIP3    H178866   3.738   3.687  16.234  0.5355  1.1535  1.7745
19125TIP3    H278867   3.848   3.690  16.129 -2.0782 -1.4444 -1.2813
19126TIP3   OH278868   0.755   4.314  10.378  0.8682 -0.5388 -0.0472
19126TIP3    H178869   0.836   4.290  10.424  0.8530  2.6018  1.8536
19126TIP3    H278870   0.778   4.392  10.328 -1.0687  0.6461  0.8509
19127TIP3   OH278871   2.396   3.476  11.286 -0.1342 -0.2646  0.1295
19127TIP3    H178872   2.469   3.497  11.227  0.3281  0.2423  0.8580
19127TIP3    H278873   2.318   3.484  11.231  0.2188  1.0257 -0.2398
19128TIP3   OH278874   4.577   5.189  13.122 -0.0119  0.6623  0.1708
19128TIP3    H178875   4.670   5.186  13.141  0.6022  0.0982 -2.4837
19128TIP3    H278876   4.555   5.100  13.094 -0.5635  1.4462 -2.1675
19129TIP3   OH278877   0.193   5.836   0.721  0.3755 -0.1314  0.2274
19129TIP3    H178878   0.107   5.814   0.759  0.2912 -1.1030 -0.5030
19129TIP3    H278879   0.176   5.912   0.666 -0.3033 -1.1022 -0.9488
19130TIP3   OH278880   1.480   4.658  16.565  0.2233  0.0704  0.2905
19130TIP3    H178881   1.523   4.582  16.604 -0.9674 -0.5042  0.5264
19130TIP3    H278882   1.432   4.623  16.490  1.8025  1.0327 -1.2567
19131TIP3   OH278883   4.262   3.900   1.047 -0.0327 -0.4385 -0.4565
19131TIP3    H178884   4.235   3.968   0.985 -1.7831 -0.0302  0.6807
19131TIP3    H278885   4.239   3.818   1.005  0.0056 -0.2327 -0.8841
19132TIP3   OH278886   0.637   6.471   1.831 -0.0584  0.8001 -0.1054
19132TIP3    H178887   0.622   6.566   1.836  1.2038  0.9671  0.7850
19132TIP3    H278888   0.632   6.451   1.738 -0.2428  1.7503 -0.3104
19133TIP3   OH278889   5.965   5.829   3.493 -0.2942 -0.4064  0.6002
19133TIP3    H178890   5.870   5.835   3.493 -0.2377  2.1415  2.0360
19133TIP3    H278891   5.985   5.765   3.562 -0.9908  0.2155  1.4086
19134TIP3   OH278892   5.332   1.429   3.625  0.4547  0.7246 -0.2592
19134TIP3    H178893   5.271   1.496   3.593 -0.7095  0.4493  1.2600
19134TIP3    H278894   5.324   1.358   3.561  0.9043  1.5752 -1.3040
19135TIP3   OH278895   0.443   6.581  16.631  0.1814 -0.1022  0.3371
19135TIP3    H178896   0.381   6.649  16.603  0.6888  1.1943  2.1502
19135TIP3    H278897   0.401   6.541  16.708  0.4513 -1.0084  0.0272
19136TIP3   OH278898   3.842   5.371   0.881  0.4403  0.4454 -0.0004
19136TIP3    H178899   3.874   5.387   0.970 -0.9732 -1.1399  0.8432
19136TIP3    H278900   3.768   5.431   0.871 -0.1880 -0.2523  0.3818
19137TIP3   OH278901   1.795   4.806  15.893  0.2996 -0.3424  0.0909
19137TIP3    H178902   1.729   4.790  15.825  0.9567 -3.6642  0.0869
19137TIP3    H278903   1.856   4.734  15.885  2.1145  0.8187  2.2995
19138TIP3   OH278904   1.618   3.422   5.566  0.2469 -0.3261 -0.1560
19138TIP3    H178905   1.555   3.433   5.495  0.1198  0.5059  0.0657
19138TIP3    H278906   1.581   3.353   5.621 -1.4923  1.3889  0.9876
19139TIP3   OH278907   4.082   4.670  12.801 -0.1712 -0.0486 -0.6019
19139TIP3    H178908   4.029   4.700  12.727 -1.8026  0.5969  0.7688
19139TIP3    H278909   4.139   4.603  12.763 -1.8966 -0.7217 -2.1826
19140TIP3   OH278910   3.399   3.700  16.392 -0.1991 -0.5622  0.2872
19140TIP3    H178911   3.326   3.709  16.330  0.6075 -1.2617 -0.8062
19140TIP3    H278912   3.385   3.615  16.434  0.0910 -0.7954 -0.0807
19141TIP3   OH278913   2.042   2.980   0.309 -0.2093  0.7035 -0.2284
19141TIP3    H178914   1.950   2.954   0.321 -0.0594  0.7711  1.3045
19141TIP3    H278915   2.091   2.899   0.321  0.1334  1.2215  2.7302
19142TIP3   OH278916   3.020   3.267  11.245 -0.1580  0.3080  0.4637
19142TIP3    H178917   3.070   3.303  11.172 -0.8033  0.9816  0.3448
19142TIP3    H278918   2.984   3.185  11.212  1.2667 -0.4506  0.7131
19143TIP3   OH278919   4.308   2.864  13.578 -0.2130  0.2085  0.1393
19143TIP3    H178920   4.250   2.822  13.515  0.3735  0.8600 -0.8867
19143TIP3    H278921   4.381   2.803  13.588 -0.5722 -0.1445  0.6223
19144TIP3   OH278922   4.811   1.096   4.898  0.2712 -0.4386 -0.1223
19144TIP3    H178923   4.885   1.116   4.841  0.3570  1.5789  0.6029
19144TIP3    H278924   4.842   1.026   4.955  1.0516 -0.7100 -0.8682
19145TIP3   OH278925   4.218   2.782   1.005 -0.2580  0.2762 -0.3858
19145TIP3    H178926   4.143   2.743   0.959  0.3167 -1.4648  0.0547
19145TIP3    H278927   4.267   2.827   0.937 -0.6697 -0.2711 -1.0607
19146TIP3   OH278928   1.372   1.940  16.068 -0.1094  0.0808  0.0379
19146TIP3    H178929   1.304   1.890  16.023  0.2587 -1.2101  0.8627
19146TIP3    H278930   1.452   1.888  16.056 -0.1489 -0.7766  2.8397
19147TIP3   OH278931   2.876   0.511   0.677  0.0414  0.1373 -0.0680
19147TIP3    H178932   2.847   0.452   0.608  0.8801 -0.4966  0.0955
19147TIP3    H278933   2.819   0.491   0.752  0.5264 -0.7185  0.0908
19148TIP3   OH278934   4.212   0.006   3.050 -0.4699 -0.0309  0.7045
19148TIP3    H178935   4.168   0.074   2.999 -0.7631 -1.5662 -1.2051
19148TIP3    H278936   4.294   0.047   3.078  0.8683  0.2913 -3.0272
19149TIP3   OH278937   5.253   0.758  13.407 -0.0543 -0.1894  0.0862
19149TIP3    H178938   5.307   0.793  13.477 -0.6160  1.0635 -0.0747
19149TIP3    H278939   5.165   0.755  13.444 -0.6229  1.7917 -0.9251
19150TIP3   OH278940   5.102   5.119  15.685 -0.1483 -0.0788  0.1044
19150TIP3    H178941   5.071   5.188  15.743  0.6572  0.2511  0.1573
19150TIP3    H278942   5.076   5.147  15.597 -1.9076 -0.8731  0.3369
19151TIP3   OH278943   0.133   0.143   4.215 -0.2515 -0.0861  0.3759
19151TIP3    H178944   0.150   0.225   4.261  2.4359 -0.4860  0.2286
19151TIP3    H278945   0.103   0.170   4.128 -0.9551  0.6818  0.8354
19152TIP3   OH278946   3.634   3.241   4.251 -0.4884 -0.9688  0.4534
19152TIP3    H178947   3.653   3.167   4.309  0.2512 -1.4241 -0.3479
19152TIP3    H278948   3.719   3.285   4.241 -1.1942  0.9077  2.1380
19153TIP3   OH278949   2.802   5.123  13.470  0.3145 -0.5853  0.0103
19153TIP3    H178950   2.868   5.086  13.412 -0.4392 -1.0270 -0.5769
19153TIP3    H278951   2.845   5.198  13.511  1.1688 -0.8575 -0.3784
19154TIP3   OH278952   1.840   6.665   3.611  0.1507  0.0971  0.1888
19154TIP3    H178953   1.869   6.686   3.700 -0.8000 -0.5850  0.6759
19154TIP3    H278954   1.746   6.651   3.620 -0.4290  2.4753 -1.3787
19155TIP3   OH278955   2.712   3.834   0.566  0.5125 -0.2112  0.6074
19155TIP3    H178956   2.748   3.854   0.480 -2.0273 -0.5341 -0.6180
19155TIP3    H278957   2.706   3.738   0.569 -0.7662 -0.1591  0.4927
19156TIP3   OH278958   1.250   2.802  13.324 -0.2298 -0.1716 -0.0738
19156TIP3    H178959   1.220   2.893  13.321 -1.6233 -0.3982  2.8979
19156TIP3    H278960   1.253   2.774  13.233 -0.9962  2.4626 -0.9938
19157TIP3   OH278961   0.303   6.777   6.497 -0.4222  0.4235 -0.1532
19157TIP3    H178962   0.269   6.729   6.573 -0.4523 -1.3313 -1.2031
19157TIP3    H278963   0.381   6.728   6.471  0.9412  2.3585  0.0954
19158TIP3   OH278964   2.026   2.781  13.313  0.4768 -0.1334 -0.0029
19158TIP3    H178965   1.953   2.820  13.267 -0.0194  0.4102  1.2105
19158TIP3    H278966   1.989   2.704  13.357  0.6688  0.0389  0.4684
19159TIP3   OH278967   4.085   3.725   1.461 -0.0718 -0.2339 -0.6407
19159TIP3    H178968   4.143   3.688   1.528 -0.9337 -0.5960 -0.0717
19159TIP3    H278969   4.143   3.779   1.406  1.0587 -1.7362 -0.9804
19160TIP3   OH278970   1.832   1.896   6.038 -0.5634  0.4181  0.1457
19160TIP3    H178971   1.865   1.806   6.032 -2.1697 -0.1006 -1.9153
19160TIP3    H278972   1.906   1.946   6.073  0.7748 -1.4816  0.1788
19161TIP3   OH278973   1.999   0.381  16.337 -0.1926 -0.0683 -0.6767
19161TIP3    H178974   2.060   0.316  16.372 -0.0241  0.1094 -0.6416
19161TIP3    H278975   1.919   0.368  16.388  0.5403  1.2351  0.8636
19162TIP3   OH278976   6.294   3.239   6.018  0.7482 -0.4114  0.8173
19162TIP3    H178977   6.252   3.179   5.956  0.6906  1.0802 -0.6408
19162TIP3    H278978   6.279   3.198   6.104 -1.1640 -1.3933  0.0776
19163TIP3   OH278979   3.331   2.142  12.707  0.5566 -0.4136  0.3389
19163TIP3    H178980   3.418   2.103  12.713  1.3011  1.1266  0.1171
19163TIP3    H278981   3.330   2.211  12.773  0.2104  0.8508 -0.9396
19164TIP3   OH278982   1.141   5.417   0.600 -0.3498  1.0538 -0.5712
19164TIP3    H178983   1.164   5.402   0.508 -0.5592  0.5223 -0.5381
19164TIP3    H278984   1.062   5.366   0.614  0.6835 -0.3418  0.3966
19165TIP3   OH278985   0.109   2.879   2.885  0.1888  0.5660 -0.6944
19165TIP3    H178986   0.143   2.947   2.943 -0.7673  0.1353  0.4147
19165TIP3    H278987   0.015   2.878   2.902  0.4091 -2.6885  1.2464
19166TIP3   OH278988   4.336   0.732  14.752  0.0117 -0.1486  0.5809
19166TIP3    H178989   4.402   0.663  14.757  0.7498  0.5066  0.0275
19166TIP3    H278990   4.252   0.686  14.758  0.4625 -1.2140 -0.8259
19167TIP3   OH278991   6.355   6.386  13.707  0.3303 -0.1792 -0.2108
19167TIP3    H178992   6.260   6.390  13.697  0.4446  0.3555 -1.1342
19167TIP3    H278993   6.368   6.333  13.786 -0.7249 -0.4382 -0.1939
19168TIP3   OH278994   5.237   1.375  15.160  0.0128 -0.3441  0.3687
19168TIP3    H178995   5.168   1.416  15.109  1.9244  1.5173 -0.8537
19168TIP3    H278996   5.255   1.437  15.231 -0.9676 -1.8017  1.9626
19169TIP3   OH278997   0.698   2.101  12.235 -0.1062  0.5047 -0.3022
19169TIP3    H178998   0.667   2.011  12.241  2.0062 -0.3088 -0.9079
19169TIP3    H278999   0.679   2.139  12.322 -1.1028 -0.4675 -0.0773
19170TIP3   OH279000   3.022   5.652  16.203 -0.2215  0.3309 -0.5026
19170TIP3    H179001   2.945   5.709  16.202  0.7701  1.7568  0.0587
19170TIP3    H279002   3.020   5.609  16.288 -0.4390  0.3183 -0.5150
19171TIP3   OH279003   1.813   5.752  16.530 -0.3441  0.1301  0.2078
19171TIP3    H179004   1.764   5.763  16.449  0.6248 -1.0837 -0.5780
19171TIP3    H279005   1.841   5.660  16.529  1.3327  0.5973  0.9593
19172TIP3   OH279006   5.199   1.325  16.752 -0.4358 -0.3208  0.0011
19172TIP3    H179007   5.278   1.343  16.701 -0.8796  1.5044 -0.1165
19172TIP3    H279008   5.225   1.343  16.842 -0.0211 -2.2756  0.3159
19173TIP3   OH279009   2.104   3.606  11.797 -0.8607 -0.7620  0.3982
19173TIP3    H179010   2.181   3.651  11.761 -2.2365  0.7395 -0.8236
19173TIP3    H279011   2.087   3.650  11.880 -1.9984  0.8767 -0.6364
19174TIP3   OH279012   3.381   1.990  12.124 -0.0281  0.2724  0.0767
19174TIP3    H179013   3.414   1.902  12.104 -1.9755 -0.7258  0.9508
19174TIP3    H279014   3.457   2.037  12.160  0.8008 -1.3939  0.6054
19175TIP3   OH279015   0.936   6.118   4.951 -0.2599  0.2825 -0.4410
19175TIP3    H179016   0.957   6.068   4.872  0.3578  0.6580 -0.5191
19175TIP3    H279017   0.918   6.207   4.919  0.6442  0.6002 -0.1051
19176TIP3   OH279018   3.201   0.731  16.425 -0.0517  0.3121 -0.1949
19176TIP3    H179019   3.240   0.747  16.511 -1.5676 -0.8475  0.7530
19176TIP3    H279020   3.226   0.641  16.404 -1.7163 -0.2696  0.1939
19177TIP3   OH279021   6.200   4.392   0.479 -0.1145 -0.2484 -0.0764
19177TIP3    H179022   6.286   4.407   0.439 -0.2105  1.3452  0.2271
19177TIP3    H279023   6.143   4.370   0.405  0.0219  1.2594 -0.6831
19178TIP3   OH279024   0.734   1.148   0.823  0.3860 -0.0651 -0.0456
19178TIP3    H179025   0.694   1.081   0.768  1.7899  0.7098 -2.1732
19178TIP3    H279026   0.809   1.106   0.863  0.2696 -0.2058  0.0258
19179TIP3   OH279027   5.141   1.575  12.914  0.2645  0.1923 -0.3653
19179TIP3    H179028   5.055   1.590  12.874 -0.5439 -1.2811  0.7328
19179TIP3    H279029   5.137   1.622  12.998  0.7495  0.5633 -0.5421
19180TIP3   OH279030   1.306   5.626  16.051  0.2945 -0.3288 -0.4939
19180TIP3    H179031   1.287   5.605  15.959  0.7706 -1.0402 -0.4352
19180TIP3    H279032   1.296   5.543  16.097 -1.4039  0.3013  0.3647
19181TIP3   OH279033   0.670   3.424   4.794  0.3186  0.0641  0.4307
19181TIP3    H179034   0.761   3.451   4.777  0.4980 -0.2854  0.8361
19181TIP3    H279035   0.678   3.348   4.852 -0.2263 -0.1555  0.2160
19182TIP3   OH279036   4.547   3.246  16.574  0.5471  0.1056  0.1279
19182TIP3    H179037   4.620   3.218  16.518  0.9202  1.6791 -0.2208
19182TIP3    H279038   4.545   3.182  16.645  3.4706  1.0018  1.1546
19183TIP3   OH279039   6.017   4.708   2.826 -0.4839  0.2580 -0.4843
19183TIP3    H179040   5.968   4.788   2.845 -1.2797 -0.3515  0.1278
19183TIP3    H279041   6.105   4.738   2.805 -0.1767  1.2072  1.8208
19184TIP3   OH279042   6.755   0.075  12.325  0.0701 -0.0885 -0.3119
19184TIP3    H179043   6.666   0.042  12.343  0.0029 -2.1572 -3.6444
19184TIP3    H279044   6.808  -0.004  12.319  3.4102  1.0723  5.8086
19185TIP3   OH279045   0.961   0.491  14.427 -0.3585  0.4167 -0.0984
19185TIP3    H179046   0.968   0.554  14.499  0.6943 -0.9738  1.0660
19185TIP3    H279047   0.958   0.546  14.348 -1.9281  2.0127  0.9577
19186TIP3   OH279048   6.413   2.950   1.616 -0.1721 -0.6122  0.1436
19186TIP3    H179049   6.370   2.865   1.619 -0.2110 -0.5868  0.3138
19186TIP3    H279050   6.349   3.009   1.577 -0.2154 -0.6191  0.2047
19187TIP3   OH279051   2.462   0.676   3.795 -0.1097  0.0863  0.1590
19187TIP3    H179052   2.423   0.700   3.879 -0.8772 -0.0961 -0.1298
19187TIP3    H279053   2.545   0.723   3.792 -0.0659  0.0735  1.0285
19188TIP3   OH279054   2.919   0.903   3.263 -0.4893  0.0859 -0.0079
19188TIP3    H179055   2.918   0.852   3.182 -0.7545  0.2924 -0.1378
19188TIP3    H279056   3.007   0.892   3.297 -0.0245  0.8843 -0.9006
19189TIP3   OH279057   1.646   4.963  10.510  0.3081 -0.4695  0.2174
19189TIP3    H179058   1.685   5.044  10.543 -1.8379  0.3367  0.9677
19189TIP3    H279059   1.667   4.898  10.576 -0.8622  0.3108  1.4112
19190TIP3   OH279060   5.833   2.110   3.379 -0.1606 -0.2506 -0.2649
19190TIP3    H179061   5.764   2.116   3.313  0.1870 -1.9958 -0.8397
19190TIP3    H279062   5.854   2.201   3.400  0.3367  0.4309 -3.2409
19191TIP3   OH279063   2.488   2.390  17.223  0.2687  0.2189 -0.9832
19191TIP3    H179064   2.428   2.399  17.150  0.6969  2.7417 -1.1012
19191TIP3    H279065   2.571   2.362  17.184 -0.0555 -0.4924 -1.1709
19192TIP3   OH279066   4.500   1.184  11.677 -0.5327 -0.2775 -0.0177
19192TIP3    H179067   4.523   1.143  11.594 -0.6233  0.6785 -0.5294
19192TIP3    H279068   4.450   1.117  11.724  1.1340 -1.5077  0.0832
19193TIP3   OH279069   5.447   4.992   4.200 -0.1833  0.0691  0.0878
19193TIP3    H179070   5.443   5.063   4.264 -0.5870  2.2599 -2.2014
19193TIP3    H279071   5.539   4.967   4.197  0.2052  1.4242  0.0376
19194TIP3   OH279072   6.459   6.096   6.541  0.2047 -0.0037 -1.0082
19194TIP3    H179073   6.424   6.082   6.629  1.9075 -0.5672 -0.3649
19194TIP3    H279074   6.531   6.158   6.555  0.3833  0.0338 -2.0439
19195TIP3   OH279075   1.291   2.517   2.856  0.0222  0.5081  0.1894
19195TIP3    H179076   1.252   2.577   2.792  0.2591  0.5208  0.0554
19195TIP3    H279077   1.235   2.524   2.933 -0.4638  0.2431 -0.1298
19196TIP3   OH279078   6.660   3.513  15.643  0.1654  0.2153  0.4309
19196TIP3    H179079   6.736   3.456  15.628 -0.5111 -0.6297  0.1349
19196TIP3    H279080   6.596   3.484  15.579 -0.0085  1.6993 -0.1084
19197TIP3   OH279081   2.737   4.817  15.378 -0.0847  0.3692  0.5617
19197TIP3    H179082   2.718   4.902  15.339 -1.1756  0.0100  0.2724
19197TIP3    H279083   2.657   4.794  15.425  0.3621 -0.2971  1.0147
19198TIP3   OH279084   0.160   4.679  16.867 -0.8261 -0.5516  0.0480
19198TIP3    H179085   0.078   4.717  16.835 -0.9439 -0.1364  0.8239
19198TIP3    H279086   0.145   4.664  16.960  0.4325  0.7756  0.5044
19199TIP3   OH279087   6.059   0.435  15.068 -0.3284 -1.1472  0.2911
19199TIP3    H179088   6.107   0.415  14.988 -2.4899 -0.7001 -1.2039
19199TIP3    H279089   6.122   0.483  15.122  0.4095  1.1377 -2.3585
19200TIP3   OH279090   0.169   0.610   5.354 -0.3702 -0.2913  0.0420
19200TIP3    H179091   0.147   0.519   5.332 -0.6364 -0.4042  0.7211
19200TIP3    H279092   0.088   0.644   5.393 -0.0224 -0.0170  0.5309
19201TIP3   OH279093   1.484   5.016  15.345  0.1944 -0.3739 -0.7927
19201TIP3    H179094   1.534   5.097  15.342 -0.0621 -0.1064  0.8325
19201TIP3    H279095   1.440   5.019  15.430 -2.5429 -0.6159 -2.0917
19202TIP3   OH279096   1.991   5.819  14.766 -0.8743  0.0625 -0.0593
19202TIP3    H179097   1.959   5.759  14.699  1.9896 -0.0753 -1.4318
19202TIP3    H279098   2.002   5.765  14.844 -0.9774 -0.5484 -0.4665
19203TIP3   OH279099   4.968   3.939  14.850  0.3134 -0.5641  0.6239
19203TIP3    H179100   4.979   3.987  14.768  0.5680 -1.6293  0.0167
19203TIP3    H279101   4.918   3.861  14.825 -1.5921  0.1624  1.8752
19204TIP3   OH279102   0.486   5.337  16.315  0.2137 -0.0169 -0.7779
19204TIP3    H179103   0.418   5.294  16.367  0.6782 -1.0244 -0.9906
19204TIP3    H279104   0.492   5.425  16.353  1.0804 -0.9660  1.4100
19205TIP3   OH279105   1.406   4.616   4.980 -0.3043  0.2803  0.2588
19205TIP3    H179106   1.394   4.556   4.906 -0.2206 -0.5310  0.8858
19205TIP3    H279107   1.495   4.597   5.011 -0.5426  0.2115  0.9140
19206TIP3   OH279108   4.696   0.740  15.594 -0.2056 -0.3570 -0.4817
19206TIP3    H179109   4.618   0.748  15.538 -1.9868 -0.8468  1.7836
19206TIP3    H279110   4.694   0.650  15.624  1.4726 -0.4630 -0.6439
19207TIP3   OH279111   1.086   1.299   4.077 -0.2278  0.6971  0.3484
19207TIP3    H179112   1.003   1.252   4.082 -0.4625  1.1991  1.9656
19207TIP3    H279113   1.076   1.360   4.004 -1.0165  0.2729  0.0997
19208TIP3   OH279114   2.960   5.540   3.522 -0.0266  0.6545  0.2961
19208TIP3    H179115   2.933   5.631   3.505  1.8257  1.0256 -0.8918
19208TIP3    H279116   3.044   5.548   3.566  0.2719 -0.5097 -0.0355
19209TIP3   OH279117   4.837   6.449   1.827 -0.5374  0.4403  0.0995
19209TIP3    H179118   4.893   6.399   1.887 -0.3773 -2.0125 -1.9303
19209TIP3    H279119   4.852   6.410   1.741 -1.1648  3.4603 -1.5191
19210TIP3   OH279120   4.906   5.906  13.670 -0.0922 -0.0613  0.3238
19210TIP3    H179121   4.814   5.884  13.653 -0.4357  0.9558  0.7859
19210TIP3    H279122   4.954   5.867  13.597 -0.8623 -0.8114  0.2071
19211TIP3   OH279123   6.149   0.709   2.514  0.1853  0.0539  0.5461
19211TIP3    H179124   6.103   0.705   2.430  1.5973  1.4253 -0.3264
19211TIP3    H279125   6.242   0.704   2.492  0.6619  2.0413  1.8709
19212TIP3   OH279126   4.982   3.759   4.965 -0.0973 -0.2434 -0.2529
19212TIP3    H179127   5.070   3.744   5.002  0.2197 -0.6423 -1.1440
19212TIP3    H279128   4.923   3.718   5.028  0.3129  0.4041  0.5850
19213TIP3   OH279129   1.332   2.720   2.504 -0.0222  0.0413  0.1056
19213TIP3    H179130   1.425   2.744   2.505 -0.1155  0.4250 -0.1030
19213TIP3    H279131   1.324   2.657   2.432  0.0433  0.1509  0.0015
19214TIP3   OH279132   4.987   1.217   2.121  0.4041 -0.4837  0.6030
19214TIP3    H179133   4.906   1.188   2.079  0.5149 -2.7540  1.7979
19214TIP3    H279134   4.960   1.289   2.177 -0.6531 -0.6609  0.3505
19215TIP3   OH279135   0.125   3.925   1.637  0.2946 -0.6032 -0.3058
19215TIP3    H179136   0.071   3.939   1.714  0.4314  1.6845 -0.5514
19215TIP3    H279137   0.212   3.958   1.662  0.7610 -1.3029 -0.9424
19216TIP3   OH279138   6.187   1.018   1.084 -0.5955 -0.7795  0.3320
19216TIP3    H179139   6.244   0.988   1.155  0.6799  0.3816 -0.1674
19216TIP3    H279140   6.155   1.103   1.113 -1.0474 -0.8477  0.0366
19217TIP3   OH279141   1.916   6.425   5.475 -0.5639 -0.0943  0.2252
19217TIP3    H179142   1.901   6.340   5.516 -4.6128 -0.1931 -1.0884
19217TIP3    H279143   1.890   6.489   5.541 -0.1152  0.0332  0.2814
19218TIP3   OH279144   3.628   0.862   0.399  0.0967  0.2510  0.1594
19218TIP3    H179145   3.683   0.865   0.321  1.5254 -0.8296  1.0466
19218TIP3    H279146   3.545   0.900   0.373  1.3886  2.3607 -1.1581
19219TIP3   OH279147   5.652   4.737   5.881 -0.0933 -0.5214  0.3351
19219TIP3    H179148   5.687   4.729   5.970  0.6139 -0.4208  0.0708
19219TIP3    H279149   5.563   4.771   5.893  0.2702  0.2291  0.9580
19220TIP3   OH279150   0.353   1.998   2.397  0.2438  0.1191 -0.4096
19220TIP3    H179151   0.285   1.931   2.399  1.1107 -0.8040 -1.1041
19220TIP3    H279152   0.305   2.079   2.380 -0.5906 -0.6566 -1.9890
19221TIP3   OH279153   0.323   0.978   2.320  0.2774  0.0406 -0.2791
19221TIP3    H179154   0.370   0.956   2.240 -0.2346  1.1860 -0.9271
19221TIP3    H279155   0.388   1.021   2.376  0.9372 -1.8192  0.4439
19222TIP3   OH279156   1.581   5.818  12.816  0.9117 -0.7518  0.0714
19222TIP3    H179157   1.566   5.867  12.897  0.3019  0.7252 -0.8862
19222TIP3    H279158   1.517   5.747  12.819 -0.2582  0.2669  0.1540
19223TIP3   OH279159   0.116   6.741   3.749  0.1556 -0.2430 -0.6813
19223TIP3    H179160   0.047   6.711   3.808  1.3138  0.7498  1.3076
19223TIP3    H279161   0.188   6.678   3.762  0.7039  0.4211 -0.4192
19224TIP3   OH279162   4.565   4.910   6.094  0.0394 -0.1907 -1.3880
19224TIP3    H179163   4.493   4.967   6.121 -1.7471 -1.3117 -3.3895
19224TIP3    H279164   4.548   4.828   6.141  1.1899  0.1373 -0.3674
19225TIP3   OH279165   1.667   5.915   2.674  0.1405 -0.3123  0.2026
19225TIP3    H179166   1.697   5.955   2.592  1.0336  0.7582  1.0039
19225TIP3    H279167   1.579   5.949   2.686 -0.2615 -1.0118 -0.6311
19226TIP3   OH279168   0.364   4.841  13.808  0.7369  0.3166 -0.5311
19226TIP3    H179169   0.417   4.914  13.839  0.6931 -0.5052  1.6706
19226TIP3    H279170   0.319   4.874  13.731  4.3141  1.1012 -2.5017
19227TIP3   OH279171   2.216   1.239  16.345 -0.2060  0.2674  0.0446
19227TIP3    H179172   2.152   1.261  16.277 -0.1430  0.2020 -0.0362
19227TIP3    H279173   2.224   1.144  16.340 -1.5072  0.0562  1.3205
19228TIP3   OH279174   6.475   1.375   5.488 -0.0653  0.1224 -0.6832
19228TIP3    H179175   6.390   1.339   5.462  1.1610 -1.8952 -2.1265
19228TIP3    H279176   6.471   1.377   5.584 -1.1122 -1.5890 -0.6450
19229TIP3   OH279177   1.117   1.797   2.604  0.1631 -0.3410 -0.5820
19229TIP3    H179178   1.161   1.852   2.669 -0.3724 -0.1668 -0.3623
19229TIP3    H279179   1.077   1.727   2.656 -0.8316  0.1626 -0.6380
19230TIP3   OH279180   2.940   2.895  15.592 -0.3512 -0.1619 -0.7677
19230TIP3    H179181   2.979   2.811  15.616 -1.1133 -0.5018 -0.6975
19230TIP3    H279182   3.007   2.959  15.615 -0.4165 -0.5965  0.7750
19231TIP3   OH279183   3.280   3.739   0.873  0.3743 -0.3743 -0.0803
19231TIP3    H179184   3.278   3.684   0.951 -1.0265 -1.1238 -0.6110
19231TIP3    H279185   3.188   3.756   0.852  0.7168 -0.0793 -1.4935
19232TIP3   OH279186   6.785   2.929  15.708 -0.1836 -0.3701 -0.3309
19232TIP3    H179187   6.859   2.877  15.677 -0.3193 -0.8317  0.1206
19232TIP3    H279188   6.825   2.996  15.764 -0.2311 -1.5081  1.0938
19233TIP3   OH279189   2.163   1.133  13.509 -0.6917  0.2711  0.4859
19233TIP3    H179190   2.128   1.133  13.598 -0.3480 -1.6983  0.6701
19233TIP3    H279191   2.258   1.129  13.522 -0.5359  1.7984 -0.0032
19234TIP3   OH279192   4.041   0.423  16.126  0.3021  0.4408 -0.0519
19234TIP3    H179193   3.996   0.441  16.044  3.3113  2.1867 -1.4974
19234TIP3    H279194   4.107   0.358  16.104 -0.2788 -0.7687  1.5789
19235TIP3   OH279195   3.760   0.449  13.843  0.7306  0.6707  0.2777
19235TIP3    H179196   3.760   0.544  13.836  0.4631  0.7403  1.1414
19235TIP3    H279197   3.772   0.431  13.936 -1.5423 -0.0944  0.4842
19236TIP3   OH279198   3.985   1.680  16.724  0.0518  1.0625  0.1824
19236TIP3    H179199   3.922   1.681  16.651 -1.0569  1.5854  1.1097
19236TIP3    H279200   3.988   1.771  16.754  0.5918  0.8780  0.7051
19237TIP3   OH279201   4.589   5.273   1.861  0.0150  0.5738 -0.5036
19237TIP3    H179202   4.565   5.352   1.814 -0.7389  0.5670 -0.1406
19237TIP3    H279203   4.522   5.264   1.929  0.7412  0.2522  0.1846
19238TIP3   OH279204   3.799   3.854  13.625 -0.2880  0.9361  0.6568
19238TIP3    H179205   3.712   3.823  13.652  0.8005 -2.0255  1.0685
19238TIP3    H279206   3.811   3.819  13.537 -0.0380  2.5879 -0.0049
19239TIP3   OH279207   3.686   3.329   4.626 -0.8386  0.0755  0.0268
19239TIP3    H179208   3.681   3.415   4.583 -0.3989 -0.6020 -1.4330
19239TIP3    H279209   3.730   3.346   4.709 -1.1669  1.3371 -0.0409
19240TIP3   OH279210   6.825   1.659  13.248 -0.5819  0.1027  0.4069
19240TIP3    H179211   6.752   1.714  13.276 -1.0195  0.0583 -0.6017
19240TIP3    H279212   6.802   1.571  13.279 -0.0250  0.4123  1.7571
19241TIP3   OH279213   0.001   3.539   0.601 -0.8860  0.7570  0.6143
19241TIP3    H179214  -0.043   3.472   0.549 -0.9797  0.3791  1.1766
19241TIP3    H279215   0.022   3.609   0.538 -0.8407  0.2309  0.0401
19242TIP3   OH279216   5.075   3.808  15.144  0.8692 -0.1245  0.3677
19242TIP3    H179217   4.980   3.819  15.145  0.9414  0.6177  1.3891
19242TIP3    H279218   5.095   3.763  15.225  1.4331  0.2273  0.4330
19243TIP3   OH279219   4.960   5.963   4.972 -0.0270  0.2239  0.0901
19243TIP3    H179220   4.894   5.932   5.034  1.0945  0.3595  1.4005
19243TIP3    H279221   5.000   6.039   5.016 -0.2956  1.3419 -1.5059
19244TIP3   OH279222   5.235   3.480  14.391  0.2487 -0.1199 -0.0950
19244TIP3    H179223   5.298   3.420  14.350  0.6384 -0.6685  1.2478
19244TIP3    H279224   5.153   3.465  14.344  0.5132 -1.2005 -0.2370
19245TIP3   OH279225   2.068   4.737  11.152  1.0020 -0.1461 -0.5429
19245TIP3    H179226   1.976   4.763  11.161  1.4089  0.7285  2.3305
19245TIP3    H279227   2.116   4.819  11.145  1.5664 -0.6187 -2.7070
19246TIP3   OH279228   4.184   4.022   1.579  0.2060  0.2664 -0.2792
19246TIP3    H179229   4.209   4.114   1.576 -0.1106  0.3571 -0.1490
19246TIP3    H279230   4.226   3.983   1.502 -2.3941  1.2159 -2.3593
19247TIP3   OH279231   3.908   3.525   1.746 -0.0030  0.1683  0.9097
19247TIP3    H179232   3.852   3.485   1.813  0.8212 -0.0931  1.4549
19247TIP3    H279233   3.974   3.459   1.728 -0.5041  0.0386 -0.5452
19248TIP3   OH279234   5.806   2.721  11.329 -0.0385  0.3159 -0.1285
19248TIP3    H179235   5.895   2.732  11.296 -0.0217  1.0302  0.1458
19248TIP3    H279236   5.752   2.716  11.250  0.1778  0.5011 -0.2906
19249TIP3   OH279237   6.292   0.804  10.831 -0.2074 -0.2372  0.4472
19249TIP3    H179238   6.369   0.845  10.870 -1.4134 -0.0173  2.7947
19249TIP3    H279239   6.293   0.833  10.739  2.3963 -0.1716  0.4360
19250TIP3   OH279240   6.449   0.023   1.180  0.9590 -0.0227 -0.0236
19250TIP3    H179241   6.458   0.031   1.085  1.6779  1.9385  0.1753
19250TIP3    H279242   6.360   0.052   1.198  0.6877 -0.7696 -0.1121
19251TIP3   OH279243   0.743   1.051   5.218  0.5780  0.0611  0.2314
19251TIP3    H179244   0.791   0.982   5.172  0.6182  0.0075  0.3527
19251TIP3    H279245   0.684   1.004   5.277  1.5246  0.1236  1.2718
19252TIP3   OH279246   0.278   6.231  16.240 -0.0775  0.3521 -0.6815
19252TIP3    H179247   0.263   6.315  16.198 -1.6062  0.4993  0.1080
19252TIP3    H279248   0.191   6.192  16.250  0.3312 -0.1619  1.3114
19253TIP3   OH279249   5.560   6.340  14.361 -0.2725 -0.0640 -0.3289
19253TIP3    H179250   5.499   6.311  14.293  0.1590  0.3781 -0.9078
19253TIP3    H279251   5.625   6.269  14.366  1.0332  0.9311 -2.0563
19254TIP3   OH279252   4.273   5.935  11.589 -0.8118  0.2526 -0.0219
19254TIP3    H179253   4.326   5.995  11.641 -1.4467  1.4242 -0.7036
19254TIP3    H279254   4.259   5.859  11.646 -0.0872  0.7887  0.8799
19255TIP3   OH279255   0.910   2.180   4.430  1.1507  0.1302 -0.0115
19255TIP3    H179256   0.932   2.270   4.452 -1.1123  0.5064  1.0071
19255TIP3    H279257   0.876   2.184   4.341 -0.9722  0.7413  0.7548
19256TIP3   OH279258   6.433   4.907   4.617  0.1600 -0.0689  0.1595
19256TIP3    H179259   6.348   4.892   4.575 -0.3242  2.0773  0.2297
19256TIP3    H279260   6.495   4.915   4.545 -0.2469  1.2316 -0.0706
19257TIP3   OH279261   1.818   5.192   3.802 -0.3626  0.0217 -0.1277
19257TIP3    H179262   1.907   5.178   3.771 -0.4890  0.6741 -0.8063
19257TIP3    H279263   1.763   5.152   3.735 -0.5832 -2.5656  1.4284
19258TIP3   OH279264   0.539   2.820  14.201 -0.1219  0.3250  0.5845
19258TIP3    H179265   0.458   2.871  14.205  0.0017  0.7005 -0.8615
19258TIP3    H279266   0.606   2.879  14.236 -0.5218 -0.1615  2.2348
19259TIP3   OH279267   0.915   1.617   3.050 -0.3333  0.7891  0.6247
19259TIP3    H179268   0.923   1.574   3.135  2.9471 -1.3229 -0.5647
19259TIP3    H279269   0.947   1.706   3.065  0.2807  0.4160  1.6045
19260TIP3   OH279270   3.203   6.690   3.679  0.0102 -0.2875 -0.0124
19260TIP3    H179271   3.123   6.697   3.730  0.3734  1.8803  0.3679
19260TIP3    H279272   3.256   6.765   3.708  1.7112 -1.0335 -1.0398
19261TIP3   OH279273   5.647   5.361  15.447  0.4193  0.1511  0.3530
19261TIP3    H179274   5.581   5.391  15.385 -0.4313  2.7156  2.3529
19261TIP3    H279275   5.720   5.421  15.435  0.8038 -0.1982  0.8787
19262TIP3   OH279276   4.575   3.107   0.301  0.2687  0.0818  0.0874
19262TIP3    H179277   4.539   3.178   0.354  2.0023  1.9240 -1.0319
19262TIP3    H279278   4.511   3.093   0.232 -1.1816 -1.1391  1.5992
19263TIP3   OH279279   6.091   2.512   4.259 -0.3268  0.8531  0.0265
19263TIP3    H179280   6.073   2.583   4.197 -0.1077  2.5432  1.7738
19263TIP3    H279281   6.141   2.554   4.329 -0.6952 -0.9150  1.4298
19264TIP3   OH279282   1.559   2.483   5.900 -0.0118  0.1396 -0.1220
19264TIP3    H179283   1.550   2.446   5.988  1.1582  0.3873  0.1197
19264TIP3    H279284   1.590   2.573   5.915 -2.1298  1.0237 -0.7220
19265TIP3   OH279285   0.418   3.268  11.455  0.3077  0.1318  0.1275
19265TIP3    H179286   0.492   3.281  11.395  1.2236 -0.6925  1.0517
19265TIP3    H279287   0.342   3.299  11.405  1.0303 -0.5466 -1.4791
19266TIP3   OH279288   1.740   0.826  12.919  0.3882  0.1706  0.2846
19266TIP3    H179289   1.762   0.764  12.988 -0.6939 -0.9762 -0.3523
19266TIP3    H279290   1.653   0.799  12.889  1.9945 -1.4737 -3.6797
19267TIP3   OH279291   0.985   5.191  16.761 -0.7039 -0.4180 -0.2966
19267TIP3    H179292   0.945   5.149  16.685 -0.7613  0.2109 -0.6145
19267TIP3    H279293   1.036   5.263  16.725  1.6471 -1.8475 -0.0195
19268TIP3   OH279294   3.514   0.353  12.543  0.3464  0.3593  0.1092
19268TIP3    H179295   3.437   0.375  12.595 -0.7398 -1.9876 -0.3832
19268TIP3    H279296   3.490   0.373  12.453 -0.5827 -2.2513 -0.3225
19269TIP3   OH279297   4.154   4.853  12.478  0.2309  0.7857  0.4569
19269TIP3    H179298   4.079   4.803  12.509  0.4795  0.4824  0.5685
19269TIP3    H279299   4.177   4.813  12.394 -0.5339  1.6996 -0.2128
19270TIP3   OH279300   5.848   3.775  10.829  0.0473 -0.8652  0.1738
19270TIP3    H179301   5.762   3.734  10.826 -0.5514  0.3488 -0.3482
19270TIP3    H279302   5.892   3.735  10.904 -1.1812 -1.1081  0.7862
19271TIP3   OH279303   1.979   5.316  11.193  0.0697 -0.4852 -0.0233
19271TIP3    H179304   1.887   5.341  11.202  0.2627 -0.6220  4.3812
19271TIP3    H279305   2.019   5.389  11.146 -1.6037  1.5930  1.6038
19272TIP3   OH279306   5.248   5.887   5.139 -0.1728 -0.2004  0.4939
19272TIP3    H179307   5.295   5.909   5.220 -0.3391  0.6201  0.3776
19272TIP3    H279308   5.312   5.904   5.070 -0.3119 -0.0519  0.4014
19273TIP3   OH279309   0.137   1.558  12.102  0.0876 -0.0801 -0.2598
19273TIP3    H179310   0.135   1.628  12.167  0.2496 -0.0337 -0.3060
19273TIP3    H279311   0.184   1.594  12.028 -1.3621  0.3709 -1.0042
19274TIP3   OH279312   5.457   3.165   5.628  0.1050  0.0458  0.8615
19274TIP3    H179313   5.437   3.185   5.720  3.4118  1.1100  1.5094
19274TIP3    H279314   5.511   3.238   5.599 -0.6402 -0.4062 -1.9177
19275TIP3   OH279315   5.195   1.098  11.298 -0.5456  0.6708 -0.0180
19275TIP3    H179316   5.171   1.067  11.210 -0.4354 -0.6612  0.4139
19275TIP3    H279317   5.176   1.024  11.356 -0.4940  1.4955  1.0754
19276TIP3   OH279318   5.908   6.073  16.978 -0.2387 -0.7271  0.3764
19276TIP3    H179319   5.957   6.114  17.050 -0.6952  0.8257 -0.1529
19276TIP3    H279320   5.864   5.999  17.019  1.6317 -1.4999  1.1045
19277TIP3   OH279321   1.783   2.776   6.194  0.2784  0.1760  0.4876
19277TIP3    H179322   1.764   2.747   6.282 -0.7630  1.6647  0.7933
19277TIP3    H279323   1.846   2.848   6.205  0.7918 -0.1814 -0.0416
19278TIP3   OH279324   3.575   6.280  11.436  0.9555 -0.4215 -0.4059
19278TIP3    H179325   3.492   6.261  11.394  1.7220 -1.2899 -1.6106
19278TIP3    H279326   3.589   6.374  11.422  1.1766 -0.6825 -2.1208
19279TIP3   OH279327   3.194   4.187  15.259  0.1912 -0.4434  0.1635
19279TIP3    H179328   3.243   4.106  15.272  0.1265 -0.4113  0.6444
19279TIP3    H279329   3.251   4.256  15.294  1.5451  0.1366 -2.8694
19280TIP3   OH279330   1.274   6.287  15.782  0.5018  0.2964 -0.0277
19280TIP3    H179331   1.366   6.306  15.795  0.1623  1.5665  0.6521
19280TIP3    H279332   1.248   6.236  15.859  0.5271  0.2979 -0.0184
19281TIP3   OH279333   2.440   2.793   3.740 -0.1244  0.6529 -0.1156
19281TIP3    H179334   2.475   2.704   3.744  1.4029  1.1726 -1.1778
19281TIP3    H279335   2.357   2.788   3.788  0.6440 -0.9907  1.1628
19282TIP3   OH279336   5.530   1.550  13.455  0.4059 -0.1043  0.3846
19282TIP3    H179337   5.521   1.488  13.382 -2.5277 -0.6387  1.0505
19282TIP3    H279338   5.531   1.636  13.414  0.4069 -0.4511 -0.3518
19283TIP3   OH279339   1.732   4.871   3.549  0.3019  0.0691  0.4623
19283TIP3    H179340   1.768   4.924   3.478 -1.3288  3.0141  1.6383
19283TIP3    H279341   1.799   4.872   3.617  1.0057 -0.9915 -0.1811
19284TIP3   OH279342   1.720   6.564  10.918 -0.1667 -0.9519  0.5326
19284TIP3    H179343   1.747   6.656  10.921 -0.1125 -0.9261 -0.4436
19284TIP3    H279344   1.665   6.553  10.994 -2.6672  0.7053 -0.8987
19285TIP3   OH279345   3.615   3.092  15.426  0.3252  0.2325  0.1449
19285TIP3    H179346   3.524   3.070  15.443  0.5205 -0.3215  0.5027
19285TIP3    H279347   3.661   3.070  15.507  0.6029  1.5810  0.3813
19286TIP3   OH279348   3.687   4.257  16.157 -0.6066  0.1949 -0.0818
19286TIP3    H179349   3.594   4.266  16.175 -0.6336 -0.0348 -0.1021
19286TIP3    H279350   3.694   4.262  16.062 -0.8509 -1.9291 -0.2536
19287TIP3   OH279351   4.743   0.095   3.929 -0.0599  0.1670 -0.3654
19287TIP3    H179352   4.776   0.152   3.859 -0.6745  0.8118 -0.1410
19287TIP3    H279353   4.665   0.139   3.961 -0.3140 -0.6035  0.0981
19288TIP3   OH279354   1.986   0.959   5.009 -0.2097 -0.4388 -0.1678
19288TIP3    H179355   2.008   0.887   5.067 -0.9317  0.5361  1.3814
19288TIP3    H279356   2.065   1.013   5.006 -0.5080  0.0864  0.8450
19289TIP3   OH279357   5.842   1.844  11.629  0.0146  0.1368 -0.1828
19289TIP3    H179358   5.848   1.801  11.715 -0.7062 -0.3693 -0.3769
19289TIP3    H279359   5.916   1.811  11.580  0.3032  0.2565  0.1689
19290TIP3   OH279360   1.534   0.622  12.292 -0.3818  0.4367 -0.0689
19290TIP3    H179361   1.583   0.624  12.374 -1.8013 -0.1677  0.8336
19290TIP3    H279362   1.601   0.614  12.224  0.7136 -2.0483  1.1879
19291TIP3   OH279363   3.664   3.616   3.058  0.1697 -0.5410  0.7863
19291TIP3    H179364   3.653   3.620   3.153  0.8363 -0.7016  0.8793
19291TIP3    H279365   3.700   3.701   3.035 -1.6186  0.1490  0.4292
19292TIP3   OH279366   1.860   6.772  10.302 -0.5551  0.7876  0.4620
19292TIP3    H179367   1.824   6.748  10.387 -0.8340  1.0712  0.4241
19292TIP3    H279368   1.838   6.864  10.291 -1.3121  0.5287 -0.3141
19293TIP3   OH279369   0.431   6.315  15.538 -0.2432 -0.4671  0.6382
19293TIP3    H179370   0.380   6.390  15.569  0.2445 -0.5940  1.8029
19293TIP3    H279371   0.393   6.294  15.453  0.4727  1.9400 -0.3481
19294TIP3   OH279372   5.571   5.341   3.685 -0.3280  0.1109  0.2695
19294TIP3    H179373   5.661   5.351   3.656  0.2042  0.1092  1.8142
19294TIP3    H279374   5.522   5.405   3.635  0.5657  0.2698 -0.4242
19295TIP3   OH279375   6.527   6.246   0.948  0.7402 -0.7307 -0.5995
19295TIP3    H179376   6.536   6.333   0.988  0.8862 -0.9496 -0.1549
19295TIP3    H279377   6.480   6.263   0.866 -1.2244 -0.5035  0.5082
19296TIP3   OH279378   2.425   0.664  15.224 -0.4119  0.3107  0.1174
19296TIP3    H179379   2.455   0.694  15.309  1.3366  1.9284 -0.9954
19296TIP3    H279380   2.397   0.743  15.178 -2.2710 -0.6430 -0.5046
19297TIP3   OH279381   4.296   4.738  11.592  0.4615 -0.5319 -0.5605
19297TIP3    H179382   4.320   4.809  11.532 -0.8849 -0.7385 -1.3840
19297TIP3    H279383   4.216   4.702  11.555  0.7527 -2.0568  0.2224
19298TIP3   OH279384   2.876   0.534  15.619 -0.2734  0.3200  0.3002
19298TIP3    H179385   2.968   0.554  15.605 -0.1701  0.2461  0.8673
19298TIP3    H279386   2.867   0.442  15.594 -0.1938  0.3215  0.2668
19299TIP3   OH279387   6.031   4.785  11.031  0.2592 -0.3716  0.5728
19299TIP3    H179388   6.003   4.788  10.940  0.3937  0.4536  0.5540
19299TIP3    H279389   6.126   4.787  11.027  0.2837 -1.1088  0.7081
19300TIP3   OH279390   1.810   5.950   5.413  0.4571  0.4302 -0.1787
19300TIP3    H179391   1.769   5.871   5.448  0.0427  1.1894  1.1038
19300TIP3    H279392   1.742   5.989   5.358 -0.3774  1.3565  1.4473
19301TIP3   OH279393   4.568   4.174   5.440  0.4140 -0.8208  0.0813
19301TIP3    H179394   4.501   4.160   5.506 -0.0041 -2.6267 -0.6726
19301TIP3    H279395   4.526   4.228   5.373  0.8137  0.9419  1.1841
19302TIP3   OH279396   5.455   2.752  10.778  0.1695 -0.1610 -0.5042
19302TIP3    H179397   5.393   2.705  10.721  1.4062 -0.7546 -1.3966
19302TIP3    H279398   5.527   2.690  10.791  0.7688  0.6621  0.1830
19303TIP3   OH279399   0.108   0.455   3.116  0.1229  0.1782  0.3331
19303TIP3    H179400   0.025   0.419   3.147  0.3210 -0.6300 -0.0438
19303TIP3    H279401   0.175   0.399   3.155  0.4534  0.3447  0.0139
19304TIP3   OH279402   0.860   3.489  14.021  0.2859  0.1980 -0.1112
19304TIP3    H179403   0.816   3.464  13.940 -0.5330  1.9566 -0.2597
19304TIP3    H279404   0.800   3.551  14.062  2.0019  1.6163  0.3751
19305TIP3   OH279405   0.859   1.358   2.941 -0.2225  0.9681  0.4676
19305TIP3    H179406   0.924   1.429   2.947 -0.4712  1.4723 -1.8551
19305TIP3    H279407   0.847   1.345   2.847 -1.6887 -0.8062  0.8554
19306TIP3   OH279408   4.630   1.223  13.179  0.1384 -0.9703 -0.2547
19306TIP3    H179409   4.643   1.129  13.189  0.9483 -0.8587 -0.1923
19306TIP3    H279410   4.630   1.258  13.268  1.0932 -0.7596 -0.3308
19307TIP3   OH279411   1.056   6.750  13.386 -0.2275 -0.3343  0.2562
19307TIP3    H179412   1.030   6.744  13.478 -2.5730 -1.9227 -0.4084
19307TIP3    H279413   0.974   6.765  13.339  0.9769  0.9124 -1.5731
19308TIP3   OH279414   1.663   3.873  14.822 -0.0933  0.3464  0.2087
19308TIP3    H179415   1.678   3.803  14.885  0.7210  0.8005  0.5410
19308TIP3    H279416   1.751   3.907  14.803 -0.4270  0.9120 -0.3674
19309TIP3   OH279417   2.082   4.461   0.733 -0.1470  0.1239 -0.2058
19309TIP3    H179418   1.993   4.488   0.710  0.4252  0.7454 -1.8277
19309TIP3    H279419   2.138   4.510   0.674  1.2409 -0.9798  0.1317
19310TIP3   OH279420   1.441   2.164   4.962  0.1092  0.3018 -0.4284
19310TIP3    H179421   1.527   2.166   5.003  0.8337  1.5869 -1.8859
19310TIP3    H279422   1.441   2.083   4.911 -0.0089 -0.2827  0.4902
19311TIP3   OH279423   2.381   4.517  13.462 -0.1587 -0.2176  0.3086
19311TIP3    H179424   2.343   4.430  13.473  0.0251 -0.3168  0.1850
19311TIP3    H279425   2.452   4.504  13.398 -0.4637  0.1208 -0.1036
19312TIP3   OH279426   2.193   4.340   2.009  0.3756  0.5091 -0.0788
19312TIP3    H179427   2.286   4.363   1.997  0.4247  0.6501  0.5275
19312TIP3    H279428   2.185   4.321   2.103  0.1649 -1.2460 -0.4290
19313TIP3   OH279429   6.350   4.250  15.663  0.3632 -0.2501 -0.1110
19313TIP3    H179430   6.301   4.181  15.709  0.4120 -0.5606 -0.5159
19313TIP3    H279431   6.330   4.235  15.571 -0.9910  1.3344 -0.1069
19314TIP3   OH279432   1.586   4.997  16.066 -0.4899  0.3844 -0.5435
19314TIP3    H179433   1.603   4.926  16.004 -0.5351  1.7947 -2.2531
19314TIP3    H279434   1.571   4.953  16.150  3.8364 -1.4215 -0.4980
19315TIP3   OH279435   3.970   6.807  15.960  0.2322 -0.0752 -0.5807
19315TIP3    H179436   3.993   6.827  16.051  0.9371  1.1778 -1.0203
19315TIP3    H279437   3.911   6.877  15.934 -0.5080 -0.7955 -0.8970
19316TIP3   OH279438   0.197   6.364  15.231  0.4745  0.0049  0.7185
19316TIP3    H179439   0.187   6.310  15.310  2.9438 -0.2889  0.9004
19316TIP3    H279440   0.205   6.301  15.160 -1.4597  0.2685  0.2240
19317TIP3   OH279441   6.212   3.506   6.724 -0.1107  0.5325 -0.1015
19317TIP3    H179442   6.159   3.537   6.650  0.0990  0.8859 -0.1053
19317TIP3    H279443   6.289   3.563   6.724  0.6485 -0.4605 -0.5743
19318TIP3   OH279444   5.639   3.815   0.202 -0.3778  0.5723  0.4140
19318TIP3    H179445   5.615   3.771   0.283  0.7353 -0.3708  0.2665
19318TIP3    H279446   5.665   3.903   0.230 -2.1512  1.0244  0.7718
19319TIP3   OH279447   3.734   4.856  11.737  0.7216  0.1299 -0.2751
19319TIP3    H179448   3.730   4.794  11.665 -0.5759 -0.0613 -0.0577
19319TIP3    H279449   3.766   4.937  11.697 -0.3872  0.1529 -1.1663
19320TIP3   OH279450   1.208   5.073  15.817 -0.7792 -0.1408 -0.2431
19320TIP3    H179451   1.262   5.101  15.892  1.0939  0.8039 -1.8588
19320TIP3    H279452   1.151   5.147  15.799 -0.4307  0.0840 -0.4384
19321TIP3   OH279453   4.891   2.765   4.924  0.2040  0.4377  0.4770
19321TIP3    H179454   4.879   2.735   5.014 -1.2172  0.2956  0.2620
19321TIP3    H279455   4.893   2.685   4.872 -1.6172  0.5650  0.1251
19322TIP3   OH279456   3.237   6.014   0.059  0.2855 -0.0175  0.0412
19322TIP3    H179457   3.249   5.936   0.005 -2.5375 -1.4328  1.2747
19322TIP3    H279458   3.316   6.019   0.113  0.3513 -2.2988  0.2339
19323TIP3   OH279459   3.442   6.553   1.290  0.1500  0.0397 -0.8473
19323TIP3    H179460   3.482   6.588   1.370 -1.1408  0.6373 -0.4306
19323TIP3    H279461   3.477   6.609   1.220  0.8742 -0.1486 -0.6512
19324TIP3   OH279462   3.516   6.403   5.645  0.0915 -0.5222  0.2450
19324TIP3    H179463   3.592   6.370   5.693  0.0229 -0.3265  0.4892
19324TIP3    H279464   3.550   6.425   5.558  0.0833 -1.4867 -0.0125
19325TIP3   OH279465   3.547   4.376  16.775  0.1116  0.4813 -0.0985
19325TIP3    H179466   3.577   4.465  16.792  0.0968 -0.1228  4.1876
19325TIP3    H279467   3.624   4.331  16.741  0.4779  1.7654 -1.0594
19326TIP3   OH279468   3.581   1.325   2.308 -0.0242 -0.2932 -0.5671
19326TIP3    H179469   3.669   1.306   2.276  0.4868 -1.1579  1.2314
19326TIP3    H279470   3.593   1.396   2.371 -0.6940 -0.0713 -0.6780
19327TIP3   OH279471   2.694   6.014   0.723  0.5439  0.1176  0.4784
19327TIP3    H179472   2.724   6.103   0.707  0.0660  0.1547 -0.2462
19327TIP3    H279473   2.599   6.021   0.731  0.6842  0.0263  2.8922
19328TIP3   OH279474   1.680   3.801   4.682  0.3981 -0.8127 -0.4642
19328TIP3    H179475   1.615   3.839   4.742 -0.3168  0.4408 -1.9549
19328TIP3    H279476   1.756   3.858   4.691  0.5088 -0.9819 -0.3208
19329TIP3   OH279477   0.007   5.116  16.906  0.3073 -0.2343 -0.3624
19329TIP3    H179478  -0.008   5.131  17.000 -0.5268 -1.1814 -0.3241
19329TIP3    H279479   0.099   5.139  16.893  0.1135  1.1066  0.4237
19330TIP3   OH279480   5.504   5.187  14.063  0.0537  0.3818 -0.8141
19330TIP3    H179481   5.462   5.236  14.134 -0.4004 -0.9926 -0.0967
19330TIP3    H279482   5.443   5.195  13.990 -1.4675 -1.4495  0.1646
19331TIP3   OH279483   2.044   2.874   6.064  0.5878  0.2620  0.5896
19331TIP3    H179484   2.008   2.963   6.067  0.9369  0.4062  0.5601
19331TIP3    H279485   2.060   2.852   6.156  1.2860  0.5571  0.5461
19332TIP3   OH279486   0.877   3.003   5.349 -0.0806 -0.0555  0.3870
19332TIP3    H179487   0.862   2.990   5.443 -0.2137 -2.0024  0.1538
19332TIP3    H279488   0.971   3.013   5.341 -0.1475  0.9578  0.8039
19333TIP3   OH279489   6.645   0.549  11.984  0.6857  0.8383 -0.6834
19333TIP3    H179490   6.740   0.546  11.989  0.6161 -1.6155  1.5295
19333TIP3    H279491   6.619   0.459  11.961 -1.1295  1.7467 -2.6392
19334TIP3   OH279492   1.731   1.992   3.610 -0.6925 -0.2983 -0.8898
19334TIP3    H179493   1.740   1.937   3.533  0.1157  1.7843 -2.3732
19334TIP3    H279494   1.684   2.069   3.580 -1.6429 -0.0397  1.0675
19335TIP3   OH279495   5.786   0.677  14.968  0.6681  0.0493 -0.1928
19335TIP3    H179496   5.798   0.728  15.048 -1.4447 -1.0399  0.9118
19335TIP3    H279497   5.695   0.646  14.973  1.4086 -2.6062 -1.4869
19336TIP3   OH279498   5.508   3.075  15.131  0.3399 -0.2421  0.0295
19336TIP3    H179499   5.430   3.070  15.075 -0.5662  0.9453  1.1372
19336TIP3    H279500   5.572   3.121  15.078 -0.5371  0.9454 -0.0395
19337TIP3   OH279501   5.643   5.040  11.289 -0.2345  0.3365 -0.5115
19337TIP3    H179502   5.609   5.062  11.203 -1.9709 -1.7488 -0.4512
19337TIP3    H279503   5.726   5.087  11.295  0.9138 -0.9153 -4.0930
19338TIP3   OH279504   3.034   5.277   3.023  0.0811 -0.3888  0.0144
19338TIP3    H179505   2.945   5.310   3.016  0.6450  0.9817 -1.2923
19338TIP3    H279506   3.043   5.251   3.115 -0.8672  1.9107  0.8250
19339TIP3   OH279507   0.965   2.730  12.112  0.3745 -0.2555  0.3046
19339TIP3    H179508   0.946   2.769  12.027 -1.5292 -1.7804 -0.0223
19339TIP3    H279509   0.966   2.804  12.172  1.0141  0.7577 -0.8894
19340TIP3   OH279510   5.144   4.122   2.692 -0.1839 -0.8506  0.2876
19340TIP3    H179511   5.118   4.052   2.750 -0.2137 -0.9526  0.1513
19340TIP3    H279512   5.143   4.201   2.746 -0.9694 -0.8196  0.2314
19341TIP3   OH279513   4.121   4.478   5.132  0.3970  0.1280 -0.6104
19341TIP3    H179514   4.089   4.568   5.123 -0.1785  0.0263  0.2617
19341TIP3    H279515   4.213   4.482   5.105  0.4797  1.0554 -0.2253
19342TIP3   OH279516   3.391   1.836  15.968 -0.0588  0.0841  0.5863
19342TIP3    H179517   3.322   1.792  16.019 -0.2374 -2.4787 -1.6404
19342TIP3    H279518   3.345   1.904  15.919 -0.4771  0.3143  1.2911
19343TIP3   OH279519   0.927   2.721   0.878 -0.4469  0.5579 -0.3887
19343TIP3    H179520   1.005   2.728   0.823 -0.7824 -2.3623 -1.4334
19343TIP3    H279521   0.863   2.779   0.837  0.6930  1.8489 -0.3904
19344TIP3   OH279522   5.379   4.095   0.936  0.2254  0.6900  0.5969
19344TIP3    H179523   5.450   4.156   0.959 -0.7067  2.0319  0.0547
19344TIP3    H279524   5.423   4.010   0.928  1.5209  1.2141  1.6663
19345TIP3   OH279525   5.798   4.123   5.037  0.2797 -0.2344 -0.3066
19345TIP3    H179526   5.715   4.152   5.001  1.4172  2.1559 -1.1732
19345TIP3    H279527   5.827   4.053   4.978 -1.1010 -1.1577  0.0607
19346TIP3   OH279528   2.096   5.544   4.860  0.6598  0.0573  0.1229
19346TIP3    H179529   2.105   5.629   4.905  1.6117  0.7017 -1.2064
19346TIP3    H279530   2.087   5.567   4.768  1.1834 -1.3004 -0.2890
19347TIP3   OH279531   0.495   1.517   0.832 -0.6570  0.0907  0.2643
19347TIP3    H179532   0.461   1.606   0.818 -0.2708  0.2594  0.3831
19347TIP3    H279533   0.575   1.514   0.780 -0.5348 -0.1042  0.4645
19348TIP3   OH279534   4.617   3.111   3.637  0.0466 -0.2923 -0.2331
19348TIP3    H179535   4.635   3.175   3.705 -2.0886 -1.6381  1.7405
19348TIP3    H279536   4.661   3.146   3.559 -0.1066  2.9756  0.9932
19349TIP3   OH279537   3.869   4.380  11.763  0.0374 -0.1516 -0.0539
19349TIP3    H179538   3.812   4.377  11.686 -1.4132  1.3910  0.8963
19349TIP3    H279539   3.843   4.303  11.814 -0.2640 -0.1886 -0.2564
19350TIP3   OH279540   0.679   5.669   0.988 -0.0291 -0.0078  0.1331
19350TIP3    H179541   0.773   5.680   0.978 -0.0496  0.2721  0.2236
19350TIP3    H279542   0.660   5.583   0.952  0.4712 -0.6595  1.3625
19351TIP3   OH279543   0.843   6.253   5.786  0.1374 -0.0541 -0.5946
19351TIP3    H179544   0.928   6.269   5.825  0.1279  1.8541 -1.2871
19351TIP3    H279545   0.827   6.160   5.802  3.7913 -1.3704 -3.2577
19352TIP3   OH279546   4.006   4.567  13.515  0.0771 -0.3638  0.2612
19352TIP3    H179547   3.912   4.563  13.532 -0.0303  1.4697  0.3530
19352TIP3    H279548   4.023   4.494  13.457 -1.7165  0.1659 -1.0442
19353TIP3   OH279549   1.987   2.038   0.385 -0.0395  0.3086  0.2740
19353TIP3    H179550   2.025   2.075   0.306  0.0599 -1.9093 -0.8013
19353TIP3    H279551   1.902   2.002   0.357 -0.2220 -0.1064  1.2734
19354TIP3   OH279552   4.992   5.541   6.049 -0.2385  0.0773  0.0941
19354TIP3    H179553   5.061   5.516   6.111  0.2091 -2.5608 -1.3245
19354TIP3    H279554   5.025   5.620   6.007  0.0402  1.1601  2.1988
19355TIP3   OH279555   3.349   6.345  15.601  0.1177  0.6116  0.4460
19355TIP3    H179556   3.303   6.306  15.527  1.0293  2.0350 -0.9502
19355TIP3    H279557   3.440   6.351  15.572  0.5448  1.0127  1.7704
19356TIP3   OH279558   5.044   5.696   5.704  0.4276 -0.3003  0.2735
19356TIP3    H179559   5.078   5.607   5.694  1.5961  0.2562 -1.0863
19356TIP3    H279560   5.012   5.700   5.795 -0.8948 -2.4893 -0.0141
19357TIP3   OH279561   1.712   6.427  14.453 -0.0683 -0.1250 -0.1486
19357TIP3    H179562   1.653   6.359  14.485  1.7748 -2.1391 -0.8393
19357TIP3    H279563   1.757   6.388  14.379  1.0235  1.8994 -0.6426
19358TIP3   OH279564   5.671   5.598  16.224  0.2831 -0.1932  0.1846
19358TIP3    H179565   5.613   5.586  16.298  1.8434 -0.4573  1.4134
19358TIP3    H279566   5.699   5.510  16.200 -0.5173 -0.1465 -1.0028
19359TIP3   OH279567   4.932   4.543   0.556  0.7218  0.1732  0.1502
19359TIP3    H179568   4.970   4.624   0.591  2.6510 -1.1245  1.2455
19359TIP3    H279569   5.008   4.493   0.526 -0.4850 -0.9985 -1.0780
19360TIP3   OH279570   0.872   5.606  13.862 -0.0731  0.4444  0.2680
19360TIP3    H179571   0.810   5.561  13.919 -0.0045 -0.7767 -0.5751
19360TIP3    H279572   0.881   5.693  13.899 -0.1721 -0.2560  1.9978
19361TIP3   OH279573   6.002   3.907   3.160  0.1540  0.3366 -0.0696
19361TIP3    H179574   5.957   3.878   3.081  0.2427 -0.9976  0.3417
19361TIP3    H279575   6.095   3.894   3.142  0.1933  0.3179  0.1347
19362TIP3   OH279576   4.737   5.016   2.063 -0.4524  0.7154 -0.0730
19362TIP3    H179577   4.769   5.080   1.999  0.0135 -0.3953 -0.9849
19362TIP3    H279578   4.816   4.973   2.095 -0.8558 -1.4255 -1.6643
19363TIP3   OH279579   2.637   2.987  16.101 -0.6457  0.0291 -0.3286
19363TIP3    H179580   2.649   2.896  16.072  0.5091  0.1081 -0.1471
19363TIP3    H279581   2.722   3.028  16.088 -1.4123  1.3717 -1.3306
19364TIP3   OH279582   4.865   3.028  14.503  0.0243  0.3955  0.0583
19364TIP3    H179583   4.864   2.942  14.461 -0.0749  1.0743 -1.3756
19364TIP3    H279584   4.952   3.034  14.543  0.0309 -0.3668  0.1714
19365TIP3   OH279585   0.167   6.210  13.586 -0.7429 -0.1695 -0.3200
19365TIP3    H179586   0.134   6.291  13.547  0.1454 -1.0850 -3.2144
19365TIP3    H279587   0.089   6.167  13.621 -1.6168  0.7338 -1.1088
19366TIP3   OH279588   1.527   3.684  14.677 -0.2224 -0.0783  0.6663
19366TIP3    H179589   1.454   3.703  14.736  0.3464  0.9796  1.0532
19366TIP3    H279590   1.601   3.731  14.715  0.2368  0.3596 -0.7167
19367TIP3   OH279591   4.449   5.383   3.331 -0.0801  0.3920  0.0706
19367TIP3    H179592   4.391   5.459   3.330 -0.1212  0.3616 -0.8026
19367TIP3    H279593   4.481   5.376   3.241  0.1977 -0.4173  0.2217
19368TIP3   OH279594   4.169   2.934   2.245 -0.0011 -0.3605  0.2181
19368TIP3    H179595   4.122   2.973   2.319  0.3539  0.4590  0.0182
19368TIP3    H279596   4.141   2.842   2.245  0.4547 -0.5246  1.7394
19369TIP3   OH279597   2.920   4.559  14.329  0.1893 -0.1320  0.0451
19369TIP3    H179598   2.832   4.569  14.364 -0.1278  2.2242 -1.2345
19369TIP3    H279599   2.969   4.633  14.365  1.2341 -0.5548 -0.4695
19370TIP3   OH279600   1.203   0.982  13.696  0.0206 -0.5097  0.0886
19370TIP3    H179601   1.245   1.036  13.628  0.0082 -1.2057 -0.4852
19370TIP3    H279602   1.238   0.894  13.682  0.8078 -0.4781  1.6582
19371TIP3   OH279603   5.249   6.019   5.916 -0.4686 -0.3886 -0.3376
19371TIP3    H179604   5.328   6.036   5.968 -0.5416 -0.6881 -0.1288
19371TIP3    H279605   5.270   6.052   5.829 -0.7019  1.0732  0.1202
19372TIP3   OH279606   6.306   2.334   3.948 -0.4091 -0.3999 -0.2219
19372TIP3    H179607   6.387   2.370   3.913 -0.9013  1.9474  0.8288
19372TIP3    H279608   6.332   2.291   4.030 -0.0916 -0.6060 -0.4299
19373TIP3   OH279609   6.805   3.345  13.247 -0.5979  0.3561 -0.0474
19373TIP3    H179610   6.742   3.377  13.183 -0.5835 -1.7113 -1.1962
19373TIP3    H279611   6.771   3.258  13.272  1.2966 -0.4049 -0.0005
19374TIP3   OH279612   1.699   5.850   5.693  0.2592 -0.0848  0.4029
19374TIP3    H179613   1.645   5.858   5.772  0.7856  2.0573  0.6171
19374TIP3    H279614   1.670   5.922   5.637 -0.7044 -2.0836 -1.8086
19375TIP3   OH279615   3.069   4.058   2.142 -0.2114 -0.7639  0.5094
19375TIP3    H179616   3.059   4.153   2.137 -0.6541 -0.8000  0.6162
19375TIP3    H279617   3.135   4.045   2.210  2.2194 -0.4442 -1.6082
19376TIP3   OH279618   6.631   0.946   4.965 -0.0027  0.1602  0.3098
19376TIP3    H179619   6.651   0.893   4.889 -0.4963 -1.0189  0.9755
19376TIP3    H279620   6.606   0.883   5.033  0.2537  1.1856  1.3966
19377TIP3   OH279621   1.108   5.295  17.023  0.1998  0.1173  0.6551
19377TIP3    H179622   1.182   5.356  17.026 -1.3070  2.1058 -0.1725
19377TIP3    H279623   1.097   5.275  16.930  0.2598 -0.9101  0.8611
19378TIP3   OH279624   4.181   1.414   3.738  0.3146 -0.0056  0.2395
19378TIP3    H179625   4.118   1.343   3.727 -1.0921  1.0227  1.2544
19378TIP3    H279626   4.209   1.407   3.829  2.0532 -0.7248 -0.3224
19379TIP3   OH279627   2.985   0.395   5.524  0.3027 -0.5704 -0.1112
19379TIP3    H179628   3.074   0.425   5.503 -0.2836  0.1560 -1.7043
19379TIP3    H279629   2.933   0.417   5.447 -1.0576 -1.9628  0.3561
19380TIP3   OH279630   1.193   1.106  12.813  0.1854 -0.0329 -0.0370
19380TIP3    H179631   1.130   1.047  12.773  0.0027 -2.3340  3.2238
19380TIP3    H279632   1.277   1.061  12.805 -0.0019 -1.0979  2.7525
19381TIP3   OH279633   1.542   5.910  10.996  1.1677 -0.2828  0.7999
19381TIP3    H179634   1.625   5.862  10.990  0.8133 -0.9856  1.3959
19381TIP3    H279635   1.569   6.002  11.003  2.1612 -0.6849  4.8901
19382TIP3   OH279636   5.827   1.541  11.791  0.1320  0.0807  0.0104
19382TIP3    H179637   5.871   1.467  11.833  0.1944  0.1172  0.0087
19382TIP3    H279638   5.781   1.585  11.863 -1.5382 -1.0918 -0.2758
19383TIP3   OH279639   0.063   4.839  16.605  0.2172 -0.5624  0.0077
19383TIP3    H179640   0.025   4.866  16.688 -0.1936 -2.0904  0.3472
19383TIP3    H279641   0.152   4.873  16.608 -0.8755  2.6999 -0.6179
19384TIP3   OH279642   3.139   4.579  15.120 -0.3604  0.4643 -0.1205
19384TIP3    H179643   3.110   4.644  15.056 -0.9357  1.9842  1.6138
19384TIP3    H279644   3.231   4.562  15.096 -0.0411  2.2608 -0.3519
19385TIP3   OH279645   4.187   2.395   0.293 -0.0752  0.5531 -0.1570
19385TIP3    H179646   4.160   2.450   0.367  0.7255  0.0800  0.4982
19385TIP3    H279647   4.275   2.425   0.272  0.5380 -0.7517  0.4853
19386TIP3   OH279648   1.225   1.585   3.066 -0.0794 -0.0585 -0.0399
19386TIP3    H179649   1.162   1.514   3.080  0.0863 -0.0430  0.8338
19386TIP3    H279650   1.311   1.544   3.078  0.1894 -0.3980 -2.5655
19387TIP3   OH279651   0.178   1.072   4.262  0.1118  0.8555  0.2608
19387TIP3    H179652   0.166   0.991   4.212  0.1569 -1.5269  3.7736
19387TIP3    H279653   0.248   1.118   4.215  0.6193 -1.4911 -1.5005
19388TIP3   OH279654   2.917   5.667  14.122 -0.5744  0.1194 -0.1682
19388TIP3    H179655   2.844   5.626  14.167 -3.2505  1.9753 -2.4890
19388TIP3    H279656   2.979   5.595  14.107 -1.6286 -1.4358  2.3042
19389TIP3   OH279657   3.236   4.789   2.536  0.0115 -0.1965 -0.4636
19389TIP3    H179658   3.157   4.837   2.562  0.6141  0.8561 -0.5497
19389TIP3    H279659   3.288   4.782   2.616 -0.4101 -1.4133 -0.2658
19390TIP3   OH279660   0.994   4.802   2.649  0.5544  0.2055  0.1277
19390TIP3    H179661   1.061   4.776   2.585  0.8034  1.5526 -0.1872
19390TIP3    H279662   1.042   4.854   2.714 -0.1869  1.1895 -0.0999
19391TIP3   OH279663   1.991   6.349  17.046 -0.2441 -0.1098 -0.4960
19391TIP3    H179664   1.997   6.291  17.122 -0.6583 -0.3860 -0.6685
19391TIP3    H279665   2.044   6.306  16.979  0.0846  0.1104 -0.3756
19392TIP3   OH279666   1.066   1.256   5.828 -0.1429  0.2603 -0.1245
19392TIP3    H179667   1.097   1.343   5.805  1.7300 -0.3155  0.0696
19392TIP3    H279668   1.066   1.254   5.924  0.8913 -0.2983 -0.1273
19393TIP3   OH279669   3.783   0.251   4.535  0.0414 -0.2064 -0.1393
19393TIP3    H179670   3.774   0.192   4.460  0.6701  0.2392 -0.5747
19393TIP3    H279671   3.695   0.287   4.548 -0.0388 -0.1472 -0.7876
19394TIP3   OH279672   4.520   1.284  17.211  0.3095  0.2609 -0.4588
19394TIP3    H179673   4.428   1.287  17.187  0.4858  0.5949 -1.1329
19394TIP3    H279674   4.564   1.337  17.144  0.8224  1.2967  0.6753
19395TIP3   OH279675   5.362   0.881   4.330 -0.0609  0.1983  0.1627
19395TIP3    H179676   5.379   0.840   4.245  1.1415  2.0854 -0.5885
19395TIP3    H279677   5.394   0.818   4.394 -0.9145 -1.2330 -0.7716
19396TIP3   OH279678   1.130   0.005   5.753 -0.0980 -0.1498 -0.1358
19396TIP3    H179679   1.054   0.059   5.730 -0.8602 -0.8015  0.8110
19396TIP3    H279680   1.096  -0.063   5.810  1.0274 -1.0812 -0.5334
19397TIP3   OH279681   1.319   2.334   4.327  0.2342 -1.4090  0.1357
19397TIP3    H179682   1.360   2.255   4.292  0.5571 -1.8832  1.5093
19397TIP3    H279683   1.382   2.403   4.310  0.4360 -1.6499 -0.1009
19398TIP3   OH279684   5.034   6.347  14.765 -0.3582 -0.0936 -0.1271
19398TIP3    H179685   5.014   6.314  14.677 -1.5664  2.1757 -0.7842
19398TIP3    H279686   5.006   6.278  14.824 -2.5598 -0.4003 -1.4234
19399TIP3   OH279687   3.848   1.506   2.660 -0.2371 -0.2957  0.4962
19399TIP3    H179688   3.869   1.413   2.671  2.0216  0.0297 -0.6411
19399TIP3    H279689   3.761   1.506   2.620 -0.8108 -1.8631  1.6347
19400TIP3   OH279690   0.773   6.044   3.699 -0.5510  0.0668  0.6815
19400TIP3    H179691   0.798   6.119   3.752  1.4704  0.2507 -0.4595
19400TIP3    H279692   0.743   6.081   3.616 -1.4681 -0.3264  0.8187
19401TIP3   OH279693   1.589   5.461  12.544  0.0241 -0.0704  0.5306
19401TIP3    H179694   1.613   5.417  12.625  0.8651 -2.2413 -0.8264
19401TIP3    H279695   1.610   5.399  12.475 -0.9254  1.5907 -1.3711
19402TIP3   OH279696   1.808   4.055  15.028 -0.7886 -0.0131  0.4589
19402TIP3    H179697   1.718   4.038  15.054 -0.2722  1.7289  4.0079
19402TIP3    H279698   1.813   4.149  15.013 -0.0472 -0.4031 -2.4295
19403TIP3   OH279699   1.747   4.114   1.018  0.0950 -0.3200 -0.0245
19403TIP3    H179700   1.819   4.147   0.964 -0.5221  0.8965 -0.1330
19403TIP3    H279701   1.782   4.034   1.059  0.7706 -0.9551 -1.7418
19404TIP3   OH279702   6.397   5.527   1.642  0.0154 -0.5299  0.4800
19404TIP3    H179703   6.491   5.514   1.629 -0.1181 -0.4731 -0.6615
19404TIP3    H279704   6.383   5.621   1.628 -0.5326 -0.8883 -1.7960
19405TIP3   OH279705   3.156   5.085  11.411  0.0049  0.4268 -0.4952
19405TIP3    H179706   3.177   5.023  11.342  0.2395 -1.3661  1.0936
19405TIP3    H279707   3.217   5.065  11.482 -1.4870  0.8572  0.9816
19406TIP3   OH279708   1.533   4.699  13.025 -0.1051  0.3175 -0.2677
19406TIP3    H179709   1.510   4.789  13.000  1.0978  0.7238  0.0446
19406TIP3    H279710   1.607   4.677  12.970 -0.3466 -0.4688 -0.2879
19407TIP3   OH279711   5.592   1.703  15.978  0.6047 -0.6229 -0.4851
19407TIP3    H179712   5.588   1.652  16.059 -1.1023 -0.4022 -0.3878
19407TIP3    H279713   5.606   1.638  15.909  0.5905 -0.9797 -0.1569
19408TIP3   OH279714   4.008   5.967  16.159  0.3159  0.4119 -0.2804
19408TIP3    H179715   4.063   6.045  16.153  1.5165 -0.3279  0.4776
19408TIP3    H279716   3.936   5.992  16.217  1.3078  0.6545  0.9076
19409TIP3   OH279717   2.742   3.847   6.010  0.5126 -0.2245  0.3398
19409TIP3    H179718   2.756   3.856   5.916  1.4790  1.5758  0.6087
19409TIP3    H279719   2.794   3.771   6.035 -0.9057 -1.6138 -0.7668
19410TIP3   OH279720   6.376   6.453   0.555  0.2998 -0.5663 -0.1978
19410TIP3    H179721   6.441   6.515   0.589  0.5664 -1.0118  0.1062
19410TIP3    H279722   6.379   6.379   0.615  0.7954 -1.3755 -1.2051
19411TIP3   OH279723   2.787   5.779  13.553  0.2626 -0.5164 -0.0763
19411TIP3    H179724   2.722   5.812  13.491  2.4555  3.5714 -0.5589
19411TIP3    H279725   2.775   5.833  13.631  2.6101 -0.0143  0.0171
19412TIP3   OH279726   4.642   3.469   5.824 -0.3473  0.2456  0.1527
19412TIP3    H179727   4.681   3.544   5.868 -1.5593 -0.2674  2.2103
19412TIP3    H279728   4.672   3.393   5.873  2.1734 -0.9028 -2.8358
19413TIP3   OH279729   6.419   4.747   5.800 -0.0543 -0.1399 -0.2071
19413TIP3    H179730   6.369   4.666   5.795  0.0032 -0.1056 -2.4476
19413TIP3    H279731   6.361   4.809   5.843  0.1308 -1.4686  2.1327
19414TIP3   OH279732   1.486   0.787  16.211  0.2006 -0.1343 -0.1693
19414TIP3    H179733   1.394   0.809  16.222 -0.3200 -0.8060 -2.4632
19414TIP3    H279734   1.527   0.808  16.295 -1.8937  0.8434  0.6718
19415TIP3   OH279735   0.100   3.695  17.106 -0.0851  0.0532 -0.8530
19415TIP3    H179736   0.109   3.654  17.020 -0.0889 -2.2521  0.1759
19415TIP3    H279737   0.015   3.739  17.103 -0.6973 -1.1301 -1.6264
19416TIP3   OH279738   6.433   5.075  14.057 -0.2249 -0.0203 -0.3558
19416TIP3    H179739   6.397   5.092  14.144  1.0158  0.4194  0.0952
19416TIP3    H279740   6.527   5.089  14.067  0.0548 -0.8647 -1.5515
19417TIP3   OH279741   4.250   0.158  16.352 -0.3649  0.1602  0.3823
19417TIP3    H179742   4.299   0.088  16.395 -0.2376 -1.5042 -2.2473
19417TIP3    H279743   4.306   0.235  16.359  0.0722 -0.2875  2.2235
19418TIP3   OH279744   3.339   5.469   1.570 -0.1594 -0.0024 -0.1801
19418TIP3    H179745   3.307   5.387   1.533 -0.2121  0.8258 -2.0619
19418TIP3    H279746   3.434   5.463   1.561 -0.1854  0.2954 -0.6773
19419TIP3   OH279747   5.719   2.359  16.005 -0.1169 -0.0051 -0.4465
19419TIP3    H179748   5.671   2.424  15.953 -1.3184 -0.6300 -0.1623
19419TIP3    H279749   5.769   2.309  15.941 -1.4537 -0.6607 -1.0142
19420TIP3   OH279750   4.888   2.078   0.496  0.6978  0.1120 -0.0591
19420TIP3    H179751   4.932   1.995   0.480  0.9489  0.2864 -0.2881
19420TIP3    H279752   4.818   2.057   0.559  2.6035  0.2519  2.2593
19421TIP3   OH279753   0.716   0.522   0.779 -0.3891 -0.2486  0.1483
19421TIP3    H179754   0.706   0.460   0.707  1.4884  1.5752 -1.8465
19421TIP3    H279755   0.668   0.483   0.852  0.3190 -3.7681 -1.0965
19422TIP3   OH279756   0.378   0.947   5.979 -0.1089 -0.0957  0.6018
19422TIP3    H179757   0.350   0.877   6.038  0.6079  0.0507  1.1209
19422TIP3    H279758   0.366   0.910   5.891  0.3517 -0.9029  0.8690
19423TIP3   OH279759   6.297   4.735   2.930  0.4750  0.6869 -0.0003
19423TIP3    H179760   6.321   4.823   2.958 -2.8816  1.5977  0.5305
19423TIP3    H279761   6.290   4.684   3.011  1.7933  0.0756 -0.2524
19424TIP3   OH279762   2.254   3.954   2.420 -0.4120  0.0219 -0.0396
19424TIP3    H179763   2.186   3.932   2.483 -0.7259 -1.2598 -0.7909
19424TIP3    H279764   2.322   3.887   2.433 -1.4818 -1.7215 -2.5139
19425TIP3   OH279765   2.775   4.295   6.706 -0.0901  0.3853  0.1085
19425TIP3    H179766   2.743   4.379   6.739 -2.1768  0.7596 -2.5642
19425TIP3    H279767   2.852   4.317   6.655  2.2922 -0.0362  3.2081
19426TIP3   OH279768   6.487   2.656   0.818  0.6336  0.4517  0.0457
19426TIP3    H179769   6.404   2.703   0.810 -0.5964 -0.6818  3.8948
19426TIP3    H279770   6.548   2.720   0.855  0.2808  0.2522  0.9913
19427TIP3   OH279771   4.803   6.150   5.135  0.1266 -0.1389 -0.2896
19427TIP3    H179772   4.883   6.191   5.167 -0.3754 -0.9292  2.2519
19427TIP3    H279773   4.736   6.218   5.145 -0.1505 -0.5844  1.0541
19428TIP3   OH279774   4.548   0.842  13.866  0.8154  0.0450  0.3701
19428TIP3    H179775   4.621   0.810  13.813  1.2200  1.2947  0.1214
19428TIP3    H279776   4.567   0.812  13.955  0.3362 -1.7341 -0.0914
19429TIP3   OH279777   1.533   1.188  12.051  0.6865 -0.4085 -0.3625
19429TIP3    H179778   1.506   1.100  12.076 -1.5380  1.0101  2.9837
19429TIP3    H279779   1.524   1.190  11.956 -0.4107 -3.3943 -0.4110
19430TIP3   OH279780   1.477   5.612  16.920 -0.6458  0.3083 -0.3901
19430TIP3    H179781   1.532   5.539  16.949 -1.9986  0.0306  1.7342
19430TIP3    H279782   1.450   5.588  16.831 -0.4036 -1.3802 -0.0452
19431TIP3   OH279783   5.256   4.117   4.580  0.3857  0.3126 -0.6828
19431TIP3    H179784   5.176   4.165   4.602 -0.3850 -0.3394 -1.9620
19431TIP3    H279785   5.229   4.054   4.512  1.7295 -0.7416 -0.2878
19432TIP3   OH279786   6.625   5.788  12.908 -0.8584  0.5249 -1.0889
19432TIP3    H179787   6.709   5.814  12.944 -0.3777 -1.2004 -0.9004
19432TIP3    H279788   6.645   5.751  12.822 -1.1005 -1.8485 -0.2004
19433TIP3   OH279789   3.040   6.360   3.377  0.3929  0.1435  0.1029
19433TIP3    H179790   3.078   6.445   3.397 -0.3287  0.5576 -0.2557
19433TIP3    H279791   3.014   6.366   3.286 -0.0979 -0.2927  0.2084
19434TIP3   OH279792   3.405   3.379   3.658 -0.9314  0.1284  0.5947
19434TIP3    H179793   3.345   3.305   3.667  0.0800 -0.8146 -0.1054
19434TIP3    H279794   3.377   3.441   3.726 -1.5647 -1.0576  1.4597
19435TIP3   OH279795   0.169   6.192  14.637 -0.4887 -0.2431  0.4207
19435TIP3    H179796   0.113   6.268  14.625 -1.3955 -0.8062  0.9621
19435TIP3    H279797   0.110   6.122  14.665  0.1418 -1.4298 -0.9993
19436TIP3   OH279798   4.115   0.133  13.773 -0.0298  0.1541  0.1633
19436TIP3    H179799   4.114   0.110  13.866 -0.7143  0.6564  0.2882
19436TIP3    H279800   4.135   0.226  13.772  0.2935  0.0817 -0.2116
19437TIP3   OH279801   1.922   2.651  12.711  0.6882 -0.1276  0.0866
19437TIP3    H179802   1.874   2.731  12.733  0.9587 -0.8897  4.2172
19437TIP3    H279803   1.972   2.674  12.632  1.8024  4.2930  1.7588
19438TIP3   OH279804   6.233   3.751   2.365 -0.6499  0.3086  0.5201
19438TIP3    H179805   6.192   3.691   2.303 -0.8941 -0.0734  1.0467
19438TIP3    H279806   6.206   3.838   2.336 -1.9975  0.0583  0.9636
19439TIP3   OH279807   1.519   4.321   0.953 -0.3109  0.2733  0.0103
19439TIP3    H179808   1.546   4.272   1.030 -0.0238 -1.5401 -1.1924
19439TIP3    H279809   1.600   4.348   0.912 -0.3951 -0.6385 -0.7891
19440TIP3   OH279810   1.255   5.913   1.397 -0.0845 -0.1325  0.4664
19440TIP3    H179811   1.230   5.986   1.454  0.4064 -0.0514  0.5793
19440TIP3    H279812   1.252   5.836   1.455 -1.0299 -0.2809  0.2462
19441TIP3   OH279813   1.674   2.648   6.424 -0.2645  0.3831  0.0375
19441TIP3    H179814   1.706   2.564   6.458 -1.6410 -0.5084 -0.7967
19441TIP3    H279815   1.615   2.625   6.353 -1.2145  2.0443  0.2344
19442TIP3   OH279816   1.512   0.893   0.616  0.2762 -0.2976 -0.0114
19442TIP3    H179817   1.570   0.941   0.675  0.7212 -1.9857  0.9813
19442TIP3    H279818   1.566   0.821   0.582 -0.7154 -0.8303 -0.4958
19443TIP3   OH279819   0.175   4.714   1.891 -0.7369 -0.4433  0.2032
19443TIP3    H179820   0.236   4.748   1.825  0.3608  0.5773  1.6769
19443TIP3    H279821   0.136   4.637   1.850 -1.6827  1.2875 -2.4426
19444TIP3   OH279822   1.656   5.456  10.429 -0.2464  0.0520  0.3069
19444TIP3    H179823   1.591   5.515  10.467 -1.3217 -1.8717  1.6316
19444TIP3    H279824   1.604   5.388  10.385  0.8732 -0.9842  0.5264
19445TIP3   OH279825   2.886   2.816  17.201  0.3610 -0.3862  0.2481
19445TIP3    H179826   2.961   2.760  17.182 -1.8021 -3.4855  0.1936
19445TIP3    H279827   2.834   2.816  17.120 -0.2327  0.8982  0.5924
19446TIP3   OH279828   6.271   4.477  15.938  0.2468 -0.0057 -0.6065
19446TIP3    H179829   6.247   4.562  15.973 -0.8255 -1.0945  1.4824
19446TIP3    H279830   6.304   4.496  15.850 -0.4443  2.4807 -0.4093
19447TIP3   OH279831   4.302   6.036   5.644  0.1807  0.4171  0.2618
19447TIP3    H179832   4.365   6.061   5.712  0.6676  1.9805 -0.7036
19447TIP3    H279833   4.233   6.102   5.649 -0.1451  0.1272 -0.2875
19448TIP3   OH279834   5.138   2.158   0.156 -0.0578 -0.1305 -0.8088
19448TIP3    H179835   5.116   2.165   0.249 -0.6300  0.6819 -0.9903
19448TIP3    H279836   5.216   2.103   0.154  0.2187  0.1958  0.1898
19449TIP3   OH279837   3.478   4.804   3.936 -0.0748 -0.2659  0.4314
19449TIP3    H179838   3.515   4.728   3.980 -1.1779 -0.7745  0.5088
19449TIP3    H279839   3.483   4.874   4.001  0.9386 -0.2502  0.3627
19450TIP3   OH279840   3.393   6.736   3.171  0.5734 -0.0902 -0.6903
19450TIP3    H179841   3.304   6.739   3.204  0.7747  1.2080 -0.2238
19450TIP3    H279842   3.448   6.741   3.249  1.0761 -1.4891 -0.9233
19451TIP3   OH279843   3.075   4.347  11.837 -0.5038 -0.1564  0.4218
19451TIP3    H179844   2.995   4.309  11.801  1.1935 -1.1630 -2.5462
19451TIP3    H279845   3.070   4.440  11.814 -0.7108 -0.2580  0.0634
19452TIP3   OH279846   6.357   6.431   3.741 -0.4756  0.2160  0.5128
19452TIP3    H179847   6.329   6.438   3.650 -1.6161  1.3956  0.9248
19452TIP3    H279848   6.276   6.433   3.792  0.0751 -1.3993  1.5387
19453TIP3   OH279849   6.207   2.696  12.449 -0.1870 -0.3161 -0.2034
19453TIP3    H179850   6.123   2.651  12.436 -0.7741  0.9105 -0.8997
19453TIP3    H279851   6.200   2.733  12.537 -0.0340 -0.8969  0.0567
19454TIP3   OH279852   3.399   0.886  12.008 -0.4166 -0.4487 -0.9258
19454TIP3    H179853   3.369   0.861  12.096 -0.2524  1.1740 -0.3755
19454TIP3    H279854   3.481   0.838  11.996 -0.8758 -1.3552 -0.5585
19455TIP3   OH279855   4.243   4.686  10.233 -0.1852 -0.0594 -0.5496
19455TIP3    H179856   4.214   4.665  10.322  0.9476 -2.4008 -0.6432
19455TIP3    H279857   4.177   4.646  10.177  0.6811 -1.3155 -0.7259
19456TIP3   OH279858   3.301   3.492   3.941 -0.6318 -0.3686 -0.3718
19456TIP3    H179859   3.371   3.552   3.966 -0.0926 -1.5213  1.0046
19456TIP3    H279860   3.316   3.414   3.994 -2.3803 -1.0325 -0.7916
19457TIP3   OH279861   0.074   0.868  16.884 -0.2379  0.5688  0.4879
19457TIP3    H179862   0.151   0.811  16.890  0.0174  0.7733 -0.5365
19457TIP3    H279863   0.011   0.830  16.945  0.6770  0.4017  1.3484
19458TIP3   OH279864   3.287   5.327  11.314  0.2044 -0.1037 -0.1060
19458TIP3    H179865   3.279   5.318  11.219  1.9737  0.1672 -0.3064
19458TIP3    H279866   3.246   5.248  11.348 -2.7576  0.9301 -0.9250
19459TIP3   OH279867   3.926   5.285   0.336  0.0095  0.6275  0.2665
19459TIP3    H179868   3.981   5.245   0.404  1.0897  0.9960 -0.3692
19459TIP3    H279869   3.909   5.214   0.274  0.9754  0.8594 -0.2738
19460TIP3   OH279870   3.019   3.882   4.109 -0.1905 -0.5458 -0.1834
19460TIP3    H179871   2.963   3.960   4.112 -0.1120 -0.4255 -1.4024
19460TIP3    H279872   2.970   3.816   4.158 -1.8840 -0.7252 -2.0394
19461TIP3   OH279873   2.877   3.319  15.368  0.0220  0.7447  0.4289
19461TIP3    H179874   2.860   3.279  15.454 -1.2061 -0.6382 -0.4139
19461TIP3    H279875   2.794   3.311  15.321  0.7304  1.3078 -0.9691
19462TIP3   OH279876   4.530   4.264   4.026 -0.4623 -0.8621 -0.4155
19462TIP3    H179877   4.459   4.326   4.044 -0.4581 -0.7931 -0.6426
19462TIP3    H279878   4.592   4.278   4.098 -1.2819 -1.8252  0.5209
19463TIP3   OH279879   2.763   2.612   0.857  0.3140 -0.6743 -0.0296
19463TIP3    H179880   2.714   2.694   0.868  1.3987 -0.1529  1.1304
19463TIP3    H279881   2.806   2.621   0.772  0.4590 -0.0098  0.1065
19464TIP3   OH279882   6.323   1.085  15.377  0.0909 -0.3208 -0.0527
19464TIP3    H179883   6.385   1.061  15.446 -1.2238 -0.1862  1.2357
19464TIP3    H279884   6.329   1.014  15.313  3.3699  0.9117 -1.2916
19465TIP3   OH279885   2.411   2.517  12.454 -0.8476  0.1129  0.4087
19465TIP3    H179886   2.334   2.569  12.478 -0.3425  0.0989  2.2350
19465TIP3    H279887   2.467   2.578  12.406 -1.7636  0.2625 -0.4986
19466TIP3   OH279888   2.326   1.686  10.995  0.5113  0.0933 -0.7875
19466TIP3    H179889   2.261   1.619  11.017 -1.4985  1.9412 -0.7903
19466TIP3    H279890   2.334   1.683  10.900  0.6019 -0.3031 -0.7659
19467TIP3   OH279891   6.699   1.841   1.251  0.5048 -0.3315  0.0931
19467TIP3    H179892   6.605   1.841   1.265  0.4106  0.2020 -0.5056
19467TIP3    H279893   6.735   1.895   1.321  0.1156  1.6457 -1.1503
19468TIP3   OH279894   0.035   6.188   3.246 -0.2795 -0.4008 -0.3810
19468TIP3    H179895   0.068   6.262   3.196 -1.5792  0.1144 -0.5145
19468TIP3    H279896  -0.060   6.192   3.236 -0.7477  0.4248  3.0661
19469TIP3   OH279897   1.984   0.582   2.200  0.3240 -0.8420 -0.2545
19469TIP3    H179898   2.043   0.527   2.147  0.9922 -1.1530  0.7778
19469TIP3    H279899   1.979   0.664   2.152  1.5327 -0.8459 -0.4242
19470TIP3   OH279900   3.325   4.878  13.356  0.1523 -1.1073  0.6186
19470TIP3    H179901   3.280   4.813  13.301  0.6401 -0.2218 -0.9017
19470TIP3    H279902   3.266   4.954  13.355  1.3604 -0.1151 -0.9829
19471TIP3   OH279903   0.425   0.892   0.493 -0.1148 -0.8484 -0.1419
19471TIP3    H179904   0.373   0.873   0.571  0.1742 -3.2547 -0.4374
19471TIP3    H279905   0.362   0.924   0.429 -0.4993  0.2863  0.7851
19472TIP3   OH279906   2.749   5.512   1.129 -0.8095  0.2448  0.2716
19472TIP3    H179907   2.791   5.469   1.203 -3.2885 -1.9445  0.5474
19472TIP3    H279908   2.801   5.485   1.053 -0.7731 -1.1397  0.7598
19473TIP3   OH279909   1.146   6.757  11.382  0.3237  0.3698  0.0135
19473TIP3    H179910   1.198   6.734  11.305 -1.8396 -2.4634 -0.7919
19473TIP3    H279911   1.155   6.682  11.441  0.2971  1.5966  1.6397
19474TIP3   OH279912   6.099   4.278  14.818  0.5726  0.2610  0.8485
19474TIP3    H179913   6.097   4.185  14.797  0.9571 -0.1680  2.5503
19474TIP3    H279914   6.017   4.312  14.782 -0.3403 -1.0769  1.5723
19475TIP3   OH279915   0.321   3.096  16.634 -0.5347 -0.3822 -0.2623
19475TIP3    H179916   0.244   3.067  16.684  0.5104 -2.5521  0.1978
19475TIP3    H279917   0.316   3.048  16.552  0.2641 -0.4655 -0.2693
19476TIP3   OH279918   1.553   2.037   3.293  0.5915  0.1813  0.4557
19476TIP3    H179919   1.585   2.080   3.214  0.5282  0.0248  0.3451
19476TIP3    H279920   1.593   2.086   3.365 -0.8193  1.5496  0.3806
19477TIP3   OH279921   1.404   0.030  14.214  0.1121 -0.4609 -0.2341
19477TIP3    H179922   1.375  -0.060  14.199  2.5949 -1.2678 -0.7340
19477TIP3    H279923   1.324   0.078  14.236 -1.3455 -2.6858 -0.3469
19478TIP3   OH279924   3.461   5.878   1.859 -0.3414  0.3402  0.0834
19478TIP3    H179925   3.486   5.789   1.883  0.5773  0.3137 -0.8793
19478TIP3    H279926   3.536   5.910   1.808 -1.8041  0.6730 -1.9855
19479TIP3   OH279927   5.275   4.577   5.091  0.1557 -0.6784 -0.2290
19479TIP3    H179928   5.341   4.639   5.124  0.5014 -1.8151  1.3240
19479TIP3    H279929   5.236   4.622   5.016  2.7962 -0.0283 -1.3166
19480TIP3   OH279930   0.245   2.662  15.114  0.0589  0.1667  0.5826
19480TIP3    H179931   0.336   2.630  15.117  0.3510  0.5960 -1.6659
19480TIP3    H279932   0.198   2.605  15.175  1.5949 -0.9320  0.8134
19481TIP3   OH279933   6.826   3.919   1.379 -0.1111 -0.4675  0.3323
19481TIP3    H179934   6.878   3.883   1.452 -0.5236 -1.8765 -0.0403
19481TIP3    H279935   6.739   3.881   1.391 -0.6601  0.6795  0.0802
19482TIP3   OH279936   5.960   6.141  14.200 -0.4513  0.2331  0.3868
19482TIP3    H179937   5.945   6.228  14.163 -0.5049  0.4624  0.9389
19482TIP3    H279938   5.885   6.127  14.257  0.1892  0.3496  1.2661
19483TIP3   OH279939   0.214   5.866   1.080  0.1074  0.7978  0.0263
19483TIP3    H179940   0.220   5.887   1.173  2.2617  1.7285 -0.2798
19483TIP3    H279941   0.129   5.822   1.072  0.6678 -1.1015  2.7556
19484TIP3   OH279942   3.772   2.050   0.020  0.2191 -0.3291  0.6138
19484TIP3    H179943   3.771   2.097   0.103  1.0530 -0.3848  0.6640
19484TIP3    H279944   3.825   1.973   0.037 -1.0452 -1.2491  0.5000
19485TIP3   OH279945   0.121   4.535   2.179  0.2625 -0.4166 -0.6389
19485TIP3    H179946   0.052   4.582   2.226 -1.7158 -1.0609 -2.6967
19485TIP3    H279947   0.141   4.591   2.104  2.2690 -0.0993  0.0781
19486TIP3   OH279948   5.245   4.130   2.046  0.4049  0.6333  0.3294
19486TIP3    H179949   5.316   4.115   2.109  0.2299 -2.8757 -0.1065
19486TIP3    H279950   5.290   4.140   1.962  0.4828  2.1100  0.5181
19487TIP3   OH279951   6.784   2.749   0.249  0.0581 -0.4962 -0.0485
19487TIP3    H179952   6.855   2.797   0.292 -0.8355  4.0190 -2.8854
19487TIP3    H279953   6.821   2.720   0.166 -0.5721 -0.9363 -0.1847
19488TIP3   OH279954   4.734   0.772   1.319  0.1606  0.3111  0.2074
19488TIP3    H179955   4.758   0.713   1.247  0.4726 -2.0136  2.1118
19488TIP3    H279956   4.808   0.833   1.325  2.5022 -2.3760  1.4342
19489TIP3   OH279957   4.886   5.777   5.179 -0.0842 -0.4214  0.4481
19489TIP3    H179958   4.962   5.745   5.130  1.7174  2.4950  1.1336
19489TIP3    H279959   4.915   5.780   5.270 -1.6857 -0.9206  1.0192
19490TIP3   OH279960   0.894   0.655   5.048 -0.6890 -0.0178  0.2041
19490TIP3    H179961   0.875   0.587   4.983 -0.3317  0.6205 -0.5910
19490TIP3    H279962   0.976   0.695   5.017 -0.7629  0.6039  0.7906
19491TIP3   OH279963   3.681   1.258   2.889  0.4400  0.5974  0.1943
19491TIP3    H179964   3.587   1.267   2.873  0.3621  0.4132  0.5433
19491TIP3    H279965   3.687   1.187   2.953  0.9794 -1.5167 -2.0353
19492TIP3   OH279966   0.002   0.226  14.106  0.2055 -0.2822 -0.6021
19492TIP3    H179967   0.090   0.264  14.106  0.3448 -0.5701  0.3582
19492TIP3    H279968  -0.035   0.253  14.190 -0.0415 -1.4797 -0.3139
19493TIP3   OH279969   6.327   4.948  15.529  0.0403  0.0774 -0.3417
19493TIP3    H179970   6.293   4.860  15.512 -0.8860  0.3702 -0.0529
19493TIP3    H279971   6.402   4.934  15.587  0.5197 -0.5893 -1.0845
19494TIP3   OH279972   0.996   4.341  16.004  0.2974  0.6161  0.0012
19494TIP3    H179973   0.958   4.368  15.921  0.3217  2.2626  0.4894
19494TIP3    H279974   1.021   4.423  16.047  2.8291 -0.3030  0.4473
19495TIP3   OH279975   4.106   6.781   5.775 -0.1182  0.4510 -0.1730
19495TIP3    H179976   4.162   6.844   5.821 -1.3295  1.5965 -0.1965
19495TIP3    H279977   4.038   6.835   5.734 -0.4694 -0.7735 -1.2681
19496TIP3   OH279978   0.871   3.403  16.480 -0.7820  0.1966 -0.2084
19496TIP3    H179979   0.825   3.362  16.553  2.3343 -0.5530  1.5229
19496TIP3    H279980   0.897   3.489  16.513  1.8906 -0.6895  0.2376
19497TIP3   OH279981   1.122   5.989  16.820  0.4742 -0.0023 -0.2389
19497TIP3    H179982   1.137   6.074  16.778  1.8346  0.0733  0.3591
19497TIP3    H279983   1.053   6.006  16.884  0.6153  0.6115 -0.2468
19498TIP3   OH279984   0.346   4.126  11.311  0.0360 -0.2214 -0.0106
19498TIP3    H179985   0.369   4.157  11.223 -1.8108  0.8830 -0.1682
19498TIP3    H279986   0.259   4.163  11.327  1.4958  2.1742  3.5075
19499TIP3   OH279987   6.676   0.086  16.907  0.2823 -0.3764 -0.1049
19499TIP3    H179988   6.589   0.127  16.906  0.1732 -0.6072 -1.2343
19499TIP3    H279989   6.716   0.118  16.987 -0.4666  0.5485 -0.0767
19500TIP3   OH279990   3.829   1.941   3.810 -0.0918 -0.1956 -0.1241
19500TIP3    H179991   3.753   1.888   3.787 -1.8320  2.1302 -0.1405
19500TIP3    H279992   3.838   2.001   3.736  1.8548 -0.4741 -0.1522
19501TIP3   OH279993   3.899   1.677   1.885 -0.3311 -0.5225 -0.6541
19501TIP3    H179994   3.936   1.741   1.946 -1.0251 -1.0045  0.2795
19501TIP3    H279995   3.975   1.628   1.853  0.0500 -0.1972 -0.2624
19502TIP3   OH279996   0.848   2.465   4.439 -0.1746  0.0503 -0.0242
19502TIP3    H179997   0.935   2.506   4.437 -0.3940  0.5143 -0.3255
19502TIP3    H279998   0.800   2.514   4.505  0.4685 -1.6455  1.7679
19503TIP3   OH279999   2.943   5.683  17.114 -0.0021  0.0848 -0.1511
19503TIP3    H180000   2.974   5.640  17.193 -1.8908  2.4597  2.0826
19503TIP3    H280001   2.983   5.771  17.118  0.2952  0.0847 -2.1785
19504TIP3   OH280002   2.968   6.523  13.878  0.0928  0.1574 -0.3405
19504TIP3    H180003   2.999   6.529  13.787 -0.5543 -0.9379 -0.6487
19504TIP3    H280004   2.958   6.429  13.894 -0.5754  0.3767  0.5960
19505TIP3   OH280005   2.248   4.959  11.187 -0.1199  0.0476  0.1175
19505TIP3    H180006   2.245   4.936  11.094 -1.9843  2.7457 -0.6189
19505TIP3    H280007   2.341   4.968  11.206  0.2711  0.9690 -1.9467
19506TIP3   OH280008   4.830   0.958   0.823 -0.2332 -0.7148  0.0614
19506TIP3    H180009   4.845   1.052   0.827 -2.6257 -0.2057 -1.2506
19506TIP3    H280010   4.758   0.942   0.884  0.3399 -1.7812  0.5015
19507TIP3   OH280011   4.248   2.249   0.595  0.6908  0.3333 -0.3552
19507TIP3    H180012   4.258   2.343   0.610 -0.5992  0.6299 -1.1841
19507TIP3    H280013   4.199   2.217   0.670  0.0641  0.5599 -0.6628
19508TIP3   OH280014   3.812   2.504   2.439 -0.5058  0.0365  0.1502
19508TIP3    H180015   3.861   2.500   2.521 -1.3018 -0.1223  0.6339
19508TIP3    H280016   3.858   2.444   2.380  0.4453  0.6351  0.2584
19509TIP3   OH280017   2.037   4.507   5.004  0.0674 -0.2440 -0.7054
19509TIP3    H180018   1.949   4.511   4.967  0.5346  0.5987 -1.7808
19509TIP3    H280019   2.036   4.572   5.074 -0.1142 -0.1167 -0.8242
19510TIP3   OH280020   5.355   0.234   0.014  0.8842 -0.0724  0.1140
19510TIP3    H180021   5.309   0.150   0.019 -0.9710  0.8507 -0.3922
19510TIP3    H280022   5.417   0.224  -0.058 -1.3809 -0.1358 -1.9605
19511TIP3   OH280023   1.061   6.379   6.212 -0.3187 -0.7651 -0.7572
19511TIP3    H180024   1.149   6.404   6.237 -0.8892 -0.4451  1.1139
19511TIP3    H280025   1.017   6.462   6.192 -0.5432 -0.7940 -0.3995
19512TIP3   OH280026   4.394   0.346   6.480  0.1452 -0.4910 -0.2549
19512TIP3    H180027   4.423   0.333   6.570 -1.5463 -1.4756  0.1935
19512TIP3    H280028   4.459   0.298   6.427 -0.2720 -2.1792  0.6683
19513TIP3   OH280029   0.071   4.714  17.112 -0.1749  0.1752 -0.4651
19513TIP3    H180030   0.147   4.728  17.169  0.9155 -0.6894 -1.6427
19513TIP3    H280031   0.010   4.784  17.135  0.5888  0.3479  1.1520
19514TIP3   OH280032   2.702   5.090   5.938 -0.1422  0.6320  0.1378
19514TIP3    H180033   2.716   5.184   5.948 -0.7508  0.6041  1.4218
19514TIP3    H280034   2.622   5.072   5.989 -0.3303 -0.4896 -0.5256
19515TIP3   OH280035   6.232   2.338   3.310  0.2150  0.5526 -0.5877
19515TIP3    H180036   6.310   2.371   3.265  0.2720 -2.3616 -2.9963
19515TIP3    H280037   6.265   2.269   3.368 -0.4743 -0.9205 -1.8534
19516TIP3   OH280038   0.890   1.728   0.521  0.0437  0.1741  0.4538
19516TIP3    H180039   0.980   1.758   0.531  0.5435 -0.7033 -1.1634
19516TIP3    H280040   0.881   1.657   0.585  0.4487  0.3679  0.7248
19517TIP3   OH280041   3.578   1.923  13.428 -0.4240 -0.0295  0.4553
19517TIP3    H180042   3.655   1.970  13.460 -0.9403  0.4887  0.9424
19517TIP3    H280043   3.528   1.903  13.506 -1.7118  1.2550  0.0033
19518TIP3   OH280044   0.491   4.417   5.500 -0.5232 -0.6752 -0.2125
19518TIP3    H180045   0.544   4.450   5.427 -0.8324  0.3379  0.0057
19518TIP3    H280046   0.535   4.336   5.526  2.1914  1.1101  1.3082
19519TIP3   OH280047   1.387   6.223  16.775  0.2805 -0.2653 -0.6711
19519TIP3    H180048   1.293   6.236  16.767  0.1988 -0.5382 -0.2041
19519TIP3    H280049   1.397   6.129  16.791  0.6097 -0.1907 -0.4157
19520TIP3   OH280050   5.349   3.732   6.176  0.2581 -0.1328  0.0079
19520TIP3    H180051   5.272   3.763   6.128  1.6581  0.4397 -2.0212
19520TIP3    H280052   5.416   3.799   6.159  0.8269  0.1912  2.9859
19521TIP3   OH280053   5.764   0.107  13.124  0.2032 -0.3281  0.9090
19521TIP3    H180054   5.727   0.037  13.069  0.8791 -1.2697  1.6235
19521TIP3    H280055   5.826   0.151  13.067 -1.7542  1.1247 -0.2386
19522TIP3   OH280056   4.324   5.011  16.951  0.0247  0.1191 -0.1214
19522TIP3    H180057   4.247   5.063  16.974  0.1615  0.5967 -0.7463
19522TIP3    H280058   4.371   5.000  17.034 -0.0598  0.8928  0.0296
19523TIP3   OH280059   6.047   3.134   6.879  0.3866 -0.1964 -0.5141
19523TIP3    H180060   6.068   3.197   6.948  1.4489  0.7531 -1.6618
19523TIP3    H280061   5.967   3.168   6.840  0.6425  0.1358 -0.7567
19524TIP3   OH280062   3.032   5.078  16.201  0.2790 -0.2869 -0.1721
19524TIP3    H180063   3.080   5.152  16.165  1.2310  0.1326  1.8098
19524TIP3    H280064   3.045   5.007  16.138  3.0289 -0.0007 -0.0284
19525TIP3   OH280065   1.144   1.459  15.261  0.0077  0.0567 -0.5270
19525TIP3    H180066   1.106   1.437  15.176 -0.6197  0.4825 -0.3680
19525TIP3    H280067   1.089   1.531  15.293  0.6658  0.3673 -0.0740
19526TIP3   OH280068   4.570   5.448  11.329  0.5575  0.1526  0.3539
19526TIP3    H180069   4.553   5.412  11.242 -1.7348  0.9758  0.3932
19526TIP3    H280070   4.645   5.506  11.317 -1.4497  2.5479 -1.8300
19527TIP3   OH280071   1.152   2.963  16.780  0.4306 -0.2614  0.4046
19527TIP3    H180072   1.230   2.910  16.795 -0.1005 -1.0261  0.5121
19527TIP3    H280073   1.079   2.905  16.800 -0.2451 -0.2836 -1.8703
19528TIP3   OH280074   6.107   6.031  12.919  0.3979 -0.2018 -0.3086
19528TIP3    H180075   6.192   6.051  12.880  0.5301 -0.3485 -0.0989
19528TIP3    H280076   6.065   6.116  12.931 -0.2152 -0.2316 -2.0194
19529TIP3   OH280077   1.807   6.307   4.214  0.4231 -0.4149 -0.3210
19529TIP3    H180078   1.834   6.223   4.177 -1.0897 -0.3390 -1.7207
19529TIP3    H280079   1.840   6.372   4.152 -0.9515 -0.1918 -0.8527
19530TIP3   OH280080   0.384   5.498  14.294  0.1853  0.1722 -0.4387
19530TIP3    H180081   0.295   5.474  14.320 -0.2112  1.7713 -0.2243
19530TIP3    H280082   0.423   5.534  14.374  0.1141  1.9512 -1.1796
19531TIP3   OH280083   3.729   4.690  11.527  0.0549  0.1493 -0.9794
19531TIP3    H180084   3.799   4.724  11.472  0.8119 -2.5238 -1.8178
19531TIP3    H280085   3.697   4.613  11.480 -1.3573 -0.4735  0.8801
19532TIP3   OH280086   5.347   1.510   2.704  0.4108 -0.4778 -0.1348
19532TIP3    H180087   5.379   1.420   2.708 -0.9439 -0.9968 -0.5910
19532TIP3    H280088   5.294   1.513   2.625 -0.9358  0.2424  0.7556
19533TIP3   OH280089   0.395   1.336   4.136 -0.2223 -0.0986 -0.2149
19533TIP3    H180090   0.362   1.357   4.048  0.8856 -1.6165 -1.0507
19533TIP3    H280091   0.319   1.346   4.193 -1.6358 -1.4097 -1.7484
19534TIP3   OH280092   5.879   4.787   3.265  0.1014  0.4891  0.5690
19534TIP3    H180093   5.882   4.720   3.197 -2.3684  1.2634 -0.4251
19534TIP3    H280094   5.836   4.745   3.339 -2.0972  1.0340 -0.2970
19535TIP3   OH280095   3.310   2.826   2.392 -0.4714 -0.2951  0.1145
19535TIP3    H180096   3.333   2.761   2.326 -1.6929 -0.5958 -0.0410
19535TIP3    H280097   3.245   2.882   2.349  0.9420  1.3849  0.0519
19536TIP3   OH280098   4.899   3.358   5.151 -0.5400 -0.2233 -0.2201
19536TIP3    H180099   4.974   3.386   5.203 -1.9107  1.9384  0.7528
19536TIP3    H280100   4.914   3.265   5.134  1.1389 -0.4285  2.0037
19537TIP3   OH280101   1.181   4.123  16.953  0.1828 -0.3712 -0.1207
19537TIP3    H180102   1.107   4.107  16.894 -0.0145  2.1071 -0.6751
19537TIP3    H280103   1.257   4.090  16.907 -0.5195 -3.2284  0.5751
19538TIP3   OH280104   2.129   5.926  14.524  0.2601  0.2162 -0.0116
19538TIP3    H180105   2.217   5.941  14.491  0.0140  1.4085 -0.1921
19538TIP3    H280106   2.142   5.891  14.612  0.9396  1.4153  0.3917
19539TIP3   OH280107   5.901   2.961   3.311 -0.1658  0.6380  0.0571
19539TIP3    H180108   5.925   3.030   3.249  0.0760 -0.7884 -1.5447
19539TIP3    H280109   5.980   2.907   3.317 -0.6413 -0.0157  0.5171
19540TIP3   OH280110   0.917   5.602   5.555 -0.2664  0.4918  0.1318
19540TIP3    H180111   0.913   5.656   5.634  0.8959  0.1917  0.4157
19540TIP3    H280112   0.998   5.630   5.511 -0.2253 -0.2527 -0.2770
19541TIP3   OH280113   2.736   1.919  17.132  1.1113  0.4601  0.4557
19541TIP3    H180114   2.824   1.943  17.161  1.6619 -2.6975  1.8054
19541TIP3    H280115   2.680   1.938  17.207  0.9628  0.7096  0.2821
19542TIP3   OH280116   5.071   1.578   6.637  1.0393 -0.2316  0.1585
19542TIP3    H180117   4.975   1.578   6.642  0.8773 -0.8537 -1.8298
19542TIP3    H280118   5.093   1.671   6.626  0.4048 -0.2751 -1.9931
19543TIP3   OH280119   0.196   0.465   2.603  0.4158 -0.8312 -0.3732
19543TIP3    H180120   0.288   0.486   2.617  0.1075  0.1263  0.3532
19543TIP3    H280121   0.154   0.484   2.687 -0.7939  0.8104 -1.2966
19544TIP3   OH280122   4.559   0.492   5.837 -0.5527 -0.4658  0.4026
19544TIP3    H180123   4.493   0.423   5.851  0.1376 -1.6394 -1.6768
19544TIP3    H280124   4.554   0.545   5.916 -2.0050 -2.1695  1.5633
19545TIP3   OH280125   4.669   0.481  15.566  0.3144 -0.2286  0.4562
19545TIP3    H180126   4.708   0.415  15.509  1.1298 -0.3811  1.1705
19545TIP3    H280127   4.575   0.469  15.557  0.3571  0.4966 -1.7504
19546TIP3   OH280128   1.561   1.393  12.229  0.4347 -0.6521 -0.0885
19546TIP3    H180129   1.631   1.363  12.287  0.6418 -0.0593 -0.0227
19546TIP3    H280130   1.537   1.316  12.178  0.8601 -0.9615  0.1746
19547TIP3   OH280131   1.431   2.306   3.820 -0.0860  0.4995  0.0105
19547TIP3    H180132   1.416   2.351   3.736 -0.0319 -0.1547 -0.3542
19547TIP3    H280133   1.520   2.332   3.844  0.2186  0.0167 -0.5639
19548TIP3   OH280134   4.603   2.767   2.226  0.3420  0.1117 -0.1847
19548TIP3    H180135   4.678   2.709   2.233  0.2343 -0.4493 -2.6676
19548TIP3    H280136   4.640   2.855   2.227  0.7401 -0.0525  1.1621
19549TIP3   OH280137   0.539   1.281   1.327  0.2603 -0.2566 -0.0701
19549TIP3    H180138   0.617   1.249   1.371 -0.0159  1.1929  1.5918
19549TIP3    H280139   0.569   1.355   1.273  0.2825 -0.7819 -0.7954
19550TIP3   OH280140   1.501   0.358  12.352 -0.5362 -0.7675 -0.7286
19550TIP3    H180141   1.506   0.452  12.333 -1.3344 -0.9513 -1.9921
19550TIP3    H280142   1.451   0.352  12.433  1.4251 -0.0104  0.5962
19551TIP3   OH280143   2.266   4.653  10.370  0.4132  1.0015  0.4614
19551TIP3    H180144   2.220   4.579  10.332  1.2504  1.1691 -0.9691
19551TIP3    H280145   2.316   4.690  10.297  1.8940  1.5160  1.6804
19552TIP3   OH280146   0.827   4.322  13.486  0.5306  0.4075 -0.3524
19552TIP3    H180147   0.894   4.317  13.554  0.2594 -1.6589 -0.1739
19552TIP3    H280148   0.845   4.249  13.428 -1.9588 -0.7049  0.1282
19553TIP3   OH280149   6.490   6.770  12.950 -0.2712 -0.0466  0.2589
19553TIP3    H180150   6.523   6.716  12.878 -0.5127  0.7485 -0.4759
19553TIP3    H280151   6.555   6.839  12.961 -1.8670  1.9337 -1.6571
19554TIP3   OH280152   1.398   3.052   1.387  0.1370 -0.9692  0.4753
19554TIP3    H180153   1.320   3.006   1.358  0.3278 -0.0608 -1.6792
19554TIP3    H280154   1.470   2.993   1.365  0.2479 -0.5029 -0.4411
19555TIP3   OH280155   1.359   1.343   4.766  0.0492 -0.2276 -0.5205
19555TIP3    H180156   1.283   1.344   4.708  0.0032  0.0594 -0.4570
19555TIP3    H280157   1.403   1.261   4.746 -0.3253 -0.4397 -0.4973
19556TIP3   OH280158   5.012   3.386  15.962 -0.5409  0.4025  0.1329
19556TIP3    H180159   5.012   3.362  15.869 -0.6375  1.2695 -0.0971
19556TIP3    H280160   5.088   3.443  15.972  0.4301 -0.9556  0.9455
19557TIP3   OH280161   1.051   1.313  12.922  0.4459  0.3628  0.4971
19557TIP3    H180162   1.092   1.227  12.929  0.3278  0.2212 -0.4916
19557TIP3    H280163   0.979   1.309  12.985  0.7041 -0.0976  0.7768
19558TIP3   OH280164   0.586   1.007  14.132 -0.0436 -0.0305 -0.2623
19558TIP3    H180165   0.604   1.009  14.226  1.4429  0.8538 -0.5264
19558TIP3    H280166   0.516   0.944  14.122 -0.6105  0.2654  1.5079
19559TIP3   OH280167   2.581   3.221  15.803 -0.0148  0.0964  0.2802
19559TIP3    H180168   2.602   3.128  15.789 -2.0847 -0.2485 -0.9046
19559TIP3    H280169   2.495   3.219  15.845  0.1372  1.4987  0.6900
19560TIP3   OH280170   3.258   4.319   4.366  0.2401  0.6789  0.2708
19560TIP3    H180171   3.212   4.369   4.299  1.4415  2.5718  0.8070
19560TIP3    H280172   3.206   4.239   4.375 -1.3169  1.4673 -1.1499
19561TIP3   OH280173   5.594   2.278  11.825 -0.4825 -0.0108  0.8315
19561TIP3    H180174   5.546   2.347  11.779 -2.0816 -1.0430  0.8542
19561TIP3    H280175   5.579   2.200  11.772  0.7190 -0.4948  1.1750
19562TIP3   OH280176   2.439   3.765   6.110 -0.8095  0.2935 -0.6438
19562TIP3    H180177   2.364   3.782   6.167  0.0568  1.1674  0.2865
19562TIP3    H280178   2.485   3.693   6.153  1.3693  2.7137  1.4362
19563TIP3   OH280179   1.362   4.237  13.248  0.5494 -0.3364  0.3235
19563TIP3    H180180   1.406   4.295  13.185 -0.3406 -1.2643 -1.2131
19563TIP3    H280181   1.374   4.149  13.212 -3.2745 -0.6054 -0.7258
19564TIP3   OH280182   3.828   1.355   2.195  0.0169 -0.4398  0.4115
19564TIP3    H180183   3.818   1.407   2.115  2.0614  0.1480  0.4734
19564TIP3    H280184   3.898   1.400   2.244 -1.2403 -0.7205  2.5901
19565TIP3   OH280185   1.083   4.200   5.138 -0.3126  0.5054  0.1903
19565TIP3    H180186   1.105   4.146   5.062 -0.1502  0.0102  0.5831
19565TIP3    H280187   1.011   4.256   5.108 -0.4668  0.0876 -0.2285
19566TIP3   OH280188   0.165   0.145   0.340 -0.2567 -0.2291 -0.3507
19566TIP3    H180189   0.223   0.148   0.416  0.2935 -0.2149 -0.7597
19566TIP3    H280190   0.125   0.058   0.344 -0.4784 -0.1086  0.1307
19567TIP3   OH280191   4.663   3.894   5.745  0.8125 -0.3646  0.6298
19567TIP3    H180192   4.717   3.965   5.780  2.2109 -0.9393 -0.2665
19567TIP3    H280193   4.574   3.918   5.769  1.2676  1.6003  0.5322
19568TIP3   OH280194   4.826   1.382   3.005  0.1445 -0.0825 -0.4706
19568TIP3    H180195   4.820   1.396   3.100  1.5746  1.8229 -0.5962
19568TIP3    H280196   4.878   1.302   2.997 -0.7431 -0.7682  0.3359
19569TIP3   OH280197   1.229   3.013   2.244 -0.1620 -0.1047  0.0453
19569TIP3    H180198   1.179   3.090   2.217  0.0748  0.1089  0.2128
19569TIP3    H280199   1.162   2.946   2.261 -0.3183 -0.2029 -0.9352
19570TIP3   OH280200   3.082   1.354  13.007 -0.3413  0.6603  0.2210
19570TIP3    H180201   3.116   1.440  12.981  2.9773 -0.3457  0.7797
19570TIP3    H280202   3.100   1.298  12.931 -1.3810  0.1807  0.3155
19571TIP3   OH280203   0.100   1.925   2.296  0.1076 -0.3931  0.0715
19571TIP3    H180204   0.113   1.964   2.210  2.2164 -0.7194  0.2021
19571TIP3    H280205   0.072   1.835   2.277 -1.3502  0.0855 -0.2224
19572TIP3   OH280206   3.926   2.384  14.475 -0.4538  0.2178 -0.1723
19572TIP3    H180207   3.852   2.411  14.421 -0.6027 -1.3263 -0.7881
19572TIP3    H280208   3.912   2.429  14.558 -2.7155 -0.8839  0.1206
19573TIP3   OH280209   0.842   0.563   0.462  0.0987  0.2327  0.0505
19573TIP3    H180210   0.812   0.629   0.400 -1.7066 -1.4875 -1.0658
19573TIP3    H280211   0.823   0.600   0.548 -2.1770  0.6784 -0.5743
19574TIP3   OH280212   6.723   6.511  17.202  0.4476  0.0697 -0.1250
19574TIP3    H180213   6.730   6.483  17.293 -0.7883 -3.2493 -0.9273
19574TIP3    H280214   6.699   6.604  17.207  2.0019  0.4438  2.8369
19575TIP3   OH280215   3.207   0.321  12.104  0.3929 -0.4469 -0.2892
19575TIP3    H180216   3.140   0.296  12.168  0.2904  2.1642  0.7493
19575TIP3    H280217   3.173   0.290  12.020 -1.9335  0.3511  0.2839
19576TIP3   OH280218   0.178   1.762   2.030  0.5667 -0.2466 -0.4288
19576TIP3    H180219   0.180   1.852   1.996 -0.0429  0.6253  1.6960
19576TIP3    H280220   0.088   1.733   2.016 -0.3025  0.8955  2.1391
19577TIP3   OH280221   4.301   0.682   5.853  0.0318 -0.1626  0.2097
19577TIP3    H180222   4.318   0.691   5.946 -1.6252  1.3543  0.4147
19577TIP3    H280223   4.206   0.690   5.845  0.2859  2.0433 -1.7987
19578TIP3   OH280224   0.225   2.105  15.084  1.2967 -0.0127 -0.0567
19578TIP3    H180225   0.213   2.041  15.153  1.6671 -0.5175 -0.4550
19578TIP3    H280226   0.138   2.144  15.072  1.5701  1.3766  1.9082
19579TIP3   OH280227   5.255   3.869  11.412  0.1998 -0.1200 -0.5510
19579TIP3    H180228   5.194   3.892  11.342  1.1121 -0.1266 -1.3664
19579TIP3    H280229   5.259   3.774  11.410 -2.1114 -0.3570  1.5652
19580TIP3   OH280230   0.727   1.839   2.672 -0.2174  0.0062  0.5547
19580TIP3    H180231   0.726   1.869   2.581  0.3473  2.2079  1.2122
19580TIP3    H280232   0.634   1.832   2.696 -0.3670 -0.4354 -0.1195
19581TIP3   OH280233   2.247   5.978  16.633  0.1737  0.0349  0.5479
19581TIP3    H180234   2.268   5.965  16.726 -1.7560  1.5041  1.2605
19581TIP3    H280235   2.151   5.986  16.631 -0.0075 -1.5177 -1.8092
19582TIP3   OH280236   3.081   1.436   5.211 -0.7066  0.2441 -0.0426
19582TIP3    H180237   3.093   1.394   5.125  0.8904 -0.5360  0.5330
19582TIP3    H280238   3.020   1.378   5.257 -1.7216  0.7642 -0.6832
19583TIP3   OH280239   6.477   4.499  15.357 -0.0968  0.1682 -0.1778
19583TIP3    H180240   6.564   4.537  15.364 -0.3405  0.6770  0.1870
19583TIP3    H280241   6.445   4.528  15.271 -0.0809  0.3701 -0.1179
19584TIP3   OH280242   0.094   2.679   0.816  0.2828 -0.1703  0.5292
19584TIP3    H180243   0.006   2.645   0.834  0.2474 -0.0142  0.6518
19584TIP3    H280244   0.078   2.756   0.761  0.4111 -0.9694 -0.6805
19585TIP3   OH280245   3.616   5.233  15.277  0.1183  0.4705  0.3699
19585TIP3    H180246   3.662   5.172  15.334  0.6242  0.9340  0.4549
19585TIP3    H280247   3.643   5.208  15.188 -0.7438 -0.3123  0.3070
19586TIP3   OH280248   1.471   6.690   4.510 -1.0731  0.2830 -0.0858
19586TIP3    H180249   1.559   6.655   4.523 -0.4672  1.5643 -0.5479
19586TIP3    H280250   1.452   6.738   4.591 -1.6867 -0.6390  0.3344
19587TIP3   OH280251   6.347   5.575  14.591 -0.3736 -0.4605  0.6206
19587TIP3    H180252   6.388   5.642  14.646 -0.3601  0.2253 -0.2020
19587TIP3    H280253   6.254   5.597  14.592 -0.2602  0.1460 -0.3856
19588TIP3   OH280254   4.979   4.572   6.345  0.2590  0.2167  0.1571
19588TIP3    H180255   5.056   4.587   6.401 -0.5646  0.5966  1.2109
19588TIP3    H280256   4.909   4.622   6.387 -0.1576  1.3327 -1.7700
19589TIP3   OH280257   2.219   5.282  11.337  0.5431  0.2362  0.5111
19589TIP3    H180258   2.153   5.318  11.277  0.3977  1.0479  1.1389
19589TIP3    H280259   2.171   5.217  11.389  0.4176  0.3022  0.4788
19590TIP3   OH280260   6.410   4.774   5.205  0.7221 -0.4984  0.4240
19590TIP3    H180261   6.434   4.787   5.297  1.2307 -0.5458  0.3013
19590TIP3    H280262   6.471   4.829   5.157  2.1624 -2.3914 -0.0407
19591TIP3   OH280263   4.488   3.823  13.245  0.0677  0.1911  0.5458
19591TIP3    H180264   4.477   3.736  13.207 -0.4926  0.4932 -0.0182
19591TIP3    H280265   4.581   3.842  13.236  0.3631 -0.7122  1.5013
19592TIP3   OH280266   0.396   6.121  11.920  0.6302  0.0942  0.5850
19592TIP3    H180267   0.483   6.092  11.896  0.0520  0.0168 -1.6514
19592TIP3    H280268   0.397   6.216  11.905  0.5368  0.1992  1.2320
19593TIP3   OH280269   2.972   3.213  12.910 -0.0283 -0.4151  0.1422
19593TIP3    H180270   2.921   3.137  12.939 -1.3882  0.1260 -0.7302
19593TIP3    H280271   2.913   3.287  12.922  0.7298  0.3012 -0.4491
19594TIP3   OH280272   3.773   5.837   6.455 -0.3979  0.3364 -0.6447
19594TIP3    H180273   3.731   5.876   6.379 -1.2454 -0.4329 -0.5840
19594TIP3    H280274   3.790   5.746   6.429 -2.5652 -0.5436  0.7607
19595TIP3   OH280275   0.044   4.050  11.429 -0.5529 -0.4523 -0.3580
19595TIP3    H180276  -0.040   4.056  11.382 -0.2997 -0.6060 -0.8388
19595TIP3    H280277   0.056   4.136  11.469 -1.1407 -0.5586  0.0594
19596TIP3   OH280278   1.478   4.521  15.995 -0.2370  0.3184  0.2194
19596TIP3    H180279   1.449   4.601  15.950  0.9671 -0.1215 -1.4294
19596TIP3    H280280   1.433   4.450  15.948  0.0326 -0.0797  0.5587
19597TIP3   OH280281   3.753   1.966  14.352  0.1053 -0.4954  0.2955
19597TIP3    H180282   3.715   1.881  14.328 -1.7652  0.4085 -0.1735
19597TIP3    H280283   3.752   2.015  14.270  1.2160 -0.0282  0.5554
19598TIP3   OH280284   1.542   4.129  14.019 -0.0628 -0.0387 -0.5131
19598TIP3    H180285   1.466   4.187  14.023  0.2017  0.2620  0.1536
19598TIP3    H280286   1.510   4.045  14.052 -0.1444  0.0448 -0.3793
19599TIP3   OH280287   1.204   6.238   0.868  0.3545 -0.6142  0.3302
19599TIP3    H180288   1.216   6.163   0.927  2.6502 -0.0704  0.6268
19599TIP3    H280289   1.218   6.202   0.780  0.4972 -0.7112  0.3926
19600TIP3   OH280290   5.213   4.916  16.074  0.2435 -0.5467  1.0091
19600TIP3    H180291   5.181   4.960  16.153 -1.0465  0.0635  0.1873
19600TIP3    H280292   5.143   4.929  16.010  0.7586 -2.0369  0.1091
19601TIP3   OH280293   4.721   3.634   4.249  0.1326 -0.2158 -0.1540
19601TIP3    H180294   4.628   3.636   4.271  0.0769  1.8336 -0.3978
19601TIP3    H280295   4.723   3.631   4.153  0.2658  1.0548 -0.2134
19602TIP3   OH280296   2.594   1.499   3.884 -0.2632  0.3470  0.3584
19602TIP3    H180297   2.667   1.541   3.928 -1.0577 -0.5781  2.7067
19602TIP3    H280298   2.518   1.553   3.905 -0.4664  0.6827 -1.1285
19603TIP3   OH280299   3.267   0.669  16.987  0.1597  0.4726 -0.1086
19603TIP3    H180300   3.177   0.658  16.956 -0.1530  1.1071  0.5345
19603TIP3    H280301   3.316   0.599  16.944 -0.5474  0.4015 -0.8242
19604TIP3   OH280302   0.543   5.901  15.025 -0.1868  0.1850 -0.4837
19604TIP3    H180303   0.544   5.975  14.965  0.7903  1.1991  0.7257
19604TIP3    H280304   0.617   5.916  15.084 -0.0420 -1.6831 -0.1078
19605TIP3   OH280305   3.072   2.677   1.525  0.4042  0.5004 -0.0894
19605TIP3    H180306   3.082   2.637   1.612 -2.2962 -1.4251 -0.5443
19605TIP3    H280307   3.061   2.770   1.544  1.2991  0.3324  1.4922
19606TIP3   OH280308   2.188   4.463  16.489 -0.0585  0.3775  0.0816
19606TIP3    H180309   2.119   4.529  16.492 -0.6869 -0.2793  0.4684
19606TIP3    H280310   2.251   4.490  16.556 -0.0318  0.8769 -0.1435
19607TIP3   OH280311   2.411   2.656  16.481  0.5296  0.0637 -0.5481
19607TIP3    H180312   2.432   2.727  16.421  0.4804 -0.5026 -1.2357
19607TIP3    H280313   2.495   2.632  16.521  1.0879 -1.5119 -2.5397
19608TIP3   OH280314   2.082   0.974  12.751 -0.1170 -0.4400  0.1270
19608TIP3    H180315   2.167   0.956  12.712  0.1661 -1.6115  1.2250
19608TIP3    H280316   2.040   0.888  12.759 -0.9924  0.0075  0.5310
19609TIP3   OH280317   3.545   6.360  17.130  0.9470 -0.3354  0.0738
19609TIP3    H180318   3.540   6.446  17.089 -2.8043 -1.3132 -1.9958
19609TIP3    H280319   3.566   6.301  17.057 -0.3114 -1.5264  0.6412
19610TIP3   OH280320   5.564   6.773  12.854 -0.9248  0.2146 -0.9143
19610TIP3    H180321   5.624   6.751  12.783  0.3614 -0.1735  0.2393
19610TIP3    H280322   5.543   6.689  12.895  0.4394  0.5977  0.7287
19611TIP3   OH280323   6.695   6.507  15.148 -0.7133 -0.3691  0.5398
19611TIP3    H180324   6.675   6.413  15.146 -0.6211 -0.3950  0.8604
19611TIP3    H280325   6.701   6.529  15.241 -0.6769 -0.0564  0.4655
19612TIP3   OH280326   5.377   0.088   0.819 -0.0319 -0.1076 -0.0797
19612TIP3    H180327   5.294   0.052   0.851  0.2314  0.1616  0.9353
19612TIP3    H280328   5.444   0.035   0.861  0.3203 -0.1366 -0.6730
19613TIP3   OH280329   5.110   6.711  11.472 -0.2380 -0.1274  0.0242
19613TIP3    H180330   5.161   6.641  11.514  0.1686 -0.3131 -0.7635
19613TIP3    H280331   5.174   6.760  11.421 -0.4990  0.9263  0.6829
19614TIP3   OH280332   0.290   4.885  15.633  0.4572 -0.9573  0.4573
19614TIP3    H180333   0.366   4.929  15.594 -0.3375 -0.8262 -1.0370
19614TIP3    H280334   0.230   4.956  15.653  0.5971 -1.0864  1.3758
19615TIP3   OH280335   3.510   3.069  17.106  0.2429  0.4595 -0.1305
19615TIP3    H180336   3.422   3.088  17.075 -0.2269 -1.9637 -0.4285
19615TIP3    H280337   3.536   3.149  17.153 -1.7676  1.5239 -0.7048
19616TIP3   OH280338   2.515   3.362   2.421  0.3783  0.1553  0.0969
19616TIP3    H180339   2.475   3.437   2.378  0.4483  1.3266  1.9298
19616TIP3    H280340   2.489   3.371   2.513  4.3125  0.6998  1.3433
19617TIP3   OH280341   2.401   1.341   1.460 -0.2879 -0.4012 -0.1460
19617TIP3    H180342   2.359   1.259   1.433 -0.9476  0.1536 -0.8661
19617TIP3    H280343   2.489   1.336   1.423 -0.4803 -0.5831 -0.5984
19618TIP3   OH280344   5.209   1.822  14.512  0.1455  0.8968  0.1289
19618TIP3    H180345   5.214   1.726  14.521 -0.1562  0.9937  1.5447
19618TIP3    H280346   5.126   1.837  14.467  1.0472  0.4342 -1.7882
19619TIP3   OH280347   4.771   3.814  15.112 -0.0876 -0.0149  0.4528
19619TIP3    H180348   4.718   3.771  15.179 -0.3700 -0.7716 -0.2293
19619TIP3    H280349   4.730   3.899  15.099 -1.1628 -0.5790 -0.0518
19620TIP3   OH280350   5.121   3.613   2.397 -0.0270  0.4333  0.2464
19620TIP3    H180351   5.096   3.604   2.305  0.7499 -2.4825  0.2298
19620TIP3    H280352   5.169   3.696   2.400 -0.7695  1.0040 -1.7975
19621TIP3   OH280353   2.245   6.336  15.454 -0.0066 -0.0528  0.6224
19621TIP3    H180354   2.206   6.300  15.534 -1.1922  2.5647  1.3563
19621TIP3    H280355   2.332   6.365  15.481 -0.7245  1.6259  1.2854
19622TIP3   OH280356   2.261   1.629   0.246 -0.0144 -0.2330  0.6361
19622TIP3    H180357   2.277   1.549   0.196 -0.3526  0.3847 -0.4884
19622TIP3    H280358   2.272   1.602   0.337 -0.7331 -1.7082  0.3231
19623TIP3   OH280359   1.357   5.285   4.519 -0.2393 -0.2928 -0.9292
19623TIP3    H180360   1.294   5.320   4.456 -1.5187 -0.5359  0.1733
19623TIP3    H280361   1.388   5.204   4.479 -2.8341 -1.7218 -0.2994
19624TIP3   OH280362   0.534   5.949   5.180  0.1285  0.4375 -0.1903
19624TIP3    H180363   0.496   5.972   5.096 -0.1993 -1.0392 -0.4771
19624TIP3    H280364   0.625   5.980   5.174 -0.1913  1.3007 -0.6652
19625TIP3   OH280365   0.795   3.229   3.470  0.9136 -0.1117 -0.2288
19625TIP3    H180366   0.752   3.151   3.507  0.4496 -0.7291 -1.9795
19625TIP3    H280367   0.737   3.301   3.492  0.2208 -0.5833 -0.4804
19626TIP3   OH280368   4.636   6.741  16.795 -0.4649 -0.0468 -0.2802
19626TIP3    H180369   4.599   6.751  16.707  1.8537 -1.6928 -1.5568
19626TIP3    H280370   4.573   6.684  16.840 -0.4133 -1.3635 -1.7862
19627TIP3   OH280371   0.135   5.667  13.082  0.2651 -0.2468 -0.4250
19627TIP3    H180372   0.138   5.640  12.990  0.4050  0.5554 -0.6649
19627TIP3    H280373   0.097   5.755  13.080  1.0518  0.1181  0.2120
19628TIP3   OH280374   4.514   4.796  10.355 -0.2574 -0.2030  0.4337
19628TIP3    H180375   4.423   4.776  10.332 -0.4801 -0.4891  1.4994
19628TIP3    H280376   4.528   4.885  10.323 -0.7402 -0.3554 -0.2181
19629TIP3   OH280377   2.764   0.753  15.480  0.3276 -0.0024 -0.4819
19629TIP3    H180378   2.789   0.716  15.395 -0.9571  0.3810 -1.0552
19629TIP3    H280379   2.796   0.690  15.544  1.5524 -0.1729 -1.2270
19630TIP3   OH280380   2.968   4.461   3.697 -0.1424 -0.0657 -0.3130
19630TIP3    H180381   3.057   4.481   3.670 -0.1517 -1.3402 -1.3724
19630TIP3    H280382   2.920   4.451   3.615 -0.9821 -0.5764  0.2248
19631TIP3   OH280383   0.913   2.767  12.640 -0.4260  0.6383  0.2786
19631TIP3    H180384   0.955   2.820  12.572  0.8822  1.4228  1.6470
19631TIP3    H280385   0.868   2.831  12.695 -0.3246  0.1525  0.9305
19632TIP3   OH280386   0.747   1.914   1.465  0.2852  0.3172 -0.0504
19632TIP3    H180387   0.839   1.939   1.458  0.2675  0.1580 -0.9618
19632TIP3    H280388   0.733   1.899   1.559  1.2001  0.2754  0.0858
19633TIP3   OH280389   2.387   5.146   5.860 -0.2464  0.6194  0.0684
19633TIP3    H180390   2.317   5.210   5.862 -1.3571 -0.5223 -0.6765
19633TIP3    H280391   2.406   5.128   5.952 -1.7963  0.0508  0.3041
19634TIP3   OH280392   1.426   6.118   3.424  0.5059  0.3297 -0.6823
19634TIP3    H180393   1.508   6.090   3.384  0.0446 -1.4819 -0.4896
19634TIP3    H280394   1.358   6.078   3.369 -0.2515  1.4441 -0.5951
19635TIP3   OH280395   1.563   4.687   4.202  0.1527  0.5902  0.1572
19635TIP3    H180396   1.547   4.645   4.117 -1.0170 -1.4501  1.3129
19635TIP3    H280397   1.550   4.780   4.185 -4.0618  0.0052 -1.1654
19636TIP3   OH280398   5.874   3.231   1.176  0.4430 -0.2572 -0.4165
19636TIP3    H180399   5.779   3.224   1.165  0.3901 -0.1886 -0.0228
19636TIP3    H280400   5.885   3.271   1.262  0.8370 -0.8074 -0.2035
19637TIP3   OH280401   2.403   5.094   3.848  0.4356 -0.1233  0.8318
19637TIP3    H180402   2.371   5.011   3.812 -1.1991  0.5148  0.7504
19637TIP3    H280403   2.496   5.095   3.826 -0.3256  0.0415 -3.1032
19638TIP3   OH280404   5.589   3.841  12.047  0.2764  0.0477  0.1178
19638TIP3    H180405   5.679   3.869  12.031  0.0094  0.6321 -0.3729
19638TIP3    H280406   5.598   3.763  12.102  1.0475  0.8943  1.2326
19639TIP3   OH280407   0.655   0.066   0.896  0.1156  0.1235 -0.1603
19639TIP3    H180408   0.674  -0.023   0.924 -1.4485 -0.5707 -1.1803
19639TIP3    H280409   0.560   0.071   0.893  0.1635  1.9299  0.1481
19640TIP3   OH280410   1.022   4.074  16.046  0.4998  0.0064 -0.2555
19640TIP3    H180411   1.085   4.034  15.986  0.2326  0.0746 -0.5812
19640TIP3    H280412   1.036   4.168  16.036 -1.2127  0.1279 -2.0466
19641TIP3   OH280413   6.804   5.088   4.105  0.1314 -0.0312  0.2220
19641TIP3    H180414   6.771   5.175   4.129  1.5705  0.1953  1.5800
19641TIP3    H280415   6.733   5.048   4.055 -0.4605  2.0364 -0.7083
19642TIP3   OH280416   1.215   0.899   5.708  0.4599 -0.0793  0.2033
19642TIP3    H180417   1.230   0.879   5.800 -0.0284 -1.9213 -0.0834
19642TIP3    H280418   1.159   0.828   5.677  1.8841 -0.3686 -1.8944
19643TIP3   OH280419   6.408   3.770   6.276 -0.1479 -0.5212 -0.2416
19643TIP3    H180420   6.482   3.728   6.320  1.1108  0.7925 -1.0031
19643TIP3    H280421   6.346   3.790   6.346 -0.0485 -2.1358  0.3398
19644TIP3   OH280422   0.549   0.148   5.967  0.4802 -0.4275  0.4867
19644TIP3    H180423   0.556   0.121   6.059  2.2459 -0.7154  0.2949
19644TIP3    H280424   0.622   0.104   5.923 -0.1564 -0.0473 -1.0004
19645TIP3   OH280425   5.233   2.244   2.737  0.4784  0.1127  0.1438
19645TIP3    H180426   5.205   2.276   2.822  2.6680  0.6759  0.7237
19645TIP3    H280427   5.183   2.163   2.724  0.3516 -0.1743  2.1270
19646TIP3   OH280428   4.472   5.115  16.216 -0.1058 -0.8187 -0.0528
19646TIP3    H180429   4.520   5.145  16.139  1.5247  0.0342  1.2214
19646TIP3    H280430   4.536   5.063  16.265 -0.3679  0.4495  1.7617
19647TIP3   OH280431   4.794   3.248  11.318 -0.4587 -0.1693 -0.0896
19647TIP3    H180432   4.767   3.194  11.392 -0.9489 -1.8724 -1.4622
19647TIP3    H280433   4.819   3.186  11.250 -2.2192  1.2523 -2.1862
19648TIP3   OH280434   6.002   5.706   1.537  0.5576 -0.0435 -0.0572
19648TIP3    H180435   6.054   5.769   1.487  0.6004 -0.4774 -0.5758
19648TIP3    H280436   6.034   5.620   1.509  0.6433 -0.2983  0.7957
19649TIP3   OH280437   4.826   5.500  13.595 -0.0633  0.0786 -0.0362
19649TIP3    H180438   4.822   5.405  13.594 -0.1204  0.0466  1.3156
19649TIP3    H280439   4.913   5.522  13.564  0.4724 -0.4796  1.0369
19650TIP3   OH280440   5.750   2.953   1.919 -0.5358  0.2654 -0.9227
19650TIP3    H180441   5.803   2.971   1.996 -0.3958 -2.2358 -0.3493
19650TIP3    H280442   5.701   3.033   1.904 -0.5467  0.8319  1.7518
19651TIP3   OH280443   4.265   3.852   2.073  0.3655 -0.4457  0.2855
19651TIP3    H180444   4.355   3.818   2.070  1.2789  1.0820 -6.4849
19651TIP3    H280445   4.210   3.774   2.072  1.6802 -1.4450  1.7265
19652TIP3   OH280446   3.251   2.763  14.255  0.0646 -0.0727  0.1667
19652TIP3    H180447   3.218   2.826  14.319 -0.1570 -1.0175  0.9925
19652TIP3    H280448   3.172   2.722  14.219  0.2301 -0.3934  0.1635
19653TIP3   OH280449   4.631   2.762  16.267  0.0676  0.3298 -0.1020
19653TIP3    H180450   4.669   2.737  16.352  1.8401  0.9532 -0.6522
19653TIP3    H280451   4.554   2.707  16.258  0.8896 -1.1077  1.0860
19654TIP3   OH280452   2.861   3.708   3.751  0.2226  0.3518 -0.5516
19654TIP3    H180453   2.858   3.681   3.659  0.7436  2.6240 -1.2947
19654TIP3    H280454   2.769   3.725   3.774  0.0391 -0.6503 -0.4696
19655TIP3   OH280455   2.026   1.308  16.128 -0.1562  0.4640 -0.1256
19655TIP3    H180456   1.948   1.329  16.179  0.3248  0.2429  0.7253
19655TIP3    H280457   1.999   1.235  16.072 -0.6444  0.5837 -0.0521
19656TIP3   OH280458   2.628   3.907  11.996 -0.0938  0.6883  0.4381
19656TIP3    H180459   2.657   3.927  11.907  1.4980 -0.1895  0.7152
19656TIP3    H280460   2.598   3.991  12.031  2.0047  1.6762  0.0403
19657TIP3   OH280461   5.603   4.653  16.036  0.4312  0.1915  1.1848
19657TIP3    H180462   5.511   4.658  16.011  0.8888  0.9269 -0.4655
19657TIP3    H280463   5.617   4.562  16.061 -0.4411 -0.2267  0.1865
19658TIP3   OH280464   2.780   3.693  13.147 -0.3239  0.5070 -0.3937
19658TIP3    H180465   2.800   3.771  13.095  0.9739  0.5017  0.0778
19658TIP3    H280466   2.767   3.726  13.236 -0.3924  0.2548 -0.3113
19659TIP3   OH280467   6.026   1.394   2.300  0.7204  0.2030 -0.0997
19659TIP3    H180468   6.050   1.374   2.391 -1.2461  0.6369  0.5583
19659TIP3    H280469   5.964   1.466   2.307  0.7270  0.4051 -1.8200
19660TIP3   OH280470   1.959   3.738   6.467  0.3480  0.2480 -0.0545
19660TIP3    H180471   1.946   3.657   6.515 -0.1717  1.2539  1.5986
19660TIP3    H280472   1.978   3.711   6.378  0.4798 -1.6804  0.5243
19661TIP3   OH280473   1.634   6.635  13.174  0.2037  0.0633  0.0551
19661TIP3    H180474   1.591   6.596  13.098  0.0651 -2.3041  1.2495
19661TIP3    H280475   1.727   6.620  13.160  0.0767 -2.5402  1.3173
19662TIP3   OH280476   0.027   2.169  16.897  0.2985  0.6034  0.5748
19662TIP3    H180477  -0.013   2.235  16.841 -0.3131 -0.4996 -0.3319
19662TIP3    H280478   0.119   2.166  16.869  0.3969  1.2600  0.8170
19663TIP3   OH280479   1.553   3.955  13.163  0.0676  0.0335  0.1436
19663TIP3    H180480   1.593   3.887  13.217  0.0857 -0.6699 -0.7442
19663TIP3    H280481   1.495   3.907  13.103 -0.1401  0.8266 -0.3011
19664TIP3   OH280482   6.805   0.889   1.345 -0.6940 -0.2830 -0.3529
19664TIP3    H180483   6.832   0.811   1.298 -0.5332  0.6544 -1.8838
19664TIP3    H280484   6.723   0.916   1.303 -1.3996 -0.2926  0.9583
19665TIP3   OH280485   6.285   1.677   0.745 -0.1427 -0.5924  0.0871
19665TIP3    H180486   6.307   1.689   0.837 -2.2569 -1.5184  0.7773
19665TIP3    H280487   6.236   1.755   0.721  1.7314  0.3974 -0.7824
19666TIP3   OH280488   0.348   3.682  15.207  0.6246 -0.0285  0.3770
19666TIP3    H180489   0.377   3.592  15.195  1.8192  0.4374 -0.4467
19666TIP3    H280490   0.387   3.730  15.134  0.1199  1.1862  0.8726
19667TIP3   OH280491   3.461   0.458   5.527 -0.2202  0.4070 -0.2135
19667TIP3    H180492   3.434   0.403   5.600 -0.2510  0.0586 -0.4858
19667TIP3    H280493   3.448   0.548   5.559 -1.5305  0.2551 -0.2760
19668TIP3   OH280494   4.776   2.391  11.745 -0.7328  0.0988 -0.5065
19668TIP3    H180495   4.800   2.298  11.743 -2.2166 -0.4213  2.1491
19668TIP3    H280496   4.845   2.434  11.694 -0.0478 -2.4267 -1.9016
19669TIP3   OH280497   5.100   6.661  13.750  0.3051 -0.1338 -0.2777
19669TIP3    H180498   5.050   6.669  13.669  0.9302 -1.8990 -0.8999
19669TIP3    H280499   5.179   6.613  13.725  0.6711 -0.4382  1.3114
19670TIP3   OH280500   5.620   1.960   5.275 -0.1313  0.5800 -0.0047
19670TIP3    H180501   5.656   1.873   5.259  1.1252  1.3346 -1.7054
19670TIP3    H280502   5.526   1.951   5.257  0.0505 -0.3318 -0.5641
19671TIP3   OH280503   0.877   0.441  13.922  0.8057  0.6786 -0.3764
19671TIP3    H180504   0.817   0.379  13.880  0.7343 -0.2542  1.0512
19671TIP3    H280505   0.851   0.527  13.887  0.4864 -0.0065 -1.8831
19672TIP3   OH280506   5.502   2.129  16.355 -0.0353 -0.1304  0.3153
19672TIP3    H180507   5.544   2.209  16.325 -0.4650  0.0043  0.0644
19672TIP3    H280508   5.517   2.065  16.285 -0.0604 -0.1444  0.3217
19673TIP3   OH280509   6.733   0.463  15.716 -0.3751 -0.0567  0.1928
19673TIP3    H180510   6.645   0.489  15.692 -0.3187  0.6146  0.6679
19673TIP3    H280511   6.763   0.408  15.644 -0.7427  0.6804 -0.5338
19674TIP3   OH280512   1.764   2.934   4.703 -0.2780  0.3504 -0.1512
19674TIP3    H180513   1.809   2.872   4.645  0.2743  0.2073  0.4193
19674TIP3    H280514   1.832   2.964   4.763 -0.8951  0.3267  0.5717
19675TIP3   OH280515   3.042   5.321   0.259  0.0688 -0.4604 -0.0180
19675TIP3    H180516   3.026   5.228   0.274  0.8652 -0.4747  0.8603
19675TIP3    H280517   3.068   5.355   0.345  0.6499  0.3843 -0.5099
19676TIP3   OH280518   1.357   2.976  14.084  0.0209  0.1169 -0.0229
19676TIP3    H180519   1.300   3.031  14.138  0.3699 -0.6202  1.1263
19676TIP3    H280520   1.373   3.028  14.005 -0.2480  1.3567  0.7186
19677TIP3   OH280521   2.659   6.713   1.956  0.0929  0.1297 -0.6199
19677TIP3    H180522   2.593   6.774   1.924  0.6491  0.2164 -1.6210
19677TIP3    H280523   2.646   6.634   1.904  0.8504  0.1886 -0.9097
19678TIP3   OH280524   6.642   3.780  16.540 -0.0405 -0.2367 -0.2017
19678TIP3    H180525   6.628   3.726  16.617 -0.0281  0.7120  0.4876
19678TIP3    H280526   6.560   3.828  16.529 -0.9029 -2.0132 -2.1644
19679TIP3   OH280527   5.837   6.220   5.442 -0.0224  0.1258 -0.8602
19679TIP3    H180528   5.812   6.287   5.506  1.6598 -0.6492  0.7113
19679TIP3    H280529   5.761   6.163   5.436 -0.4545  0.6008 -0.0396
19680TIP3   OH280530   0.778   5.331  11.433 -0.4263 -0.2690 -0.0885
19680TIP3    H180531   0.811   5.258  11.485 -1.9812 -1.0886 -0.1853
19680TIP3    H280532   0.821   5.321  11.348  1.6210  0.6989  0.7696
19681TIP3   OH280533   3.349   4.237   4.015  0.6393 -0.1591  0.2127
19681TIP3    H180534   3.279   4.295   4.046  0.5391 -0.5150  0.6713
19681TIP3    H280535   3.408   4.294   3.967  0.7261  0.4021  0.9651
19682TIP3   OH280536   0.752   4.984  13.790 -0.3376 -0.4441 -0.0033
19682TIP3    H180537   0.765   5.079  13.785 -1.9319 -0.1674  0.4789
19682TIP3    H280538   0.833   4.951  13.828 -0.3035  0.9096  1.1926
19683TIP3   OH280539   1.387   2.860   2.957  0.0754  0.3100 -0.5314
19683TIP3    H180540   1.306   2.870   2.908  0.0941  2.1819 -0.2332
19683TIP3    H280541   1.358   2.843   3.047 -0.0948  2.8686 -0.0207
19684TIP3   OH280542   3.094   5.905   2.245  0.1786  0.0547  0.5954
19684TIP3    H180543   3.051   5.970   2.189 -0.7600 -0.0786  1.1474
19684TIP3    H280544   3.188   5.917   2.227  0.0164  1.3869  0.4973
19685TIP3   OH280545   5.424   5.151  16.422 -0.7571  0.2508  0.0652
19685TIP3    H180546   5.454   5.062  16.401  0.4437  0.5566  0.4181
19685TIP3    H280547   5.464   5.170  16.507 -2.1651  0.6010  0.6689
19686TIP3   OH280548   0.494   0.664   1.965 -0.8530 -0.0408  0.7118
19686TIP3    H180549   0.434   0.704   1.903  1.0629  0.1508 -1.1168
19686TIP3    H280550   0.505   0.574   1.934 -0.9204 -0.3732  1.6037
19687TIP3   OH280551   1.947   4.061  11.662  0.3596 -0.1792 -0.0166
19687TIP3    H180552   1.990   3.997  11.604  0.6653 -0.9934  1.0852
19687TIP3    H280553   1.948   4.020  11.748  0.9918  1.5307  0.8240
19688TIP3   OH280554   0.240   1.702   1.258 -0.1438 -0.0858 -0.2498
19688TIP3    H180555   0.289   1.648   1.196  1.9243 -0.3654  1.5378
19688TIP3    H280556   0.208   1.776   1.206  0.5240 -0.9038 -1.8730
19689TIP3   OH280557   0.541   6.456   0.797  0.1156  0.2114  0.2743
19689TIP3    H180558   0.525   6.363   0.811 -1.0709  0.4340  0.4665
19689TIP3    H280559   0.578   6.461   0.709  0.4679 -0.4653  0.3781
19690TIP3   OH280560   3.249   3.935  12.919  0.1490 -0.2586  0.1010
19690TIP3    H180561   3.272   3.900  13.005  2.5205  1.8768  0.4423
19690TIP3    H280562   3.180   3.998  12.936  0.1938 -0.2779  0.3558
19691TIP3   OH280563   3.986   0.392  16.979 -0.3083  0.4138 -0.1596
19691TIP3    H180564   3.912   0.423  16.926 -0.5451 -0.6113 -0.4401
19691TIP3    H280565   4.054   0.458  16.965 -1.4471  1.8738  0.8139
19692TIP3   OH280566   4.053   1.409  16.821 -0.6488 -0.3973 -0.0858
19692TIP3    H180567   3.986   1.359  16.868 -0.6949  1.4486  1.9981
19692TIP3    H280568   4.006   1.485  16.787 -0.2850 -0.9302 -1.8985
19693TIP3   OH280569   0.699   6.323   5.494  0.1970 -0.2536 -0.1066
19693TIP3    H180570   0.669   6.258   5.557 -1.1081  0.1433 -0.2902
19693TIP3    H280571   0.794   6.318   5.498  0.1368 -0.4401  1.6676
19694TIP3   OH280572   6.036   3.961   1.101  0.0270 -0.1167  0.2807
19694TIP3    H180573   6.094   3.960   1.177  0.5375 -2.1909 -0.0591
19694TIP3    H280574   5.959   3.912   1.130 -0.1032 -0.2545 -0.2794
19695TIP3   OH280575   0.328   1.367  15.490 -0.3182  0.5667 -0.0843
19695TIP3    H180576   0.378   1.428  15.435 -0.0272 -0.1228 -0.6013
19695TIP3    H280577   0.364   1.378  15.577  0.2953  0.5523 -0.3307
19696TIP3   OH280578   5.889   0.927   4.684  0.1475 -0.1929 -0.0876
19696TIP3    H180579   5.935   0.844   4.681  0.2579 -0.2935  2.2779
19696TIP3    H280580   5.810   0.909   4.735 -1.1026  0.6280 -1.6462
19697TIP3   OH280581   2.184   3.703  16.121 -0.3239  0.1126  0.4087
19697TIP3    H180582   2.095   3.672  16.101 -0.0452  0.1045 -0.9123
19697TIP3    H280583   2.203   3.765  16.051  0.4946  0.5614  1.0237
19698TIP3   OH280584   4.110   0.718  14.406  1.0333  0.4303  0.3160
19698TIP3    H180585   4.035   0.698  14.462  0.4611  0.8249 -0.2993
19698TIP3    H280586   4.124   0.812  14.418  0.0780  0.7977 -1.1797
19699TIP3   OH280587   6.589   5.551  13.753  0.5156 -0.0922  0.4541
19699TIP3    H180588   6.575   5.529  13.661  0.0563  2.2688 -0.1108
19699TIP3    H280589   6.684   5.559  13.761  0.9447 -4.0005  1.2227
19700TIP3   OH280590   0.291   0.584  15.142  0.2898  0.0711  0.5541
19700TIP3    H180591   0.251   0.500  15.118 -0.1623  0.5820 -0.5500
19700TIP3    H280592   0.377   0.583  15.101 -0.2615  0.7107 -0.6551
19701TIP3   OH280593   0.794   4.209  16.763  0.1894 -0.4573  0.7198
19701TIP3    H180594   0.885   4.232  16.741 -0.4001  1.2378 -0.1151
19701TIP3    H280595   0.746   4.220  16.681 -0.5249 -3.0262  0.7191
19702TIP3   OH280596   4.216   1.834   1.603  0.6155 -0.3180  0.5574
19702TIP3    H180597   4.128   1.797   1.591  0.5401  0.4685 -2.0001
19702TIP3    H280598   4.268   1.796   1.533  1.4017  1.7722 -0.0749
19703TIP3   OH280599   3.472   3.685  11.178  0.0630 -0.5894  0.6380
19703TIP3    H180600   3.419   3.733  11.241  1.8614 -1.3093  2.8066
19703TIP3    H280601   3.427   3.699  11.094 -2.7875 -0.1181  2.1114
19704TIP3   OH280602   0.419   5.642  14.549 -0.1209  0.4369  0.2233
19704TIP3    H180603   0.492   5.704  14.551 -0.1624  0.6254 -2.0757
19704TIP3    H280604   0.343   5.694  14.523 -0.7702 -0.0763  1.0170
19705TIP3   OH280605   5.276   4.373   2.272  0.1897  0.2113  0.0187
19705TIP3    H180606   5.222   4.428   2.329  0.9584  0.3817  0.6031
19705TIP3    H280607   5.264   4.411   2.184 -0.4106  0.4163  0.1839
19706TIP3   OH280608   0.278   4.638  15.737 -0.3270 -0.0119  0.0705
19706TIP3    H180609   0.286   4.724  15.694  0.1097  0.4521  1.0483
19706TIP3    H280610   0.365   4.621  15.771 -1.1314  0.7071  2.7357
19707TIP3   OH280611   2.332   1.117   1.302  0.0823 -0.0174 -0.1907
19707TIP3    H180612   2.365   1.040   1.257 -1.1160 -1.8416  1.8109
19707TIP3    H280613   2.289   1.082   1.380  0.0191  2.7442  1.1457
19708TIP3   OH280614   6.520   1.546  16.817 -0.5059 -0.3556  0.3932
19708TIP3    H180615   6.507   1.630  16.772 -2.0403 -1.2819 -0.9735
19708TIP3    H280616   6.455   1.546  16.887 -0.7690 -0.5590  0.1498
19709TIP3   OH280617   1.251   6.807  13.099 -0.0787  0.2130 -0.0980
19709TIP3    H180618   1.225   6.891  13.138  1.8517  1.6353 -1.6054
19709TIP3    H280619   1.218   6.812  13.009 -1.8832 -1.7072  0.3699
19710TIP3   OH280620   4.253   2.256  12.310 -0.1219  0.4841 -0.2141
19710TIP3    H180621   4.158   2.267  12.312 -0.2525 -0.4919 -0.5478
19710TIP3    H280622   4.270   2.205  12.231  0.6724  0.5520 -0.0977
19711TIP3   OH280623   2.668   2.676   2.070 -0.1258 -0.4838  0.5655
19711TIP3    H180624   2.670   2.771   2.081  0.3270 -0.2834 -1.0002
19711TIP3    H280625   2.688   2.641   2.157  0.2071  0.8582  1.0481
19712TIP3   OH280626   3.421   1.308   2.763  0.2670 -0.1708 -0.2302
19712TIP3    H180627   3.412   1.321   2.668 -0.1232 -0.5622 -0.2449
19712TIP3    H280628   3.399   1.216   2.777 -0.0603 -0.0151  0.2922
19713TIP3   OH280629   4.551   5.839  16.482  0.4488 -0.1802  0.3318
19713TIP3    H180630   4.599   5.784  16.420  2.3592  0.0623  1.4964
19713TIP3    H280631   4.600   5.921  16.484 -0.6407  0.4798  0.8120
19714TIP3   OH280632   0.630   4.334  13.288 -0.1408  0.0591 -0.5881
19714TIP3    H180633   0.683   4.335  13.208  0.7908 -0.0204  0.0091
19714TIP3    H280634   0.694   4.330  13.359 -0.9127 -3.2336  0.1192
19715TIP3   OH280635   0.738   4.546   4.900  0.0809  0.0725 -0.2307
19715TIP3    H180636   0.773   4.522   4.814 -0.7938  2.5589 -1.3771
19715TIP3    H280637   0.812   4.580   4.949  0.5570 -1.2366 -0.0006
19716TIP3   OH280638   0.874   0.153  13.688  0.0103 -0.7208 -0.3224
19716TIP3    H180639   0.798   0.138  13.745  0.4639 -2.5831 -0.1454
19716TIP3    H280640   0.922   0.070  13.691  1.8473  0.2933 -0.7388
19717TIP3   OH280641   5.049   2.310  15.741 -0.0833 -0.3942 -0.0874
19717TIP3    H180642   5.033   2.277  15.653 -3.1846  1.0270 -0.1924
19717TIP3    H280643   5.071   2.402  15.729  1.1649 -0.5859  0.5722
19718TIP3   OH280644   2.459   6.809   3.006  0.1789 -0.1873 -1.1022
19718TIP3    H180645   2.454   6.724   2.964 -1.5749  0.0475 -1.4658
19718TIP3    H280646   2.520   6.860   2.953  1.4506 -1.2740 -0.7186
19719TIP3   OH280647   0.653   1.456  11.535  0.1815  0.6229 -0.1360
19719TIP3    H180648   0.629   1.549  11.531  1.3255  0.8724 -2.2813
19719TIP3    H280649   0.608   1.416  11.461 -0.8168 -0.7205  1.1226
19720TIP3   OH280650   2.666   3.430  12.129 -0.3530  0.1527 -0.2843
19720TIP3    H180651   2.700   3.482  12.057 -0.3103 -0.2034 -0.5214
19720TIP3    H280652   2.731   3.362  12.143  0.7869  1.5425  1.6038
19721TIP3   OH280653   4.361   0.886  15.088  0.3513 -0.4706  0.0248
19721TIP3    H180654   4.376   0.893  15.182  0.8613 -1.9890  0.0857
19721TIP3    H280655   4.435   0.834  15.055 -0.6594 -1.3809 -0.9249
19722TIP3   OH280656   6.083   1.247   3.790  0.3092  0.0123  0.4314
19722TIP3    H180657   6.020   1.268   3.858  0.6012 -0.7447  0.9436
19722TIP3    H280658   6.030   1.238   3.710 -0.2718 -0.8917  0.9074
19723TIP3   OH280659   0.357   0.971  10.846 -0.3624 -0.1411  0.1379
19723TIP3    H180660   0.360   0.995  10.753 -0.7713  1.5686  0.5143
19723TIP3    H280661   0.446   0.985  10.877 -0.3283 -0.2652  0.0940
19724TIP3   OH280662   6.120   2.934  17.036 -0.2551  0.3011 -0.1931
19724TIP3    H180663   6.040   2.951  16.986 -0.6914  0.6278  0.5952
19724TIP3    H280664   6.103   2.973  17.122  0.6340  0.1000  0.0817
19725TIP3   OH280665   2.644   4.017  13.727  0.3612 -0.1830 -0.2021
19725TIP3    H180666   2.637   4.108  13.756  1.4013 -0.0334 -0.3767
19725TIP3    H280667   2.554   3.991  13.707 -0.0253  0.5975  0.4687
19726TIP3   OH280668   3.656   2.252  12.574  0.4610 -0.2529 -0.1030
19726TIP3    H180669   3.719   2.231  12.643 -0.8633 -0.1265  1.2071
19726TIP3    H280670   3.625   2.340  12.595  0.4449  0.0231 -1.2044
19727TIP3   OH280671   0.080   0.815   2.069  0.1104  0.3507 -0.0621
19727TIP3    H180672   0.019   0.784   2.002  0.0063 -0.2861  0.3105
19727TIP3    H280673   0.142   0.743   2.080 -0.7172 -0.1746  1.5303
19728TIP3   OH280674   0.296   4.368   2.047 -0.0996 -0.0174  0.0890
19728TIP3    H180675   0.221   4.397   2.100  0.2674 -0.6323  0.9609
19728TIP3    H280676   0.266   4.286   2.007 -1.2127  1.5369 -2.5405
19729TIP3   OH280677   2.301   4.281   0.695  0.1158  0.9141 -0.7495
19729TIP3    H180678   2.228   4.275   0.757  1.3802 -0.1352  0.6978
19729TIP3    H280679   2.357   4.349   0.731  1.0675  0.0129 -0.4814
19730TIP3   OH280680   5.979   2.968  16.166  0.4085 -0.2075  0.2945
19730TIP3    H180681   5.933   2.913  16.228 -0.8248 -1.4610 -1.6398
19730TIP3    H280682   6.052   2.914  16.135  0.6259  0.1539  0.1650
19731TIP3   OH280683   3.238   0.874   3.374 -0.0754 -0.3651 -0.2808
19731TIP3    H180684   3.277   0.931   3.308  0.7425 -2.1352 -1.4143
19731TIP3    H280685   3.292   0.887   3.452 -1.6165  2.4529  0.4375
19732TIP3   OH280686   1.236   0.673   2.293  0.4047  0.2716  0.1943
19732TIP3    H180687   1.235   0.763   2.259  3.8403  0.3035 -0.1333
19732TIP3    H280688   1.232   0.618   2.215  0.0039  0.1528  0.2948
19733TIP3   OH280689   3.728   6.499   4.753  0.1344  0.7315  0.2928
19733TIP3    H180690   3.636   6.489   4.776  0.7301 -1.8924  1.8985
19733TIP3    H280691   3.775   6.444   4.815  2.4636 -1.1274 -2.8317
19734TIP3   OH280692   6.763   2.151  15.149  0.3919 -0.3677 -0.2311
19734TIP3    H180693   6.720   2.066  15.157 -0.9089  0.2117 -0.7543
19734TIP3    H280694   6.771   2.182  15.239  1.0351 -1.1079 -0.0248
19735TIP3   OH280695   3.165   6.354   0.284  0.3827 -0.5026 -0.3016
19735TIP3    H180696   3.236   6.376   0.344  0.1613 -1.9409  0.5337
19735TIP3    H280697   3.207   6.347   0.199  1.4420 -2.2010  0.3150
19736TIP3   OH280698   6.694   4.555   2.655 -0.1784 -0.7446  0.0462
19736TIP3    H180699   6.618   4.595   2.697  0.5318  0.9505 -0.2252
19736TIP3    H280700   6.735   4.503   2.724  0.0357  0.6655  1.0241
19737TIP3   OH280701   1.634   4.338   0.681  0.4980  0.2364 -0.1123
19737TIP3    H180702   1.647   4.427   0.714  1.6188 -0.0936  0.3826
19737TIP3    H280703   1.660   4.342   0.590  0.2208  0.4870 -0.1829
19738TIP3   OH280704   4.948   0.985  16.503 -0.2463 -0.3768  0.0492
19738TIP3    H180705   4.993   0.987  16.588 -2.8103 -0.4743  1.5197
19738TIP3    H280706   4.977   1.064  16.458  1.2928 -0.3968  0.9432
19739TIP3   OH280707   0.501   3.581   4.197  0.2672 -0.0534  0.4022
19739TIP3    H180708   0.455   3.509   4.154 -0.5935 -0.0336  1.2551
19739TIP3    H280709   0.527   3.639   4.125 -1.6828  0.2892 -0.0754
19740TIP3   OH280710   5.075   2.908  13.491  0.4953  0.2473  0.0386
19740TIP3    H180711   5.162   2.870  13.503  0.1796 -0.2745  0.7944
19740TIP3    H280712   5.077   2.947  13.404  1.3510 -0.1258 -0.1154
19741TIP3   OH280713   3.654   4.649  16.843  0.0674 -0.0459  0.1122
19741TIP3    H180714   3.593   4.694  16.901  2.2325 -0.6154  3.0716
19741TIP3    H280715   3.736   4.644  16.893  1.6881 -1.9248 -2.4617
19742TIP3   OH280716   1.539   1.593   4.701 -0.2640 -0.4377 -0.0839
19742TIP3    H180717   1.500   1.511   4.730  0.0737 -0.0783  1.4859
19742TIP3    H280718   1.626   1.594   4.741  0.6765 -0.3881 -2.0357
19743TIP3   OH280719   1.620   5.664  14.620 -0.0716  0.3567 -0.1667
19743TIP3    H180720   1.559   5.659  14.547 -1.6454 -0.6920  1.1450
19743TIP3    H280721   1.631   5.757  14.637 -1.8137  0.5783 -0.0696
19744TIP3   OH280722   0.563   2.663  16.111 -0.2093 -0.6506  0.3265
19744TIP3    H180723   0.491   2.704  16.063  1.7702  0.8842 -1.5321
19744TIP3    H280724   0.582   2.583  16.062 -1.5011 -1.8378  1.6606
19745TIP3   OH280725   3.770   3.717  16.669  0.0426  0.2012  0.8969
19745TIP3    H180726   3.759   3.663  16.591  1.1041  0.3495  0.6212
19745TIP3    H280727   3.806   3.658  16.735  1.6015  0.6071  0.4711
19746TIP3   OH280728   0.132   1.227  12.769 -0.1851 -0.3070  0.2961
19746TIP3    H180729   0.075   1.150  12.766 -1.1524  0.4053 -0.1429
19746TIP3    H280730   0.097   1.279  12.841  0.0078  0.0745  0.1134
19747TIP3   OH280731   3.502   2.773  14.807 -0.8325 -0.2534 -0.5532
19747TIP3    H180732   3.513   2.868  14.798  1.6657 -0.4827 -0.6079
19747TIP3    H280733   3.411   2.757  14.782 -1.4964  2.1853  0.0606
19748TIP3   OH280734   3.084   3.676   3.005 -0.0669 -0.0327  0.5206
19748TIP3    H180735   3.135   3.607   2.963  0.7717  0.6217  0.4212
19748TIP3    H280736   3.005   3.633   3.036 -0.3409 -0.6991 -1.0207
19749TIP3   OH280737   3.027   3.656  15.051  0.3507 -0.8525  0.2288
19749TIP3    H180738   3.063   3.743  15.070  0.2962 -0.9873  0.9718
19749TIP3    H280739   2.937   3.660  15.081  0.2981 -1.1106  0.1035
19750TIP3   OH280740   0.352   6.046   4.968  0.1280  0.4713 -0.2389
19750TIP3    H180741   0.417   6.115   4.963  0.3652  0.2497 -0.2106
19750TIP3    H280742   0.272   6.086   4.934  0.1204  0.9338  0.2947
19751TIP3   OH280743   1.236   4.646   0.991 -0.4699 -0.4469  0.1418
19751TIP3    H180744   1.208   4.700   0.916  1.0597 -0.8138 -0.7355
19751TIP3    H280745   1.222   4.702   1.067  0.9123  1.1800 -0.7247
19752TIP3   OH280746   2.542   2.159   3.779  0.2861  0.3052  0.5132
19752TIP3    H180747   2.513   2.069   3.793  1.1627 -0.3649 -1.6152
19752TIP3    H280748   2.475   2.197   3.723  1.7570 -0.2703 -1.7715
19753TIP3   OH280749   0.472   4.565   1.013 -0.5812 -0.0084 -0.2493
19753TIP3    H180750   0.528   4.584   0.937 -1.3301  0.2647 -0.7449
19753TIP3    H280751   0.490   4.473   1.033  2.1405  0.7457  1.3774
19754TIP3   OH280752   3.085   4.135  16.466 -0.0398 -0.4656 -0.0554
19754TIP3    H180753   3.149   4.090  16.521  0.3555  2.6812  2.3330
19754TIP3    H280754   3.133   4.155  16.385  0.6554 -1.6134  0.0484
19755TIP3   OH280755   2.127   6.634  15.091  0.5994 -0.5063  0.4320
19755TIP3    H180756   2.098   6.601  15.176 -0.1273 -1.9293 -0.3335
19755TIP3    H280757   2.061   6.603  15.029  0.9188  0.8130 -0.6203
19756TIP3   OH280758   4.404   6.102  16.284  0.3540 -0.0497  0.0198
19756TIP3    H180759   4.445   6.061  16.361 -0.7989 -1.2671  0.0252
19756TIP3    H280760   4.420   6.196  16.295 -1.9512  0.1448  3.1483
19757TIP3   OH280761   5.011   5.149  14.971  0.7105 -0.2450  0.0386
19757TIP3    H180762   5.041   5.132  14.882 -0.1971 -1.1318 -0.1242
19757TIP3    H280763   5.018   5.243  14.982 -1.8556  0.2798 -2.0223
19758TIP3   OH280764   6.363   2.864  17.066  0.3624  0.6352  0.1812
19758TIP3    H180765   6.399   2.919  16.996  1.1501  0.1331  0.1833
19758TIP3    H280766   6.276   2.838  17.034 -0.2446  2.2608  0.3850
19759TIP3   OH280767   1.663   6.174   4.441  0.4284 -0.1067  0.2314
19759TIP3    H180768   1.576   6.212   4.432 -0.1208 -0.3946  3.3095
19759TIP3    H280769   1.707   6.195   4.358 -1.7361  2.1315 -0.4730
19760TIP3   OH280770   6.194   4.266   3.912  0.2076  0.6130  0.3453
19760TIP3    H180771   6.264   4.248   3.975 -0.3625 -1.1956  0.5194
19760TIP3    H280772   6.115   4.274   3.966 -0.6114 -2.7521 -0.1381
19761TIP3   OH280773   5.297   6.576  16.067  0.2935 -0.5509 -0.1012
19761TIP3    H180774   5.370   6.610  16.016  0.0056 -1.6974 -1.3411
19761TIP3    H280775   5.219   6.596  16.015 -0.1631 -0.4211  0.6102
19762TIP3   OH280776   3.220   4.778   3.246  0.0133 -0.0100  0.6361
19762TIP3    H180777   3.227   4.709   3.312  0.8492  0.7212  1.3351
19762TIP3    H280778   3.169   4.846   3.289 -0.4002  0.0094  0.1185
19763TIP3   OH280779   2.460   3.672   1.295  0.4465 -0.2702 -0.4796
19763TIP3    H180780   2.383   3.695   1.243 -1.4862 -1.3877  1.7219
19763TIP3    H280781   2.425   3.639   1.378  3.2779 -1.7755  0.2575
19764TIP3   OH280782   2.552   1.630   0.858 -1.1924  0.7744  0.2820
19764TIP3    H180783   2.543   1.705   0.916  1.4878  0.8221  0.7637
19764TIP3    H280784   2.484   1.569   0.887 -2.3221  2.3228  0.9831
19765TIP3   OH280785   2.478   1.551  17.043  0.2706  0.1452 -0.0563
19765TIP3    H180786   2.385   1.534  17.059  0.1289 -2.0148 -2.5038
19765TIP3    H280787   2.490   1.531  16.951  3.1932  0.4436  0.1796
19766TIP3   OH280788   0.579   4.477  12.805  0.1572  0.3537  0.1937
19766TIP3    H180789   0.634   4.426  12.745  1.0186 -0.1179  1.3696
19766TIP3    H280790   0.568   4.562  12.761 -0.2424 -0.3862 -1.1908
19767TIP3   OH280791   6.312   2.438   6.005  0.3113 -0.3988  0.0842
19767TIP3    H180792   6.285   2.370   6.066 -1.1074  0.8743  0.9547
19767TIP3    H280793   6.357   2.503   6.059  0.8651 -0.2109 -0.5761
19768TIP3   OH280794   4.086   0.063  11.118  0.2490  0.2715  0.2307
19768TIP3    H180795   4.043   0.148  11.122 -1.8339 -0.5846 -1.7580
19768TIP3    H280796   4.135   0.065  11.035  1.2982 -0.0127  0.8231
19769TIP3   OH280797   3.664   5.431  16.614 -0.3745 -0.0820 -0.1228
19769TIP3    H180798   3.610   5.425  16.693  0.6204  0.9779  0.6616
19769TIP3    H280799   3.668   5.524  16.593  2.1598  0.0594  0.6058
19770TIP3   OH280800   3.413   2.926   2.123  0.3535 -0.0841  0.6513
19770TIP3    H180801   3.461   2.888   2.049 -0.5354 -1.8503  0.9435
19770TIP3    H280802   3.323   2.931   2.093  0.1512  0.0979  1.2760
19771TIP3   OH280803   1.992   0.641   3.631 -0.3793 -0.0663 -0.5540
19771TIP3    H180804   2.073   0.666   3.587  0.2429 -0.2441  0.4596
19771TIP3    H280805   2.018   0.575   3.694 -1.1960  0.3725  0.2743
19772TIP3   OH280806   3.528   1.427  14.909 -0.2423 -0.1380  0.7807
19772TIP3    H180807   3.469   1.475  14.850  0.3246 -0.3637  0.0179
19772TIP3    H280808   3.503   1.456  14.997 -1.0196  0.2958  0.4240
19773TIP3   OH280809   2.408   3.398   4.259 -0.0087  0.0760 -0.5123
19773TIP3    H180810   2.406   3.446   4.341 -2.0435 -2.0853  0.8241
19773TIP3    H280811   2.494   3.418   4.221  1.3789  0.4928  2.5500
19774TIP3   OH280812   1.522   2.444  13.302 -0.0461  0.4349  0.6066
19774TIP3    H180813   1.443   2.491  13.330  1.1914  2.1808  1.3351
19774TIP3    H280814   1.564   2.418  13.384 -2.4768 -5.4688  0.4299
19775TIP3   OH280815   4.251   3.335  15.423  0.6119 -0.6426  0.2614
19775TIP3    H180816   4.162   3.358  15.451  0.0242 -1.4701 -0.8654
19775TIP3    H280817   4.283   3.413  15.378  0.6773 -0.1500  1.1340
19776TIP3   OH280818   0.348   1.225   1.987  0.2525 -0.1654  0.0775
19776TIP3    H180819   0.311   1.267   2.065 -0.5508 -0.0598 -0.3526
19776TIP3    H280820   0.281   1.163   1.959  0.5608 -0.2482 -0.4946
19777TIP3   OH280821   0.825   6.305   0.277 -0.2296  0.0028  0.0384
19777TIP3    H180822   0.859   6.229   0.230  0.7569 -0.2148  1.0469
19777TIP3    H280823   0.792   6.363   0.209  3.2805  0.7815 -1.2153
19778TIP3   OH280824   2.876   4.998  16.962 -0.6601  0.1217  0.4395
19778TIP3    H180825   2.960   4.996  17.007 -1.6121  1.5273  2.4338
19778TIP3    H280826   2.846   5.088  16.971 -1.9916 -0.1317 -1.0122
19779TIP3   OH280827   6.491   0.782   2.145  0.6586  0.2712 -0.0052
19779TIP3    H180828   6.428   0.710   2.153 -0.1892  1.1037  1.1634
19779TIP3    H280829   6.561   0.746   2.092 -0.4869 -0.9029 -0.7840
19780TIP3   OH280830   3.344   0.067  16.431  0.8511  0.4050 -0.6806
19780TIP3    H180831   3.285   0.126  16.385  0.0047 -1.6920 -2.4851
19780TIP3    H280832   3.409   0.043  16.365  1.3160 -0.4558  0.0737
19781TIP3   OH280833   2.013   6.354  13.319  0.3514 -0.5896  0.8028
19781TIP3    H180834   1.981   6.290  13.383  1.0472 -0.6973  1.0491
19781TIP3    H280835   1.959   6.432  13.334 -0.1318 -0.9320  0.8711
19782TIP3   OH280836   6.142   5.490  11.397 -0.2632 -0.2618 -0.5455
19782TIP3    H180837   6.231   5.500  11.432 -0.7838 -2.3581  1.6614
19782TIP3    H280838   6.101   5.426  11.455 -3.0911  0.2883 -1.7894
19783TIP3   OH280839   5.851   0.496  15.222 -0.0533 -0.1351 -0.3873
19783TIP3    H180840   5.786   0.537  15.164 -1.1546  1.6580  1.9602
19783TIP3    H280841   5.908   0.447  15.163 -1.3590  1.2021 -2.9253
19784TIP3   OH280842   3.607   4.927   0.821 -0.2479  0.4210  0.4585
19784TIP3    H180843   3.619   4.851   0.765 -0.9897  0.4044  0.3111
19784TIP3    H280844   3.639   5.001   0.769 -0.3677  0.3258  0.2494
19785TIP3   OH280845   1.033   1.336   2.617  0.3109 -0.0779  0.9173
19785TIP3    H180846   0.966   1.277   2.652 -0.9458  1.4368  1.1786
19785TIP3    H280847   1.068   1.381   2.695  1.5633 -0.7345  0.7697
19786TIP3   OH280848   2.707   2.552  13.657  0.3181 -0.4291  0.5509
19786TIP3    H180849   2.787   2.532  13.608  1.1380  0.5065  1.4664
19786TIP3    H280850   2.737   2.595  13.736 -1.1375  0.6113  0.5819
19787TIP3   OH280851   2.890   6.014   1.906 -0.4376 -0.4479 -0.3222
19787TIP3    H180852   2.909   5.927   1.942 -1.7432 -1.0002 -0.9120
19787TIP3    H280853   2.799   6.031   1.932 -0.7491  0.0015 -1.6308
19788TIP3   OH280854   6.213   3.225  14.929 -0.1227  0.6774  0.0679
19788TIP3    H180855   6.186   3.275  14.852  0.7271  1.6944  0.4172
19788TIP3    H280856   6.218   3.290  14.999  1.4484  0.2043  0.4307
19789TIP3   OH280857   1.607   1.593   5.702  0.1080 -0.0804 -0.2765
19789TIP3    H180858   1.691   1.638   5.689  0.5911 -1.3552 -1.7746
19789TIP3    H280859   1.604   1.527   5.633 -1.9652 -0.3300 -0.0058
19790TIP3   OH280860   5.386   4.880   2.837 -0.4358  0.0589  0.5456
19790TIP3    H180861   5.413   4.970   2.855 -0.4369  0.1108  0.2931
19790TIP3    H280862   5.465   4.837   2.804 -1.0379  0.6842 -1.9158
19791TIP3   OH280863   3.893   3.488  11.456  0.8231 -0.5444  0.0061
19791TIP3    H180864   3.829   3.446  11.399 -1.1519  0.4566  1.3464
19791TIP3    H280865   3.958   3.524  11.397 -1.7168  1.4767 -1.7797
19792TIP3   OH280866   6.559   0.248   4.184  0.3079  0.1431  0.7758
19792TIP3    H180867   6.616   0.199   4.124 -0.5240  0.0682  0.0294
19792TIP3    H280868   6.619   0.300   4.237  1.0336  0.9498 -0.7711
19793TIP3   OH280869   0.605   6.485  15.911  0.2072 -0.4356 -0.5840
19793TIP3    H180870   0.622   6.555  15.975  0.2357 -1.5228  0.6375
19793TIP3    H280871   0.519   6.507  15.876  0.0902  0.0784 -0.0120
19794TIP3   OH280872   1.316   0.280   0.564 -0.2189 -0.0295 -0.1778
19794TIP3    H180873   1.234   0.303   0.607 -0.7075  0.2774 -1.2344
19794TIP3    H280874   1.368   0.360   0.567 -1.2672  0.8213 -2.3791
19795TIP3   OH280875   5.609   5.276  16.939 -0.1810 -0.0152  0.0123
19795TIP3    H180876   5.701   5.251  16.932 -0.0709  0.0812  0.9810
19795TIP3    H280877   5.570   5.207  16.992 -0.0776  1.3135  1.9109
19796TIP3   OH280878   6.609   1.909  16.915  0.3886 -0.2208  0.1581
19796TIP3    H180879   6.626   1.856  16.837 -2.0290 -1.9438  0.6795
19796TIP3    H280880   6.652   1.862  16.986 -0.3320 -0.6108  0.3543
19797TIP3   OH280881   0.494   1.661   5.618 -0.3272 -0.3000  0.3152
19797TIP3    H180882   0.441   1.583   5.601 -0.4493 -0.6912  2.2634
19797TIP3    H280883   0.577   1.644   5.572 -1.1717 -0.5101 -1.2022
19798TIP3   OH280884   2.782   1.189   0.453 -0.1240  0.5071 -0.0874
19798TIP3    H180885   2.692   1.219   0.466 -1.2627 -2.7719  0.3799
19798TIP3    H280886   2.814   1.170   0.542  0.9848  1.3766 -0.2712
19799TIP3   OH280887   6.453   6.256  13.925 -0.1406 -0.6409  0.1607
19799TIP3    H180888   6.519   6.317  13.958 -0.7140 -0.9320  1.9743
19799TIP3    H280889   6.498   6.172  13.921 -0.0530 -0.5934  0.1482
19800TIP3   OH280890   0.458   0.450  11.380 -0.1264  0.0730  0.3210
19800TIP3    H180891   0.376   0.405  11.360 -0.8643  1.3746  0.3765
19800TIP3    H280892   0.436   0.543  11.382  1.1141  0.3779  1.5062
19801TIP3   OH280893   2.452   2.227   5.220 -0.3316 -0.0056  0.0082
19801TIP3    H180894   2.477   2.304   5.168 -5.5669  2.3823  0.4277
19801TIP3    H280895   2.479   2.248   5.309  1.1284 -0.2880 -0.3255
19802TIP3   OH280896   4.557   3.477  12.836 -0.5889  0.7017  0.1088
19802TIP3    H180897   4.549   3.547  12.771  2.4684  0.0200 -1.1459
19802TIP3    H280898   4.651   3.469  12.851 -0.9926 -1.7459  1.8057
19803TIP3   OH280899   4.532   3.304  12.104 -0.1825  0.5532 -0.0979
19803TIP3    H180900   4.623   3.334  12.106 -0.1098  0.5695 -2.1663
19803TIP3    H280901   4.490   3.353  12.175  1.6076 -0.2418  1.6273
19804TIP3   OH280902   0.511   5.408   4.619 -0.3008  0.1136 -0.7518
19804TIP3    H180903   0.512   5.406   4.714  3.1303  0.7840 -0.6531
19804TIP3    H280904   0.459   5.485   4.596  1.1038  1.5541  0.7037
19805TIP3   OH280905   4.589   5.637   6.429 -0.5236 -0.2761  0.0732
19805TIP3    H180906   4.616   5.583   6.503 -0.8436  1.3607  1.4554
19805TIP3    H280907   4.666   5.643   6.374  0.4985  0.4214  1.5255
19806TIP3   OH280908   4.540   5.341  14.928 -0.1285  0.0153  0.7879
19806TIP3    H180909   4.518   5.434  14.919  1.5237  0.3726  0.0228
19806TIP3    H280910   4.459   5.295  14.907 -0.8655  1.2847  0.7797
19807TIP3   OH280911   1.023   1.419  13.997 -0.6069  0.4126 -0.7186
19807TIP3    H180912   1.083   1.364  13.946 -1.2381 -1.2572  0.2460
19807TIP3    H280913   0.962   1.357  14.038 -0.5888  1.7110  1.4578
19808TIP3   OH280914   0.854   3.167   6.264 -0.0992 -0.4575  0.3483
19808TIP3    H180915   0.882   3.256   6.243 -0.7265 -0.1953  0.5947
19808TIP3    H280916   0.930   3.112   6.245  1.0305  0.3788  2.2034
19809TIP3   OH280917   6.500   0.668  15.913  0.6019 -0.3428  0.1485
19809TIP3    H180918   6.570   0.631  15.966 -0.1847 -1.4762  0.4376
19809TIP3    H280919   6.542   0.694  15.831  1.0697 -2.7945 -0.4712
19810TIP3   OH280920   6.023   5.306  14.061 -0.9807  0.2242  0.0775
19810TIP3    H180921   5.964   5.252  14.009 -0.4477  0.4997 -0.8464
19810TIP3    H280922   5.989   5.395  14.051  0.1316  0.5434 -1.3221
19811TIP3   OH280923   3.861   1.668   4.476 -0.1725 -0.5865 -0.4206
19811TIP3    H180924   3.777   1.709   4.490  0.3031 -0.0286  0.9536
19811TIP3    H280925   3.920   1.740   4.453  0.6373 -0.4383  1.8918
19812TIP3   OH280926   2.599   2.853   1.746 -0.3191 -0.6200  0.0972
19812TIP3    H180927   2.635   2.786   1.688 -0.5063  0.6475 -1.5380
19812TIP3    H280928   2.676   2.895   1.785 -0.1794 -1.1140  0.3650
19813TIP3   OH280929   1.176   4.693  11.096 -0.3539 -0.5365 -0.2688
19813TIP3    H180930   1.195   4.731  11.010  1.1929 -1.4851 -0.3681
19813TIP3    H280931   1.173   4.768  11.155  0.2103 -0.0315 -0.8714
19814TIP3   OH280932   1.116   1.860   5.706 -0.5251  0.6633 -0.9369
19814TIP3    H180933   1.110   1.852   5.802 -0.1609 -1.1310 -1.0157
19814TIP3    H280934   1.026   1.873   5.677 -0.6357  1.2463 -0.3544
19815TIP3   OH280935   3.967   4.215   3.249 -0.2312  0.2965  0.1365
19815TIP3    H180936   3.979   4.121   3.235 -1.5663 -0.0311  0.9586
19815TIP3    H280937   3.890   4.237   3.197  0.1838  0.9841 -0.1991
19816TIP3   OH280938   6.025   1.217  16.271 -0.2746 -0.4329  0.2633
19816TIP3    H180939   6.067   1.236  16.355 -1.0232 -0.8553  0.7401
19816TIP3    H280940   5.933   1.240  16.284 -0.9781 -3.0132  0.4695
19817TIP3   OH280941   0.440   6.669   3.188 -0.2849 -0.7656 -0.4753
19817TIP3    H180942   0.360   6.667   3.136 -1.8622 -0.1668  1.7497
19817TIP3    H280943   0.487   6.747   3.158 -2.5120  1.1793  0.7876
19818TIP3   OH280944   3.086   3.846  16.282 -0.5920  0.1053 -0.1937
19818TIP3    H180945   3.075   3.805  16.368 -3.1509 -0.4657 -0.7289
19818TIP3    H280946   3.044   3.785  16.221 -1.1009  1.7117 -1.5102
19819TIP3   OH280947   3.291   3.504   1.480  0.1728  0.1033 -0.1240
19819TIP3    H180948   3.365   3.545   1.525 -1.4945  1.5084  1.5159
19819TIP3    H280949   3.257   3.440   1.543 -0.7101  0.3208 -0.3628
19820TIP3   OH280950   1.884   3.919  16.180 -0.1436  0.7217  0.0428
19820TIP3    H180951   1.805   3.943  16.228 -1.4246 -1.7634 -0.6681
19820TIP3    H280952   1.896   3.826  16.199  3.9114  1.4001  1.8489
19821TIP3   OH280953   2.570   5.794   1.479 -0.2513 -0.2426 -0.3624
19821TIP3    H180954   2.598   5.853   1.549 -2.9474  0.3272  0.3340
19821TIP3    H280955   2.550   5.851   1.406 -1.5849 -0.3958 -0.1326
19822TIP3   OH280956   4.933   4.021   3.489  0.5912 -0.5795  0.1473
19822TIP3    H180957   4.975   3.994   3.407 -2.5181 -0.2936 -1.6888
19822TIP3    H280958   4.935   4.116   3.486  0.5360 -0.5674  0.4781
19823TIP3   OH280959   4.639   0.945  15.792  0.3188 -0.6255  0.1360
19823TIP3    H180960   4.726   0.979  15.814 -0.2388  0.1737  1.1505
19823TIP3    H280961   4.657   0.864  15.744  1.6414  0.1753 -0.7836
19824TIP3   OH280962   5.284   6.021   0.624  0.1447  0.5981  0.2880
19824TIP3    H180963   5.215   5.955   0.626 -1.3378  2.0861  0.0076
19824TIP3    H280964   5.335   6.001   0.546 -1.5482  0.9900 -0.9568
19825TIP3   OH280965   4.586   0.984  10.755  0.1767  0.4208 -0.1828
19825TIP3    H180966   4.535   1.015  10.680 -0.9653 -1.2117 -0.1411
19825TIP3    H280967   4.674   1.016  10.738 -0.3843  1.4693 -1.3888
19826TIP3   OH280968   5.323   5.158  12.870  0.1571  0.0838 -0.3301
19826TIP3    H180969   5.291   5.116  12.790  1.8980 -1.9037 -0.0747
19826TIP3    H280970   5.322   5.089  12.936 -0.2355  1.4119  1.1177
19827TIP3   OH280971   6.338   2.471  12.341 -0.7670 -0.0949 -0.2299
19827TIP3    H180972   6.347   2.421  12.422 -4.4041 -2.1932 -0.9294
19827TIP3    H280973   6.311   2.558  12.368  2.5487  0.7378  0.8660
19828TIP3   OH280974   6.414   6.697  15.084 -0.0710 -0.1326 -0.0602
19828TIP3    H180975   6.473   6.710  15.010 -0.6342 -0.8866 -0.6526
19828TIP3    H280976   6.376   6.784  15.099 -1.9745 -0.4408 -2.4205
19829TIP3   OH280977   5.152   4.482   5.443  0.0514  0.2792 -0.3227
19829TIP3    H180978   5.101   4.499   5.523 -1.9448 -1.0008 -1.2426
19829TIP3    H280979   5.133   4.558   5.387 -1.2397 -0.3614 -0.8045
19830TIP3   OH280980   5.578   0.036  11.091 -0.4444 -0.3965 -0.2116
19830TIP3    H180981   5.638   0.085  11.034  0.1160 -2.0290 -1.0920
19830TIP3    H280982   5.513   0.101  11.118  2.9966  2.2467  2.9028
19831TIP3   OH280983   4.778   0.968  14.681 -0.4499 -0.2530 -1.0446
19831TIP3    H180984   4.845   0.906  14.709  1.2494  1.5765 -0.7958
19831TIP3    H280985   4.703   0.951  14.737  0.8154 -0.5465  0.6240
19832TIP3   OH280986   4.173   6.310   2.587 -0.2877 -0.1928  0.0886
19832TIP3    H180987   4.216   6.391   2.559 -2.8383  0.8382 -1.2114
19832TIP3    H280988   4.142   6.329   2.676  0.2038 -0.2215  0.2689
19833TIP3   OH280989   1.649   6.756   2.298  0.2791 -0.4655 -0.2702
19833TIP3    H180990   1.629   6.697   2.224  1.5654 -0.4544 -0.6534
19833TIP3    H280991   1.744   6.766   2.295  0.2537  0.2419  0.8715
19834TIP3   OH280992   4.340   0.735   5.586  0.2663  0.5407 -0.3801
19834TIP3    H180993   4.326   0.728   5.680  0.0181  0.3736 -0.4260
19834TIP3    H280994   4.427   0.774   5.576  0.0513  1.1073 -0.0807
19835TIP3   OH280995   3.987   1.507  12.616  0.1957 -0.3828 -0.6802
19835TIP3    H180996   4.062   1.565  12.630  1.4429 -1.7884 -1.2396
19835TIP3    H280997   3.954   1.531  12.529  0.1118  0.1149 -0.5126
19836TIP3   OH280998   2.407   1.161   2.466  0.4244  0.5470  0.4868
19836TIP3    H180999   2.317   1.195   2.470  0.1668 -0.2110  3.9135
19836TIP3    H281000   2.396   1.066   2.464  1.2185  0.4492 -0.9557
19837TIP3   OH281001   0.513   6.711  14.593 -0.1726 -0.1071 -0.8152
19837TIP3    H181002   0.587   6.768  14.573 -0.0721 -0.2301 -0.7898
19837TIP3    H281003   0.446   6.771  14.628  0.3295 -0.1587  0.2542
19838TIP3   OH281004   4.180   6.180  14.327 -0.2270 -0.3742  0.3540
19838TIP3    H181005   4.252   6.223  14.280  2.8900 -3.3815  1.9116
19838TIP3    H281006   4.151   6.110  14.268 -1.1581  0.1311  0.1923
19839TIP3   OH281007   0.421   6.820   5.763  0.0661 -0.4567 -0.7229
19839TIP3    H181008   0.440   6.897   5.709 -1.3433 -0.3801 -1.1306
19839TIP3    H281009   0.458   6.841   5.849  1.4612 -0.1677 -1.3529
19840TIP3   OH281010   1.888   3.014  14.580  0.0081 -0.6471  0.0228
19840TIP3    H181011   1.948   3.088  14.589 -1.1794  0.3655 -0.1050
19840TIP3    H281012   1.822   3.043  14.517 -0.2849 -1.9538 -0.3122
19841TIP3   OH281013   0.594   2.748   3.319  0.1067 -0.1815  0.4333
19841TIP3    H181014   0.670   2.785   3.275  1.1384 -1.1336  1.3470
19841TIP3    H281015   0.527   2.741   3.250  0.5797  1.3448 -0.2164
19842TIP3   OH281016   2.874   1.506   3.578  0.3656 -0.0112  0.1655
19842TIP3    H181017   2.929   1.443   3.624 -1.0101 -1.1419  0.2988
19842TIP3    H281018   2.786   1.468   3.580 -0.6127  2.1346  0.6701
19843TIP3   OH281019   4.998   5.801   4.499 -0.3785  0.1065 -0.4485
19843TIP3    H181020   4.935   5.868   4.471  0.7897  0.5282 -2.1793
19843TIP3    H281021   5.021   5.826   4.588 -2.0874  0.3610 -0.0340
19844TIP3   OH281022   1.830   2.493  13.444  0.1419  0.2112 -0.0169
19844TIP3    H181023   1.853   2.573  13.490  2.5602  0.6388 -1.8192
19844TIP3    H281024   1.831   2.517  13.351 -1.7957 -1.2940 -0.5009
19845TIP3   OH281025   2.042   5.661   4.593 -0.1587  0.1028 -0.2145
19845TIP3    H181026   2.122   5.713   4.590 -0.6670  0.8844 -0.3770
19845TIP3    H281027   2.044   5.610   4.511  0.4372 -0.2946  0.0409
19846TIP3   OH281028   4.415   4.828   1.943  0.6194 -0.3522  0.4483
19846TIP3    H181029   4.415   4.920   1.917 -1.1317  0.5702  3.2410
19846TIP3    H281030   4.350   4.786   1.886 -0.7009  0.8318  1.0205
19847TIP3   OH281031   4.817   3.218   0.236  0.0225  0.0350 -0.6753
19847TIP3    H181032   4.772   3.268   0.168 -0.1042 -0.4857 -0.9780
19847TIP3    H281033   4.749   3.162   0.273 -0.2057  1.1693  0.7194
19848TIP3   OH281034   5.012   3.643  14.542  0.2846 -0.1868 -0.2630
19848TIP3    H181035   5.014   3.731  14.504 -0.7391  0.3580  0.8810
19848TIP3    H281036   5.087   3.642  14.602  1.1173 -0.5962 -1.2739
19849TIP3   OH281037   2.336   4.897  12.635  0.6234  0.1361  0.2282
19849TIP3    H181038   2.331   4.863  12.545 -0.4711  1.5332 -0.2812
19849TIP3    H281039   2.275   4.843  12.685  0.6163 -0.1112 -0.0419
19850TIP3   OH281040   2.792   0.446  13.513  0.7167  0.7589 -0.6223
19850TIP3    H181041   2.807   0.540  13.520  0.5457  0.7667 -0.3082
19850TIP3    H281042   2.839   0.409  13.588  0.7847  0.5938 -0.7470
19851TIP3   OH281043   4.116   4.070   0.386 -0.1381  0.4515  0.2892
19851TIP3    H181044   4.145   3.980   0.399  0.7024  0.2189 -2.5128
19851TIP3    H281045   4.034   4.062   0.337  0.1611  1.1857 -0.3566
19852TIP3   OH281046   3.223   6.814  15.717 -0.5241 -0.3134  0.6413
19852TIP3    H181047   3.195   6.897  15.678  0.8930 -1.0198 -2.0848
19852TIP3    H281048   3.290   6.839  15.780 -1.6477  0.7340  1.4839
19853TIP3   OH281049   2.399   2.480   1.831  0.0751  0.2918 -0.1768
19853TIP3    H181050   2.384   2.426   1.754  0.7781  0.0253 -0.1295
19853TIP3    H281051   2.355   2.432   1.902  0.2140  0.0649 -0.2414
19854TIP3   OH281052   6.288   2.513   4.944  0.2668  0.2315 -0.0943
19854TIP3    H181053   6.223   2.466   4.892  1.4358 -0.4943 -0.9446
19854TIP3    H281054   6.236   2.571   5.000 -1.1471 -0.8491 -0.2123
19855TIP3   OH281055   0.939   2.592  15.524  0.3074 -0.2000 -0.2155
19855TIP3    H181056   0.999   2.525  15.491 -1.5006 -1.4806 -1.0780
19855TIP3    H281057   0.958   2.597  15.618  0.9716 -1.4378 -0.2639
19856TIP3   OH281058   5.808   4.240  12.689  0.5339 -0.0109  0.9280
19856TIP3    H181059   5.871   4.177  12.654 -0.1037  0.1973 -0.7067
19856TIP3    H281060   5.728   4.188  12.701 -1.0346  0.8903 -3.4970
19857TIP3   OH281061   2.365   5.075   1.160 -0.2878  0.3070 -0.6090
19857TIP3    H181062   2.388   5.157   1.118 -0.9627  0.2927 -1.0301
19857TIP3    H281063   2.313   5.028   1.094 -3.1140  1.1272  0.8926
19858TIP3   OH281064   6.366   3.805   1.316 -0.2657  0.1587 -0.2433
19858TIP3    H181065   6.303   3.807   1.388 -0.5405 -0.2370 -0.4623
19858TIP3    H281066   6.359   3.716   1.281  1.5396 -0.4013  0.6983
19859TIP3   OH281067   1.294   4.002  14.316  0.0503 -0.2860  0.2470
19859TIP3    H181068   1.363   4.026  14.378  0.0580 -0.6786  0.3951
19859TIP3    H281069   1.223   3.969  14.370 -0.7370  1.1928  0.1839
19860TIP3   OH281070   2.079   3.515   0.033 -0.3030 -0.4384 -0.1770
19860TIP3    H181071   2.084   3.459  -0.045  0.4916  0.0535 -0.5027
19860TIP3    H281072   2.146   3.582   0.017  0.1427 -0.5619  1.1140
19861TIP3   OH281073   2.716   5.928  11.289 -0.6299 -0.0774 -0.0424
19861TIP3    H181074   2.752   6.004  11.334  1.2265 -0.5399 -0.6542
19861TIP3    H281075   2.692   5.960  11.202  1.2904 -0.3845 -0.7349
19862TIP3   OH281076   4.243   4.763   4.093  0.0583 -0.2110  0.3582
19862TIP3    H181077   4.310   4.831   4.079  0.7154 -0.7321  0.8784
19862TIP3    H281078   4.161   4.804   4.065  0.2341  1.2533  1.7974
19863TIP3   OH281079   2.172   4.132   0.511 -0.1080  0.0611  0.2347
19863TIP3    H181080   2.175   4.041   0.540 -0.6168 -0.4610 -1.2623
19863TIP3    H281081   2.203   4.182   0.586  1.1544 -1.4166  0.7462
19864TIP3   OH281082   0.303   5.126  12.793 -0.2050 -0.7996 -0.5100
19864TIP3    H181083   0.315   5.083  12.878  0.0244  1.6592  0.7716
19864TIP3    H281084   0.217   5.166  12.798 -0.0092 -0.2530 -1.2625
19865TIP3   OH281085   3.084   5.148   3.264  0.1764 -0.3796 -0.2681
19865TIP3    H181086   3.112   5.098   3.341 -0.7020  0.2635  0.4944
19865TIP3    H281087   3.094   5.239   3.291 -3.3225 -0.0753  0.3798
19866TIP3   OH281088   4.485   0.778   3.114 -0.2286 -0.1874  0.6485
19866TIP3    H181089   4.460   0.790   3.206 -1.3644 -1.2170  0.4943
19866TIP3    H281090   4.522   0.863   3.089  2.9121 -0.7316  2.8597
19867TIP3   OH281091   0.609   1.826   6.714 -0.0107 -0.2479 -0.1339
19867TIP3    H181092   0.573   1.914   6.703  0.8183  0.1567  0.2984
19867TIP3    H281093   0.574   1.796   6.798  0.8418  0.2441  0.4062
19868TIP3   OH281094   0.237   3.075  15.152 -0.3196 -0.2814 -0.1475
19868TIP3    H181095   0.172   3.006  15.141  1.5484 -2.0432 -0.7059
19868TIP3    H281096   0.207   3.146  15.095 -2.2241 -0.6342  0.3522
19869TIP3   OH281097   1.952   6.802  12.605 -0.0126 -0.1927  0.3875
19869TIP3    H181098   1.920   6.721  12.565  0.9755 -1.2915  1.7384
19869TIP3    H281099   1.988   6.852  12.532  2.1244 -2.3088 -0.1363
19870TIP3   OH281100   0.723   6.124   2.341  0.3448  0.2165 -0.5078
19870TIP3    H181101   0.791   6.178   2.382  2.1348  0.0114 -2.9622
19870TIP3    H281102   0.654   6.186   2.318  1.1515  1.0248 -0.8337
19871TIP3   OH281103   2.637   0.631  11.334 -0.9142 -0.3691  0.5598
19871TIP3    H181104   2.596   0.664  11.255 -2.3466 -1.9857  0.5855
19871TIP3    H281105   2.710   0.578  11.303 -0.0751  0.8120  0.4408
19872TIP3   OH281106   3.147   3.150   2.065  0.6629 -0.2341 -0.6680
19872TIP3    H181107   3.115   3.070   2.023 -0.0554 -0.2791 -0.0578
19872TIP3    H281108   3.215   3.183   2.005  0.0008 -0.5487 -1.6197
19873TIP3   OH281109   3.096   1.156  17.073  0.1232 -0.7478  0.5968
19873TIP3    H181110   3.015   1.206  17.084  1.0341  0.5688  1.6707
19873TIP3    H281111   3.067   1.069  17.045 -1.5647  0.1783 -0.7882
19874TIP3   OH281112   4.969   3.664   4.675  0.0625  0.1130 -0.2852
19874TIP3    H181113   5.048   3.615   4.698  1.0656  0.8232 -2.0001
19874TIP3    H281114   4.959   3.729   4.744  0.9078 -0.0674  0.0161
19875TIP3   OH281115   3.484   3.668   0.225 -0.6313  0.4351  0.7631
19875TIP3    H181116   3.456   3.694   0.137 -0.6878  0.7805  0.8808
19875TIP3    H281117   3.432   3.723   0.284  1.9123  2.7895  0.9685
19876TIP3   OH281118   2.235   5.857  11.706 -0.1013 -0.5588 -0.0434
19876TIP3    H181119   2.151   5.811  11.713  0.1571 -0.9633  0.5033
19876TIP3    H281120   2.301   5.787  11.711  0.2942 -0.1488  0.7194
19877TIP3   OH281121   4.569   3.938  16.965 -0.0209 -0.5978  0.3841
19877TIP3    H181122   4.557   3.844  16.949 -2.6393 -0.0985 -1.1975
19877TIP3    H281123   4.487   3.965  17.007  0.7871  0.9742  1.0214
19878TIP3   OH281124   0.261   2.957   5.674 -0.3936 -0.0887  0.5903
19878TIP3    H181125   0.273   2.862   5.669 -0.8638 -0.3341  3.1001
19878TIP3    H281126   0.166   2.969   5.665 -0.8644 -0.2880  3.9989
19879TIP3   OH281127   6.411   3.152  13.375 -0.5406  0.4077  0.1493
19879TIP3    H181128   6.394   3.235  13.420 -2.0074  0.3570 -0.2433
19879TIP3    H281129   6.398   3.172  13.282  1.2069  0.2152 -0.1694
19880TIP3   OH281130   4.971   1.741  16.667 -0.2839 -0.0563  0.2139
19880TIP3    H181131   4.883   1.704  16.657 -1.0719  1.5728  0.7767
19880TIP3    H281132   4.962   1.832  16.639  1.2477  0.1207  0.2372
19881TIP3   OH281133   2.129   3.386   4.192  0.1111  1.0253 -0.1830
19881TIP3    H181134   2.063   3.372   4.261 -0.0026 -0.5934 -0.5635
19881TIP3    H281135   2.212   3.361   4.233  0.1476  0.7822 -0.4028
19882TIP3   OH281136   6.158   4.013   1.920  0.0028  0.2406  0.9484
19882TIP3    H181137   6.133   4.083   1.860 -0.6972  1.4013  2.5192
19882TIP3    H281138   6.237   4.044   1.963  0.0484 -0.2175  1.2081
19883TIP3   OH281139   1.023   0.410   5.534 -0.0565 -0.1351  0.1074
19883TIP3    H181140   1.115   0.427   5.558 -0.3021  1.0438  0.2878
19883TIP3    H281141   1.002   0.327   5.577  1.3748 -1.2295 -1.1916
19884TIP3   OH281142   4.207   4.916  12.928 -0.0084  0.3325  0.3038
19884TIP3    H181143   4.283   4.907  12.871 -0.1262  1.5319 -0.0596
19884TIP3    H281144   4.155   4.838  12.911  0.7244 -0.0863 -0.0662
19885TIP3   OH281145   1.240   0.242   2.108  0.7229 -0.4687 -0.0029
19885TIP3    H181146   1.192   0.322   2.088  1.3699  0.0822  0.5776
19885TIP3    H281147   1.252   0.245   2.203  1.8885 -0.5813 -0.1286
19886TIP3   OH281148   4.458   2.029  10.609 -0.0721 -0.0895  0.1388
19886TIP3    H181149   4.517   2.018  10.684 -0.4061  0.7872  0.5436
19886TIP3    H281150   4.373   2.046  10.649 -0.3493 -0.1224 -0.4435
19887TIP3   OH281151   2.511   4.168   0.535  0.5619 -0.7452 -0.2195
19887TIP3    H181152   2.577   4.232   0.560 -0.5873 -0.1930  1.5712
19887TIP3    H281153   2.427   4.210   0.556 -0.4097 -1.3152 -2.6707
19888TIP3   OH281154   3.576   6.169  16.434 -0.1245  0.0985 -0.4750
19888TIP3    H181155   3.601   6.259  16.455  1.5207 -0.4323  0.0116
19888TIP3    H281156   3.512   6.178  16.363 -0.6966  1.6709  0.1949
19889TIP3   OH281157   6.229   3.124  15.900 -1.1264 -0.0678 -0.0460
19889TIP3    H181158   6.177   3.122  15.820 -1.3808 -0.2030  0.1194
19889TIP3    H281159   6.305   3.069  15.881  0.3852  2.2602 -1.2297
19890TIP3   OH281160   4.402   0.076   5.151  0.2798 -0.3176  0.4472
19890TIP3    H181161   4.354   0.157   5.168 -2.6998 -2.0505  0.9268
19890TIP3    H281162   4.470   0.074   5.219  1.4582  2.4113 -0.4971
19891TIP3   OH281163   5.290   1.008   0.350 -0.4422  0.6877 -0.0421
19891TIP3    H181164   5.339   0.941   0.302  0.3144  0.7903  0.5726
19891TIP3    H281165   5.218   1.032   0.291 -1.0926 -1.0884 -0.0465
19892TIP3   OH281166   3.786   0.967   5.100  0.2709 -0.2078  0.4935
19892TIP3    H181167   3.710   0.909   5.087 -0.4592  1.2073 -2.5977
19892TIP3    H281168   3.748   1.054   5.112  1.3943  0.1995  1.2187
19893TIP3   OH281169   2.627   5.395  17.094  0.5982 -0.1472 -0.4379
19893TIP3    H181170   2.581   5.473  17.124 -0.0247 -0.0895 -1.4825
19893TIP3    H281171   2.699   5.384  17.155 -1.1343 -0.5926  1.6517
19894TIP3   OH281172   6.084   5.604   0.621  0.2224 -0.1212  0.3339
19894TIP3    H181173   6.159   5.588   0.563  0.5930  1.5426  0.3006
19894TIP3    H281174   6.123   5.640   0.701 -0.4949  0.2597  0.5226
19895TIP3   OH281175   5.130   5.293  17.042 -0.6529  0.6182 -0.3580
19895TIP3    H181176   5.142   5.263  16.951 -2.3034 -1.3183 -0.0092
19895TIP3    H281177   5.038   5.319  17.047 -0.6348  0.5100  0.8028
19896TIP3   OH281178   3.251   6.656  16.028 -0.0326  0.0725 -0.1702
19896TIP3    H181179   3.290   6.633  15.944  1.1387  1.9730 -0.2128
19896TIP3    H281180   3.319   6.636  16.093 -0.6287 -0.6329  0.2504
19897TIP3   OH281181   3.973   0.864  11.294  0.0464 -0.1593  0.5779
19897TIP3    H181182   3.933   0.905  11.218  0.7324 -0.2052  0.1819
19897TIP3    H281183   3.997   0.937  11.351 -0.1240 -0.1015  0.5744
19898TIP3   OH281184   2.693   0.403   3.421 -0.5252  0.3725 -0.2100
19898TIP3    H181185   2.611   0.422   3.467 -0.3765 -2.4198  1.4543
19898TIP3    H281186   2.668   0.348   3.348 -0.2051 -0.1661  0.0749
19899TIP3   OH281187   5.573   3.472  13.659  0.0913  0.2335 -0.7410
19899TIP3    H181188   5.585   3.567  13.658  1.2828  0.1102 -0.0480
19899TIP3    H281189   5.607   3.444  13.744  1.2307 -0.9755 -1.5551
19900TIP3   OH281190   2.982   0.705   5.605 -0.2267 -0.1682 -0.3740
19900TIP3    H181191   3.061   0.658   5.577 -0.0485  0.6968 -1.4102
19900TIP3    H281192   3.015   0.774   5.663 -0.3223 -0.3164 -0.1393
19901TIP3   OH281193   4.936   0.329   4.065  0.1636  0.0896  0.1958
19901TIP3    H181194   4.878   0.264   4.025  1.2037 -1.3601  0.9249
19901TIP3    H281195   4.911   0.330   4.157  0.0623  0.8328  0.1613
19902TIP3   OH281196   2.320   2.453   0.200  0.1632  0.3629  0.3833
19902TIP3    H181197   2.394   2.440   0.141  0.4149  0.3635  0.6938
19902TIP3    H281198   2.315   2.547   0.213 -0.3667  0.4232 -0.2327
19903TIP3   OH281199   0.385   4.527   0.548  0.0537  0.2144 -0.6131
19903TIP3    H181200   0.480   4.523   0.533 -0.1226 -0.1006 -1.6787
19903TIP3    H281201   0.362   4.440   0.581 -0.2413 -0.5596 -2.7279
19904TIP3   OH281202   3.997   1.520  15.199 -0.5819  0.3998 -0.2089
19904TIP3    H181203   3.929   1.454  15.210 -0.1113 -0.2971 -1.2649
19904TIP3    H281204   4.028   1.508  15.109  2.3756 -0.7531  0.8226
19905TIP3   OH281205   6.571   6.757   2.495 -0.6769 -0.2776 -0.2685
19905TIP3    H181206   6.613   6.812   2.429  0.9445 -3.9067 -2.5916
19905TIP3    H281207   6.643   6.726   2.550 -1.4141 -0.7049  0.4738
19906TIP3   OH281208   0.743   5.385   5.559 -0.1294 -0.7551  0.0522
19906TIP3    H181209   0.667   5.436   5.532 -0.0821 -0.9973 -0.5362
19906TIP3    H281210   0.807   5.450   5.587 -0.5306 -0.5462  0.5038
19907TIP3   OH281211   5.021   1.988   5.769  0.0835 -0.3927  0.0058
19907TIP3    H181212   4.968   1.922   5.814  1.2069 -1.1117  0.3151
19907TIP3    H281213   5.106   1.945   5.755  1.7309  1.7905  2.4756
19908TIP3   OH281214   0.280   1.341  14.441  0.1688 -1.0466 -0.3511
19908TIP3    H181215   0.358   1.394  14.424  0.2583 -0.7995  0.7399
19908TIP3    H281216   0.220   1.362  14.369 -0.6341  2.1584  1.0511
19909TIP3   OH281217   0.611   4.208  16.543 -1.0879  0.8437  0.1179
19909TIP3    H181218   0.577   4.297  16.539  0.6516  1.5200 -3.3381
19909TIP3    H281219   0.678   4.204  16.475  0.1086 -2.6593  1.2540
19910TIP3   OH281220   4.944   5.226  14.160 -0.3161 -0.6030 -0.1128
19910TIP3    H181221   4.918   5.295  14.221  0.4539 -1.1203  0.8315
19910TIP3    H281222   4.880   5.156  14.174 -0.5324 -0.4640 -0.3876
19911TIP3   OH281223   4.385   2.177  16.477  0.0933  0.4321  0.4433
19911TIP3    H181224   4.432   2.236  16.535  0.5872 -0.7957  1.3321
19911TIP3    H281225   4.452   2.142  16.418  0.2878 -1.0873  1.5117
19912TIP3   OH281226   5.890   2.219   2.646  0.0005  0.0886  0.7739
19912TIP3    H181227   5.973   2.264   2.630  0.1210 -0.7667 -1.1904
19912TIP3    H281228   5.916   2.133   2.679 -0.1008 -0.1036  0.3572
19913TIP3   OH281229   2.965   2.352   2.278 -0.3403 -0.1248 -0.1142
19913TIP3    H181230   2.898   2.419   2.264 -1.8481 -2.0677 -3.5389
19913TIP3    H281231   3.048   2.398   2.263 -1.3118  1.1135 -2.0856
19914TIP3   OH281232   1.210   2.953   4.352 -0.3228  0.4186 -0.1111
19914TIP3    H181233   1.137   2.949   4.290 -0.8002  0.6890  0.4171
19914TIP3    H281234   1.288   2.960   4.298 -0.8255  2.2010 -0.6738
19915TIP3   OH281235   0.518   3.482   3.010 -0.6024  0.5383 -0.2838
19915TIP3    H181236   0.584   3.481   3.079  0.4062 -0.4409 -1.2079
19915TIP3    H281237   0.439   3.447   3.051  0.0370 -0.2153  0.3451
19916TIP3   OH281238   5.102   6.314  14.319 -0.2978  0.4429 -0.5253
19916TIP3    H181239   5.065   6.393  14.279 -2.5789 -0.8805 -1.2453
19916TIP3    H281240   5.165   6.281  14.254  0.4292  1.4764 -0.3574
19917TIP3   OH281241   1.555   0.270  16.698  0.3365 -0.4646 -0.2756
19917TIP3    H181242   1.564   0.254  16.604 -1.9965  2.9014 -1.2847
19917TIP3    H281243   1.466   0.242  16.719  0.6080 -0.5911  0.7959
19918TIP3   OH281244   4.249   2.341  13.629  0.8235  0.1578  0.7595
19918TIP3    H181245   4.185   2.363  13.561  0.7426 -1.2705  0.3388
19918TIP3    H281246   4.302   2.420  13.637 -0.9875  1.4019  1.1544
19919TIP3   OH281247   2.409   1.899  13.801 -0.2062 -0.0345  0.4339
19919TIP3    H181248   2.503   1.879  13.801 -0.3170 -0.6214  1.4416
19919TIP3    H281249   2.405   1.994  13.815  0.2251 -0.1062  1.0830
19920TIP3   OH281250   1.562   0.212   4.549 -0.5653  0.1791  0.1960
19920TIP3    H181251   1.607   0.128   4.545  0.0865  0.5653 -0.7590
19920TIP3    H281252   1.631   0.277   4.537 -0.4643  1.0658  4.2121
19921TIP3   OH281253   2.874   1.451   2.047 -0.2537  0.0044 -0.1294
19921TIP3    H181254   2.878   1.517   1.977 -0.0023  0.1729  0.0451
19921TIP3    H281255   2.816   1.490   2.113 -0.0650  0.0715 -0.0038
19922TIP3   OH281256   6.440   5.663   0.262 -0.1938  0.0699  0.4600
19922TIP3    H181257   6.529   5.677   0.230 -0.0170 -0.6367  0.6490
19922TIP3    H281258   6.417   5.746   0.305 -0.1998  0.8179 -0.9040
19923TIP3   OH281259   3.699   4.564  15.101  0.2686 -0.3150 -0.5209
19923TIP3    H181260   3.734   4.503  15.165 -1.4302 -0.8995 -0.1052
19923TIP3    H281261   3.682   4.510  15.023 -2.0376 -0.6371  0.1263
19924TIP3   OH281262   3.608   6.736   1.996 -0.8521  0.7994  0.9403
19924TIP3    H181263   3.533   6.706   1.944 -1.8588  2.1861  1.5330
19924TIP3    H281264   3.593   6.830   2.008  0.3575  0.8709  2.0997
19925TIP3   OH281265   6.474   3.335  12.715  0.2217 -0.4220  0.6753
19925TIP3    H181266   6.531   3.258  12.718  2.0773  0.9196  2.3760
19925TIP3    H281267   6.534   3.409  12.706 -1.2728  1.0272  1.9929
19926TIP3   OH281268   2.251   6.304  16.503 -0.0916 -0.2022  0.0181
19926TIP3    H181269   2.278   6.361  16.431 -0.3728 -0.5249 -0.3454
19926TIP3    H281270   2.201   6.234  16.461 -0.2686 -0.3859  0.5275
19927TIP3   OH281271   0.864   6.777  12.653 -0.3263  1.0435  0.6395
19927TIP3    H181272   0.926   6.795  12.723  0.2962 -1.4133  0.8368
19927TIP3    H281273   0.820   6.696  12.680 -1.3801  1.0261 -0.9537
19928TIP3   OH281274   2.511   5.097  16.494  0.2128  0.2771  0.0035
19928TIP3    H181275   2.579   5.051  16.543 -0.2137  1.6486  1.9959
19928TIP3    H281276   2.554   5.125  16.413  1.7342  0.2647  0.7747
19929TIP3   OH281277   0.186   5.409   5.018 -0.4268  0.3188  0.2570
19929TIP3    H181278   0.110   5.386   5.072  0.2109  0.8505  1.4309
19929TIP3    H281279   0.159   5.489   4.972 -0.8440  0.0864  0.0966
19930TIP3   OH281280   4.537   4.799   1.520 -0.1638  0.0950  0.3737
19930TIP3    H181281   4.604   4.742   1.558  1.1509  1.2722 -0.0961
19930TIP3    H281282   4.524   4.867   1.586 -0.5140  0.1629  0.2351
19931TIP3   OH281283   4.583   1.947   3.987  0.0291  0.2287  0.2456
19931TIP3    H181284   4.634   1.866   3.992  2.4841  1.4379 -2.2337
19931TIP3    H281285   4.496   1.922   4.017  0.5826 -3.4268 -0.6593
19932TIP3   OH281286   1.587   4.711   3.351  0.1762 -0.5153 -0.1243
19932TIP3    H181287   1.526   4.746   3.285  1.4907  1.4045 -0.3932
19932TIP3    H281288   1.542   4.724   3.434  0.1522  0.7926 -0.3241
19933TIP3   OH281289   0.929   0.154   5.651 -0.2355 -0.3866 -0.3117
19933TIP3    H181290   0.856   0.101   5.617  0.2838 -0.6159 -1.0932
19933TIP3    H281291   0.888   0.211   5.716 -0.9617 -1.1223 -0.0996
19934TIP3   OH281292   5.575   4.671   2.592 -0.4668  0.0108 -0.3260
19934TIP3    H181293   5.669   4.663   2.608 -0.4695 -1.3249 -0.8563
19934TIP3    H281294   5.534   4.640   2.673 -0.4541 -1.1473 -0.7583
19935TIP3   OH281295   0.684   1.421  15.945 -0.3579 -0.2847 -0.7670
19935TIP3    H181296   0.647   1.462  16.024  0.7403 -0.1008 -0.3381
19935TIP3    H281297   0.677   1.327  15.961 -1.4556 -0.2815 -1.0893
19936TIP3   OH281298   0.923   2.881   6.669  0.5812  0.1950  0.3709
19936TIP3    H181299   0.923   2.977   6.659  1.3290  0.3428  1.5177
19936TIP3    H281300   1.016   2.859   6.681  0.3649 -0.6147  0.5634
19937TIP3   OH281301   4.512   1.003  14.748 -0.3373 -0.4145 -0.3780
19937TIP3    H181302   4.426   0.971  14.776 -0.1831  1.3121  2.4889
19937TIP3    H281303   4.493   1.082  14.698 -0.4615  0.6773  1.3181
19938TIP3   OH281304   3.382   0.330   1.539 -0.3179 -0.4404  0.0447
19938TIP3    H181305   3.325   0.367   1.606 -0.1708 -0.1095 -0.0088
19938TIP3    H281306   3.328   0.266   1.493 -0.2326 -1.1366  0.8879
19939TIP3   OH281307   5.705   6.000  15.460 -0.1334 -0.8684 -0.3331
19939TIP3    H181308   5.715   6.072  15.398  0.6447  0.2935  1.0742
19939TIP3    H281309   5.667   5.929  15.409 -1.1998  0.6274 -1.7129
19940TIP3   OH281310   2.564   1.753   4.932  0.1911 -0.4014  0.1692
19940TIP3    H181311   2.508   1.708   4.995  2.0969 -0.1215  2.1815
19940TIP3    H281312   2.577   1.840   4.969 -0.1055  0.4320 -1.5764
19941TIP3   OH281313   1.324   2.502   2.352 -0.2239  0.4792  0.1545
19941TIP3    H181314   1.356   2.530   2.266  0.1826 -0.0036  0.1437
19941TIP3    H281315   1.374   2.423   2.371 -0.3395  0.5624  0.8199
19942TIP3   OH281316   4.975   5.511  11.728  0.2047 -0.4225  0.1150
19942TIP3    H181317   4.919   5.572  11.680  0.8189 -1.8651 -2.6046
19942TIP3    H281318   4.977   5.546  11.817 -1.4793  2.0745 -0.7202
19943TIP3   OH281319   3.728   4.942   2.124  0.1406  0.1033  0.2858
19943TIP3    H181320   3.804   4.940   2.183  0.4550 -0.6756 -0.1183
19943TIP3    H281321   3.753   4.884   2.052 -0.2735  0.9578 -0.5688
19944TIP3   OH281322   6.801   6.445   0.268 -0.3478  0.4340  0.7559
19944TIP3    H181323   6.728   6.384   0.279 -0.5689  0.1938 -1.5116
19944TIP3    H281324   6.878   6.397   0.295 -0.6984 -0.3337  0.4087
19945TIP3   OH281325   6.258   4.169  13.549  0.1878  0.8202  0.4762
19945TIP3    H181326   6.164   4.164  13.528 -0.0252  1.4899  1.2169
19945TIP3    H281327   6.301   4.137  13.470 -0.6905 -3.3684  1.4659
19946TIP3   OH281328   2.493   3.043   1.085 -0.1375 -0.3221 -0.4378
19946TIP3    H181329   2.433   2.979   1.124  0.2028  0.1029  0.8635
19946TIP3    H281330   2.436   3.112   1.051 -0.4387  0.5078  1.5553
19947TIP3   OH281331   6.149   1.912   0.636 -0.7175  0.2482 -0.5415
19947TIP3    H181332   6.103   1.858   0.572 -1.9646  2.4325 -1.5831
19947TIP3    H281333   6.204   1.970   0.584  0.7512 -0.0841  0.5576
19948TIP3   OH281334   5.114   4.478  16.631  0.6856  0.6051  0.4952
19948TIP3    H181335   5.201   4.488  16.592  0.7608  1.0303  0.7689
19948TIP3    H281336   5.068   4.419  16.571  0.3864  2.2098 -0.9453
19949TIP3   OH281337   1.744   0.020   3.061 -0.1984 -0.1005  0.5725
19949TIP3    H181338   1.776  -0.061   3.101  0.4022 -0.2465 -0.1915
19949TIP3    H281339   1.820   0.079   3.062  0.5888 -0.9239 -2.5562
19950TIP3   OH281340   6.308   2.094  11.512 -0.5928 -0.0426 -0.3590
19950TIP3    H181341   6.308   2.185  11.484  1.2068 -0.1869 -0.9180
19950TIP3    H281342   6.217   2.066  11.503 -1.5532  2.1709  1.5104
19951TIP3   OH281343   4.725   0.732   6.004 -0.3438  0.0156 -0.3425
19951TIP3    H181344   4.800   0.729   6.064  0.2092 -1.1279 -1.0605
19951TIP3    H281345   4.655   0.771   6.056  0.6232  0.7196  0.4782
19952TIP3   OH281346   1.887   5.997   4.605  0.1356 -0.1123  0.2323
19952TIP3    H181347   1.957   5.940   4.638  0.9955  0.3866 -0.6982
19952TIP3    H281348   1.856   5.953   4.525 -0.8315 -0.4807  0.7893
19953TIP3   OH281349   0.543   2.939  12.749 -0.1001 -0.0134 -0.1732
19953TIP3    H181350   0.636   2.918  12.756  0.1892  0.8677 -1.1277
19953TIP3    H281351   0.533   2.975  12.661 -1.1941  0.6549  0.1986
19954TIP3   OH281352   6.713   0.218  10.716 -0.7454  0.6477  0.9420
19954TIP3    H181353   6.702   0.311  10.699 -0.2688  0.4602 -0.5308
19954TIP3    H281354   6.637   0.177  10.674 -0.5297  0.3134  0.8705
19955TIP3   OH281355   6.546   5.079   6.630 -0.1630  0.3829  0.4743
19955TIP3    H181356   6.547   5.173   6.613  0.1630  0.3698  0.4111
19955TIP3    H281357   6.454   5.058   6.644 -0.2920  0.6260  0.0040
19956TIP3   OH281358   5.348   5.337   0.968 -0.0440  0.1338 -0.1006
19956TIP3    H181359   5.372   5.292   0.887  1.8401 -0.0613  0.5252
19956TIP3    H281360   5.318   5.266   1.026  0.2278  0.0468 -0.0646
19957TIP3   OH281361   3.860   1.817   4.782  0.2555 -0.3382  0.1107
19957TIP3    H181362   3.783   1.859   4.744  1.3082 -0.9458 -2.9772
19957TIP3    H281363   3.825   1.751   4.842 -1.5773  0.2696 -0.2305
19958TIP3   OH281364   1.870   4.154  13.641  0.1019  0.0350  0.0350
19958TIP3    H181365   1.779   4.133  13.661  0.0960 -1.5498 -1.3929
19958TIP3    H281366   1.866   4.230  13.583 -0.4824 -1.0950 -1.4750
19959TIP3   OH281367   4.959   5.849   2.465 -0.2739  0.3651 -0.4707
19959TIP3    H181368   5.009   5.779   2.422  1.7111 -0.3513  2.6584
19959TIP3    H281369   4.991   5.930   2.424  0.6092 -0.3210 -1.1684
19960TIP3   OH281370   5.676   2.533   5.244  0.0158  0.2493 -0.3855
19960TIP3    H181371   5.711   2.448   5.220 -1.8595 -1.3618  2.0182
19960TIP3    H281372   5.581   2.521   5.242 -0.2992  2.2356  0.1568
19961TIP3   OH281373   2.015   2.028  12.362  0.2673 -0.0723  0.0663
19961TIP3    H181374   1.966   2.066  12.435 -0.6825  0.4869 -0.8253
19961TIP3    H281375   2.070   2.100  12.330  0.0456 -0.0614 -0.2954
19962TIP3   OH281376   6.820   0.150   4.750  0.4922 -0.7357  0.1149
19962TIP3    H181377   6.888   0.201   4.793  1.4185 -1.2626 -0.6958
19962TIP3    H281378   6.794   0.084   4.814  0.5069 -0.3284  0.5410
19963TIP3   OH281379   4.065   5.829  14.468 -0.5476 -0.2620  0.2043
19963TIP3    H181380   4.017   5.826  14.385 -1.5832 -0.5809  0.7922
19963TIP3    H281381   4.067   5.737  14.497  0.5418 -0.2721  0.1303
19964TIP3   OH281382   3.991   1.180  11.364  0.2360  0.0508  0.1510
19964TIP3    H181383   3.940   1.255  11.335  0.1503 -0.4205 -0.9533
19964TIP3    H281384   3.941   1.143  11.437 -0.3995  0.2869 -0.1595
19965TIP3   OH281385   1.541   5.240   2.440 -0.2279 -0.1311 -0.1857
19965TIP3    H181386   1.470   5.261   2.500 -1.0666  0.9256 -1.5074
19965TIP3    H281387   1.513   5.159   2.397  1.1679 -1.9120  1.9964
19966TIP3   OH281388   6.169   6.806   5.976 -0.6414  0.1073 -0.2621
19966TIP3    H181389   6.073   6.802   5.979 -0.6555  0.8126  0.4730
19966TIP3    H281390   6.196   6.795   6.067 -0.0329  0.2032 -0.4305
19967TIP3   OH281391   6.507   2.605  16.479  0.4036  0.2137  0.5518
19967TIP3    H181392   6.525   2.641  16.392 -1.5122 -0.1513 -0.0344
19967TIP3    H281393   6.419   2.636  16.500  0.7209  0.0626  2.2618
19968TIP3   OH281394   5.110   1.823  11.994  0.5840 -0.0013 -0.1495
19968TIP3    H181395   5.162   1.855  11.920  0.9835  0.3757  0.2907
19968TIP3    H281396   5.037   1.884  11.999  0.8891  0.3438  0.1533
19969TIP3   OH281397   0.974   4.854   0.651 -0.0755  0.0718 -0.3393
19969TIP3    H181398   0.890   4.886   0.619  0.0471  0.2426 -0.4920
19969TIP3    H281399   1.020   4.825   0.572 -0.4494 -1.1144 -0.1359
19970TIP3   OH281400   5.204   5.955  11.877  0.5403 -0.3894  0.0188
19970TIP3    H181401   5.108   5.959  11.870  0.6213 -0.0546 -1.1796
19970TIP3    H281402   5.221   5.941  11.970 -0.7057 -1.5911  0.1009
19971TIP3   OH281403   2.799   2.760   3.710  0.3806 -0.6131 -0.3304
19971TIP3    H181404   2.792   2.743   3.804 -1.4610  1.1493 -0.0831
19971TIP3    H281405   2.821   2.853   3.704 -1.2415 -0.2604 -1.5980
19972TIP3   OH281406   2.248   0.762  11.852  0.2669  0.2609  0.3744
19972TIP3    H181407   2.211   0.673  11.862 -0.6385  0.7533  1.8753
19972TIP3    H281408   2.218   0.791  11.766  0.8885 -1.0137 -0.3013
19973TIP3   OH281409   6.501   5.269   1.968 -0.0022  1.0156 -0.1584
19973TIP3    H181410   6.541   5.188   2.000  0.5336  1.7158  1.0398
19973TIP3    H281411   6.438   5.241   1.902 -0.9917 -0.5353  1.3638
19974TIP3   OH281412   5.071   4.498   2.445  0.1090 -0.8406  0.0440
19974TIP3    H181413   5.009   4.494   2.518 -0.3841  0.1832 -0.3013
19974TIP3    H281414   5.041   4.571   2.392  0.9569 -1.0457 -0.7477
19975TIP3   OH281415   4.979   0.778   2.504  0.3303 -0.5273 -0.1808
19975TIP3    H181416   4.975   0.839   2.430  1.2869 -0.7768 -0.4544
19975TIP3    H281417   5.041   0.710   2.476  2.6052  0.6227  1.7139
19976TIP3   OH281418   1.865   3.858  17.132 -0.7538 -0.6416  0.3628
19976TIP3    H181419   1.785   3.886  17.175 -1.3739 -2.2714  0.3613
19976TIP3    H281420   1.928   3.847  17.203 -0.3612  1.0847  0.3133
19977TIP3   OH281421   0.482   1.930   1.287 -0.6385 -1.1676 -0.6218
19977TIP3    H181422   0.509   1.899   1.201 -1.1824 -1.7916 -0.5826
19977TIP3    H281423   0.563   1.953   1.332 -0.3537 -0.8814 -1.2834
19978TIP3   OH281424   6.617   4.032  13.203 -0.0442  0.5560  0.0829
19978TIP3    H181425   6.541   4.003  13.153  0.7819  0.1144 -0.9599
19978TIP3    H281426   6.692   3.991  13.159  0.7253  0.2582  1.6160
19979TIP3   OH281427   3.145   2.267  14.077 -0.1040 -0.2834 -0.3644
19979TIP3    H181428   3.143   2.276  14.172 -0.5521 -1.3141 -0.2642
19979TIP3    H281429   3.054   2.251  14.052  0.3999 -3.7993 -0.5180
19980TIP3   OH281430   1.100   4.392   0.773 -0.2138  0.4153  0.1059
19980TIP3    H181431   1.170   4.358   0.829 -1.7336  0.3772  2.1108
19980TIP3    H281432   1.094   4.485   0.795 -2.0807  0.0270  1.5475
19981TIP3   OH281433   5.505   5.411   3.368 -0.4799 -0.1325 -0.0608
19981TIP3    H181434   5.433   5.469   3.390 -0.0625  0.7044 -0.8305
19981TIP3    H281435   5.475   5.363   3.291 -0.1341  0.4020 -0.5383
19982TIP3   OH281436   3.145   2.365  12.532  0.5132  0.6430  0.4606
19982TIP3    H181437   3.080   2.301  12.502  0.3155  1.2688 -0.5140
19982TIP3    H281438   3.127   2.377  12.625  0.7005 -0.8717  0.7244
19983TIP3   OH281439   1.505   1.775  14.060  0.1251 -0.1467 -0.0613
19983TIP3    H181440   1.477   1.825  13.984  0.0975 -0.1872 -0.0783
19983TIP3    H281441   1.429   1.776  14.119  1.1698  2.6681  1.4385
19984TIP3   OH281442   3.636   5.686  16.532  0.2780  0.2348  0.2296
19984TIP3    H181443   3.577   5.674  16.457  2.6737 -1.2774 -1.5458
19984TIP3    H281444   3.616   5.774  16.564 -1.9742  0.3001 -1.0882
19985TIP3   OH281445   5.458   1.312   6.515 -0.3766 -0.4884 -0.7349
19985TIP3    H181446   5.367   1.342   6.517 -0.5595 -0.9896 -1.3328
19985TIP3    H281447   5.458   1.231   6.567  0.3481  1.0840  1.9046
19986TIP3   OH281448   4.015   2.803  16.955  0.0951 -0.5067 -0.0802
19986TIP3    H181449   3.922   2.787  16.973  0.1675 -0.7299  0.0911
19986TIP3    H281450   4.059   2.723  16.982  0.2623 -0.6606 -0.7842
19987TIP3   OH281451   3.144   4.967   2.977  0.1317  0.0819  0.3776
19987TIP3    H181452   3.130   4.946   3.069  0.0474 -1.3486  0.0642
19987TIP3    H281453   3.203   5.043   2.978  1.7300 -1.1212  1.6166
19988TIP3   OH281454   3.009   2.156  14.345  0.0033 -0.4624  0.4799
19988TIP3    H181455   2.946   2.153  14.273 -0.3515  1.4458  0.6702
19988TIP3    H281456   2.965   2.111  14.417 -1.1891  0.9050  0.6317
19989TIP3   OH281457   2.089   2.188  10.355 -0.7339  0.2611 -0.4917
19989TIP3    H181458   2.184   2.200  10.355 -0.8507  1.4422 -2.2308
19989TIP3    H281459   2.073   2.122  10.287 -1.2176  0.6492 -0.7558
19990TIP3   OH281460   2.220   2.648   6.403  0.0489  0.1032  0.1415
19990TIP3    H181461   2.130   2.620   6.418 -0.1886  1.1944  0.8384
19990TIP3    H281462   2.257   2.580   6.348 -1.1657 -0.4253 -0.0514
19991TIP3   OH281463   0.793   3.746   4.958  0.4449  0.2965 -0.1603
19991TIP3    H181464   0.785   3.737   4.863 -0.4856 -2.9510  0.1107
19991TIP3    H281465   0.820   3.837   4.971  2.6627  0.3375 -3.6329
19992TIP3   OH281466   0.744   5.661  12.957  0.1044 -0.1407 -0.2125
19992TIP3    H181467   0.839   5.655  12.968  0.5248 -2.0669 -3.5276
19992TIP3    H281468   0.708   5.622  13.036  2.1286 -1.1609  0.2666
19993TIP3   OH281469   1.676   0.706   5.124  0.0488 -0.1754  0.0771
19993TIP3    H181470   1.663   0.612   5.121 -0.0747 -0.1804  0.6654
19993TIP3    H281471   1.708   0.729   5.036  1.4514 -0.9657  0.3513
19994TIP3   OH281472   5.494   4.091  14.329  0.0634 -0.8346  0.6961
19994TIP3    H181473   5.400   4.079  14.345  0.2335 -1.8676  1.0140
19994TIP3    H281474   5.509   4.184  14.343 -0.9819 -0.5844  0.2627
19995TIP3   OH281475   1.460   6.358   4.087  0.4066 -0.1046  0.3045
19995TIP3    H181476   1.519   6.294   4.128  1.2337  0.0492 -0.6194
19995TIP3    H281477   1.422   6.311   4.013  0.5733  0.2835 -0.0309
19996TIP3   OH281478   1.129   0.653   2.546  0.1582 -0.4347 -0.0442
19996TIP3    H181479   1.149   0.668   2.454  0.8117 -1.9722 -0.1730
19996TIP3    H281480   1.214   0.637   2.587  0.0865  1.9208  1.1997
19997TIP3   OH281481   5.687   3.807   4.641 -0.4513 -0.1088  0.5872
19997TIP3    H181482   5.635   3.746   4.588 -0.6911  0.5399  0.0657
19997TIP3    H281483   5.635   3.887   4.642 -0.4101 -0.0827  1.7410
19998TIP3   OH281484   5.349   0.449  16.535  0.0884 -0.5215 -0.1223
19998TIP3    H181485   5.324   0.412  16.451 -0.1812  1.6622 -1.0626
19998TIP3    H281486   5.398   0.529  16.513  0.8569 -0.4050  1.7790
19999TIP3   OH281487   2.205   6.030   0.207  0.2913  0.0392 -0.6988
19999TIP3    H181488   2.286   6.041   0.257 -0.5802 -2.3654  1.4928
19999TIP3    H281489   2.185   5.937   0.214 -3.6425  0.7951  0.6038
20000TIP3   OH281490   5.272   3.066  14.984  0.0988  0.5278  0.2692
20000TIP3    H181491   5.191   3.017  14.969  0.0911  0.7225 -0.3816
20000TIP3    H281492   5.245   3.158  14.981  0.1945  0.5831  0.9861
20001TIP3   OH281493   1.975   1.811  12.660  0.0122  0.0031  0.0824
20001TIP3    H181494   2.007   1.847  12.577 -0.2109 -0.6578 -0.3023
20001TIP3    H281495   1.888   1.849  12.670 -0.6241 -1.1225 -0.8113
20002TIP3   OH281496   3.895   6.686  15.296  0.0711 -0.0945  0.1376
20002TIP3    H181497   3.934   6.773  15.305 -2.1885  1.2932 -2.0698
20002TIP3    H281498   3.961   6.626  15.330  3.2647  2.1553 -1.5758
20003TIP3   OH281499   4.589   2.343   4.582  0.5575  0.1209  0.4091
20003TIP3    H181500   4.547   2.279   4.524  1.9737 -1.1854  0.7709
20003TIP3    H281501   4.647   2.291   4.638  1.4687  1.6880  0.9852
20004TIP3   OH281502   2.777   5.406  14.205  0.4176  0.2654 -0.0625
20004TIP3    H181503   2.794   5.368  14.119  1.4557  1.0731 -0.2302
20004TIP3    H281504   2.718   5.343  14.247  1.0270 -0.8506 -0.8156
20005TIP3   OH281505   2.809   1.165  13.256  0.7871 -0.2364  0.1779
20005TIP3    H181506   2.854   1.091  13.213 -1.4552 -0.2565 -2.3507
20005TIP3    H281507   2.832   1.241  13.203 -1.3984 -0.1121 -0.6705
20006TIP3   OH281508   3.946   4.920  14.519  0.1338 -0.3838 -0.1219
20006TIP3    H181509   4.005   4.870  14.576 -0.3439 -0.6086  0.1850
20006TIP3    H281510   3.871   4.941  14.575  0.0522  0.1405 -0.4263
20007TIP3   OH281511   1.322   0.393   0.854  0.3332  0.0568 -0.0405
20007TIP3    H181512   1.344   0.482   0.827  0.2610  0.9112  2.4021
20007TIP3    H281513   1.228   0.386   0.842  0.1539  0.7643  0.8052
20008TIP3   OH281514   5.527   4.127  11.930  0.3015 -0.8432  0.2845
20008TIP3    H181515   5.435   4.100  11.934  0.1832 -0.3181  1.2990
20008TIP3    H281516   5.576   4.052  11.962  0.0828 -0.4379  1.6001
20009TIP3   OH281517   2.626   5.733   2.128 -0.0161 -0.6395 -0.5538
20009TIP3    H181518   2.646   5.642   2.149 -1.7683 -1.2818 -1.4256
20009TIP3    H281519   2.613   5.776   2.213  1.0283 -1.1200 -0.1335
20010TIP3   OH281520   1.492   2.219  13.780  0.0559  0.2263  0.8257
20010TIP3    H181521   1.562   2.179  13.832 -0.2269  0.3012  1.2699
20010TIP3    H281522   1.511   2.193  13.690 -0.7162 -1.8293  1.2165
20011TIP3   OH281523   4.501   0.683   2.201  0.0705  0.1042  0.3276
20011TIP3    H181524   4.493   0.640   2.116 -2.4722 -1.7463  1.3705
20011TIP3    H281525   4.417   0.726   2.215  0.7476  1.0894  1.5467
20012TIP3   OH281526   0.520   6.600  13.602  0.2771 -0.1072  0.3128
20012TIP3    H181527   0.511   6.506  13.584  1.6624 -0.1922 -0.0903
20012TIP3    H281528   0.610   6.621  13.574 -0.8285  1.9280 -2.1146
20013TIP3   OH281529   2.105   3.922  15.144  0.0738  0.1848 -0.5967
20013TIP3    H181530   2.086   3.836  15.106 -1.3670 -1.2081  2.8382
20013TIP3    H281531   2.020   3.967  15.143  0.9438  1.9420 -2.9603
20014TIP3   OH281532   6.645   3.798  15.204  0.0124 -0.7444 -0.2182
20014TIP3    H181533   6.587   3.776  15.276  0.4963  0.9073  0.7455
20014TIP3    H281534   6.732   3.777  15.235  0.3402  1.0433  0.1837
20015TIP3   OH281535   5.229   1.928   1.154 -0.3610  0.5533  0.2633
20015TIP3    H181536   5.226   1.834   1.170  1.6324  0.4764  0.4541
20015TIP3    H281537   5.263   1.936   1.065  0.9974  1.0804  0.8103
20016TIP3   OH281538   1.390   6.707   2.068  0.0246  0.5343 -0.3690
20016TIP3    H181539   1.315   6.696   2.009  0.6316  0.8283 -1.2114
20016TIP3    H281540   1.402   6.621   2.109  0.7109 -0.2033 -2.0287
20017TIP3   OH281541   1.237   1.914  11.565  0.0821 -0.1370  0.1383
20017TIP3    H181542   1.174   1.977  11.530  0.9331  0.5169 -0.2412
20017TIP3    H281543   1.187   1.864  11.630 -1.1209 -0.3613 -0.9156
20018TIP3   OH281544   6.718   1.025  12.312 -0.3880 -0.0441  0.1910
20018TIP3    H181545   6.766   1.108  12.311  0.2309 -0.3872  0.6544
20018TIP3    H281546   6.629   1.050  12.339 -0.5696  0.6315 -0.9377
20019TIP3   OH281547   0.278   4.014   1.079  0.2996  0.2549 -0.0218
20019TIP3    H181548   0.263   4.072   1.004  0.6296 -0.7767 -0.9085
20019TIP3    H281549   0.190   3.991   1.109  0.1539 -0.0258 -0.6530
20020TIP3   OH281550   1.176   4.556   3.175  0.5968 -0.2044 -0.0805
20020TIP3    H181551   1.259   4.520   3.207  0.3304 -2.3198 -1.5646
20020TIP3    H281552   1.191   4.573   3.082 -0.1861  0.8869 -0.0289
20021TIP3   OH281553   0.687   6.070   3.446 -0.2231  0.2388 -0.3850
20021TIP3    H181554   0.693   5.978   3.420 -0.5011 -0.3038  1.3228
20021TIP3    H281555   0.595   6.093   3.429  0.0730  0.4858 -1.6725
20022TIP3   OH281556   6.468   1.102   2.994  0.3188 -0.1926 -0.0629
20022TIP3    H181557   6.489   1.083   2.902  3.2543  2.8507 -0.2094
20022TIP3    H281558   6.548   1.079   3.041  0.3104  1.9702  1.0992
20023TIP3   OH281559   6.503   1.023  10.952 -0.2988  0.2417 -0.1068
20023TIP3    H181560   6.498   1.117  10.936 -1.4324  0.1237 -0.5329
20023TIP3    H281561   6.596   1.006  10.964 -0.0389  1.3548 -0.4134
20024TIP3   OH281562   2.450   4.285   6.083  0.5348 -0.3351 -0.3358
20024TIP3    H181563   2.491   4.371   6.088 -0.3724  0.4253 -3.4764
20024TIP3    H281564   2.372   4.292   6.138 -0.1680  1.3510 -1.4345
20025TIP3   OH281565   2.605   0.054  15.015 -0.0267  0.5542 -0.2362
20025TIP3    H181566   2.666   0.089  14.949 -0.7722  0.2298 -1.1171
20025TIP3    H281567   2.524   0.103  15.002  0.0472  1.0083  0.9579
20026TIP3   OH281568   2.587   1.670  14.725  0.3382 -0.4797 -0.0896
20026TIP3    H181569   2.561   1.579  14.711 -0.2083 -0.4529  0.6735
20026TIP3    H281570   2.566   1.686  14.817 -0.9867  0.8727 -0.5929
20027TIP3   OH281571   4.922   3.802  11.318  0.6596  0.0851 -0.0198
20027TIP3    H181572   4.838   3.756  11.320  0.7792 -0.2409 -1.3501
20027TIP3    H281573   4.981   3.742  11.272  1.5250  0.4615  0.5809
20028TIP3   OH281574   2.953   3.907  13.022  0.0773  0.0293  0.6362
20028TIP3    H181575   3.035   3.879  13.063 -0.0167 -0.0787  0.7556
20028TIP3    H281576   2.941   3.846  12.949 -0.0788 -0.1857  0.8380
20029TIP3   OH281577   5.027   2.541  12.187  0.3729  0.0013 -0.0825
20029TIP3    H181578   5.107   2.587  12.164 -0.3675  1.3468 -0.0842
20029TIP3    H281579   5.031   2.459  12.137  1.5290  0.2374 -0.4043
20030TIP3   OH281580   4.897   1.316   5.688  0.7116 -0.0352  0.9666
20030TIP3    H181581   4.957   1.321   5.614  1.6257 -2.0158  1.4895
20030TIP3    H281582   4.951   1.339   5.764  0.1397  0.6571  1.1718
20031TIP3   OH281583   2.480   1.858   0.258 -0.0993 -0.2728  0.2116
20031TIP3    H181584   2.569   1.821   0.264 -0.4502 -0.9572  2.3109
20031TIP3    H281585   2.424   1.783   0.238 -0.5722 -0.5969  2.4545
20032TIP3   OH281586   2.371   5.969  14.386  0.4669 -0.5854 -0.1156
20032TIP3    H181587   2.448   5.930  14.427 -0.8142 -2.3007  0.8048
20032TIP3    H281588   2.391   5.969  14.293  1.3857 -1.5025  0.0640
20033TIP3   OH281589   0.750   4.119   4.581 -0.1299  0.3355 -0.0154
20033TIP3    H181590   0.692   4.078   4.645 -0.9377  1.3189 -0.0852
20033TIP3    H281591   0.828   4.063   4.579 -0.2258  0.0976  1.5761
20034TIP3   OH281592   2.937   5.477  15.032 -0.3253  0.1822 -0.0608
20034TIP3    H181593   2.937   5.530  14.952 -0.8509  0.9537  0.4329
20034TIP3    H281594   2.845   5.456  15.047 -0.4939  1.7364  1.4069
20035TIP3   OH281595   5.067   2.535  15.138 -0.8835  0.2281 -0.0617
20035TIP3    H181596   5.009   2.611  15.141  1.1418  1.8623  0.9583
20035TIP3    H281597   5.018   2.465  15.180 -1.5555  2.0131  2.4108
20036TIP3   OH281598   2.204   1.869   4.062 -0.7621  0.0628  0.2774
20036TIP3    H181599   2.289   1.897   4.096 -0.0780 -0.8458 -0.6006
20036TIP3    H281600   2.180   1.793   4.114 -0.9707  0.2301  0.4285
20037TIP3   OH281601   4.895   6.263   3.783  0.2838  0.5888 -0.0105
20037TIP3    H181602   4.804   6.278   3.809 -0.1699 -2.0826  0.3260
20037TIP3    H281603   4.903   6.305   3.698 -1.6778 -0.0917 -0.6021
20038TIP3   OH281604   2.411   5.259   6.257 -0.0575 -0.2421  0.0831
20038TIP3    H181605   2.431   5.287   6.346 -0.2360 -0.0487  0.0628
20038TIP3    H281606   2.348   5.323   6.225  0.9534  0.4400 -0.6215
20039TIP3   OH281607   6.373   5.182  11.559  0.2804  0.1981 -0.3241
20039TIP3    H181608   6.420   5.244  11.503  1.1595 -1.7459 -1.8661
20039TIP3    H281609   6.434   5.110  11.572 -0.6684 -0.3363  1.5030
20040TIP3   OH281610   1.831   6.165  12.446  0.0106 -0.0068 -0.0517
20040TIP3    H181611   1.812   6.091  12.503 -0.8627  0.5007  0.3299
20040TIP3    H281612   1.763   6.162  12.378  0.9841 -0.5527 -1.0407
20041TIP3   OH281613   3.784   0.472   1.910  0.0794 -0.1871  0.4125
20041TIP3    H181614   3.767   0.546   1.852 -1.7906 -0.2056  0.8901
20041TIP3    H281615   3.860   0.429   1.871  0.5189  1.3221 -0.4995
20042TIP3   OH281616   0.211   6.493  15.586  0.0445 -0.2438 -0.0581
20042TIP3    H181617   0.167   6.553  15.646  2.2841 -0.2081  1.6970
20042TIP3    H281618   0.269   6.550  15.534  0.2037 -0.5906 -0.2651
20043TIP3   OH281619   5.502   6.741  15.983 -0.1612  0.0334  0.7412
20043TIP3    H181620   5.500   6.789  16.066 -0.3323 -1.1780  1.4536
20043TIP3    H281621   5.584   6.767  15.942  0.9241 -0.8933  2.2311
20044TIP3   OH281622   5.135   3.222   3.871 -0.1775 -0.4074 -0.2268
20044TIP3    H181623   5.135   3.217   3.775  2.0555  1.0270 -0.3636
20044TIP3    H281624   5.098   3.308   3.891  0.5111 -0.1906  0.1344
20045TIP3   OH281625   0.560   5.543  13.122  0.5037 -0.0161  0.7270
20045TIP3    H181626   0.540   5.537  13.215  1.1204 -0.9986  0.8106
20045TIP3    H281627   0.580   5.453  13.095  0.7827  0.3156 -0.2492
20046TIP3   OH281628   5.088   3.403   5.558 -0.4304 -0.0200 -0.3485
20046TIP3    H181629   5.137   3.358   5.627  0.1108 -1.6595 -1.7297
20046TIP3    H281630   5.039   3.471   5.604  0.2415 -0.7682  1.5826
20047TIP3   OH281631   3.660   3.060  13.006 -0.5314 -0.1685 -0.2704
20047TIP3    H181632   3.675   2.976  13.049 -1.6293  0.2157  0.9313
20047TIP3    H281633   3.748   3.096  12.992  0.0411 -2.0485 -2.0045
20048TIP3   OH281634   3.329   5.225  15.158  0.3334 -0.0964  0.3528
20048TIP3    H181635   3.247   5.181  15.179  0.7232 -0.8502  0.3142
20048TIP3    H281636   3.397   5.169  15.196  0.9050 -0.1564 -0.7183
20049TIP3   OH281637   5.666   2.508   6.654  0.2334 -0.0824 -0.5157
20049TIP3    H181638   5.572   2.493   6.653  0.2020  0.1022 -0.3289
20049TIP3    H281639   5.680   2.580   6.592 -0.0554  1.6348  1.2970
20050TIP3   OH281640   1.366   2.226   1.980  0.4846 -0.3208 -0.1825
20050TIP3    H181641   1.406   2.217   2.066 -0.6118  0.5256  0.4417
20050TIP3    H281642   1.275   2.252   1.998  0.3513  0.2765 -1.5930
20051TIP3   OH281643   3.027   1.037   0.417  0.0688 -0.6563 -0.3914
20051TIP3    H181644   2.936   1.061   0.399  0.3453 -0.6317 -1.8674
20051TIP3    H281645   3.024   0.943   0.435 -0.1495 -0.8372 -1.3230
20052TIP3   OH281646   6.593   6.350  11.371 -0.6907  0.2988 -0.0068
20052TIP3    H181647   6.571   6.257  11.370  1.2841 -0.2197  0.9827
20052TIP3    H281648   6.595   6.374  11.278  0.8169 -1.2013 -0.4223
20053TIP3   OH281649   6.082   2.470   5.236  0.0861  0.0834 -0.2251
20053TIP3    H181650   6.055   2.497   5.148 -1.9899 -0.1038  0.3122
20053TIP3    H281651   6.128   2.387   5.221 -1.1328 -0.4787 -1.0825
20054TIP3   OH281652   3.986   0.345  14.664  0.3538  0.4811  0.4188
20054TIP3    H181653   4.027   0.272  14.712 -1.5848 -1.7216 -1.0462
20054TIP3    H281654   3.898   0.351  14.701 -0.3905  0.2776 -1.2522
20055TIP3   OH281655   0.429   1.312  11.955 -0.4364 -0.1880 -0.0010
20055TIP3    H181656   0.355   1.348  12.005  0.8218  1.1469  1.0036
20055TIP3    H281657   0.493   1.383  11.954  1.8980 -2.1245  1.4157
20056TIP3   OH281658   6.554   5.627  15.271 -0.3292 -0.1554  0.3011
20056TIP3    H181659   6.642   5.613  15.304 -0.5437 -0.1106  0.9029
20056TIP3    H281660   6.551   5.720  15.249  0.1090 -0.3800 -0.7368
20057TIP3   OH281661   1.934   5.399   1.429 -0.6814  0.2886  0.8045
20057TIP3    H181662   1.929   5.403   1.525  1.2102  0.3052  0.9434
20057TIP3    H281663   1.904   5.485   1.400 -1.4285  0.2275  1.3689
20058TIP3   OH281664   6.242   0.935  12.490 -0.2308 -0.4356 -0.1752
20058TIP3    H181665   6.222   1.012  12.542  0.6502  0.5628 -1.2481
20058TIP3    H281666   6.159   0.888  12.482 -0.9658  0.8408 -0.1870
20059TIP3   OH281667   3.807   0.470   3.688  0.0046  0.4857 -0.3084
20059TIP3    H181668   3.831   0.546   3.635 -0.6604  2.0812  1.5051
20059TIP3    H281669   3.750   0.507   3.756 -0.0036 -1.5971  0.8884
20060TIP3   OH281670   6.681   1.055   4.477 -0.1831  0.5817  0.5305
20060TIP3    H181671   6.595   1.014   4.480  0.6188 -1.1479  2.5520
20060TIP3    H281672   6.732   0.998   4.419  0.3287 -0.0643  1.5822
20061TIP3   OH281673   0.098   3.174  13.588  0.3820  0.7126 -0.0645
20061TIP3    H181674   0.125   3.247  13.532  1.2007 -1.8802 -3.4413
20061TIP3    H281675   0.004   3.166  13.572 -0.2126  2.3706  2.2019
20062TIP3   OH281676   4.034   5.936  13.155 -0.2066  0.2390  0.2216
20062TIP3    H181677   3.996   5.878  13.221  1.1255 -1.0469 -0.0887
20062TIP3    H281678   3.976   6.012  13.153 -2.0925 -1.1312  0.5540
20063TIP3   OH281679   5.808   5.496   3.972  0.2386 -0.1309 -0.2498
20063TIP3    H181680   5.737   5.541   4.017 -0.5653 -2.6213  1.2127
20063TIP3    H281681   5.880   5.496   4.035  0.2242 -0.8169 -0.2215
20064TIP3   OH281682   4.344   2.102  15.347  0.0719  0.2775 -0.4355
20064TIP3    H181683   4.317   2.159  15.419  0.8143  0.6433 -0.4387
20064TIP3    H281684   4.285   2.027  15.353  1.6769 -0.9422  2.1405
20065TIP3   OH281685   3.446   5.060   2.900  0.0651  0.2805 -0.7208
20065TIP3    H181686   3.413   5.001   2.833 -0.5083  0.8180 -0.9154
20065TIP3    H281687   3.467   5.003   2.974 -3.9272  0.1097  0.5106
20066TIP3   OH281688   3.135   6.561  15.635  0.0809  0.2959  0.3137
20066TIP3    H181689   3.165   6.651  15.642  0.2092  0.2192  0.7632
20066TIP3    H281690   3.213   6.511  15.610 -0.0476  0.3459 -0.2028
20067TIP3   OH281691   3.799   1.097  16.650 -0.0537 -0.3857 -0.4949
20067TIP3    H181692   3.865   1.113  16.582  2.5576  0.5047  2.0296
20067TIP3    H281693   3.753   1.180  16.659  1.3839  0.3626  0.4868
20068TIP3   OH281694   2.761   3.320  14.914 -0.4850  0.4474 -0.1050
20068TIP3    H181695   2.796   3.242  14.957 -1.1016  1.3184  2.1568
20068TIP3    H281696   2.838   3.373  14.895 -0.0671 -0.6346 -1.5868
20069TIP3   OH281697   2.919   0.033  11.774  0.3056  0.6162  0.5922
20069TIP3    H181698   2.912  -0.027  11.848  0.5279 -0.1646  0.0017
20069TIP3    H281699   2.828   0.043  11.743  0.2179  0.9134  0.9437
20070TIP3   OH281700   5.699   2.414  13.477  0.0510 -0.0204  1.0477
20070TIP3    H181701   5.663   2.434  13.391  0.8255 -0.7824  0.5351
20070TIP3    H281702   5.655   2.333  13.504 -0.9159  0.7308  1.8241
20071TIP3   OH281703   5.769   3.200   5.569  0.0318 -0.5381  0.0351
20071TIP3    H181704   5.740   3.113   5.541  1.1975 -0.8255 -0.3176
20071TIP3    H281705   5.784   3.248   5.487 -3.6549  1.1329  0.1114
20072TIP3   OH281706   6.723   1.168  15.041 -0.1250 -0.6884 -0.2083
20072TIP3    H181707   6.660   1.236  15.015 -0.0983 -1.1372 -1.5158
20072TIP3    H281708   6.669   1.094  15.067 -0.1908  0.1672  2.3950
20073TIP3   OH281709   4.020   4.332   2.378  0.2895 -0.1250 -0.0626
20073TIP3    H181710   4.044   4.389   2.305 -2.7139  0.7250 -0.5280
20073TIP3    H281711   3.994   4.392   2.448 -0.4767 -0.9222  0.3521
20074TIP3   OH281712   2.430   5.110   2.774 -0.4469 -0.2639 -0.1743
20074TIP3    H181713   2.461   5.155   2.696 -1.3710 -1.1262 -1.0837
20074TIP3    H281714   2.344   5.148   2.791  0.2515  0.7831  1.1873
20075TIP3   OH281715   0.311   3.112   0.642 -0.0222 -0.1615  0.1164
20075TIP3    H181716   0.267   3.099   0.726  0.1062  2.5642  0.7169
20075TIP3    H281717   0.255   3.174   0.595  2.3349  2.3388  0.3491
20076TIP3   OH281718   4.638   1.575   4.388  0.2020 -0.0357 -0.5294
20076TIP3    H181719   4.659   1.510   4.321  0.9469 -0.2609 -0.0879
20076TIP3    H281720   4.605   1.525   4.462  0.4483  0.1142 -0.3151
20077TIP3   OH281721   5.795   3.142  11.876 -0.3347  0.1378 -0.1777
20077TIP3    H181722   5.806   3.106  11.964 -1.5956  0.5083  0.1565
20077TIP3    H281723   5.844   3.224  11.877 -1.0849  0.5924  0.4830
20078TIP3   OH281724   1.520   6.708   0.955  0.4532  0.1759  0.2559
20078TIP3    H181725   1.488   6.785   0.909 -0.2722  1.1238  2.2335
20078TIP3    H281726   1.504   6.635   0.895 -1.2243  1.2337 -0.6551
20079TIP3   OH281727   2.548   1.484  16.493 -0.0372  0.3375  0.7506
20079TIP3    H181728   2.534   1.403  16.541 -0.5348 -0.3287 -0.4825
20079TIP3    H281729   2.513   1.552  16.550 -1.4512 -0.5226  0.9562
20080TIP3   OH281730   3.797   0.338   4.925 -0.6017 -0.3062  0.0209
20080TIP3    H181731   3.860   0.315   4.993 -0.1281 -0.6217 -0.5167
20080TIP3    H281732   3.734   0.396   4.968 -1.2650 -1.8071  1.1646
20081TIP3   OH281733   4.754   2.483   1.807  0.1849 -0.0859 -0.1592
20081TIP3    H181734   4.768   2.575   1.832 -0.5362  0.8801 -2.9256
20081TIP3    H281735   4.670   2.483   1.762  0.7265 -1.8556 -1.2682
20082TIP3   OH281736   5.235   1.248  12.189  0.1142  0.0310 -0.2683
20082TIP3    H181737   5.303   1.198  12.143 -1.1463 -0.5706 -1.5488
20082TIP3    H281738   5.153   1.203  12.166 -0.7657  1.0322  0.8386
20083TIP3   OH281739   0.334   4.601  16.390 -0.0210 -0.1548 -0.4886
20083TIP3    H181740   0.261   4.543  16.368 -1.0406  0.1664  1.7880
20083TIP3    H281741   0.397   4.544  16.435 -0.2713  0.1619  0.2715
20084TIP3   OH281742   0.756   0.352  12.273 -0.0584 -0.0919  0.4328
20084TIP3    H181743   0.704   0.326  12.349 -0.6584  0.0043  0.0624
20084TIP3    H281744   0.839   0.382  12.310  0.1841 -1.3516  0.9448
20085TIP3   OH281745   5.417   2.661  12.635  0.1209 -0.3153  0.4985
20085TIP3    H181746   5.506   2.677  12.668  1.0052 -1.0395 -1.3793
20085TIP3    H281747   5.396   2.573  12.664 -0.1468 -0.0051  1.2606
20086TIP3   OH281748   1.867   5.560  16.813  0.6267 -0.6220 -0.7954
20086TIP3    H181749   1.932   5.553  16.743  1.1777 -1.0812 -0.2592
20086TIP3    H281750   1.892   5.638  16.862  0.8559 -0.8636 -0.5192
20087TIP3   OH281751   6.025   5.068   0.375 -0.1213  0.2409 -0.6990
20087TIP3    H181752   6.083   5.000   0.341 -2.1023 -0.4673 -2.8948
20087TIP3    H281753   5.982   5.104   0.297 -4.1410 -0.6962  0.8437
20088TIP3   OH281754   4.132   3.525  11.282  0.3014  0.8064 -0.4149
20088TIP3    H181755   4.187   3.540  11.205  0.2526 -1.5396 -0.9742
20088TIP3    H281756   4.194   3.504  11.352  0.2245 -0.5404 -0.7232
20089TIP3   OH281757   2.881   3.063   2.908  0.2438 -0.2767 -0.3101
20089TIP3    H181758   2.970   3.090   2.886  1.9431 -2.0714  3.4002
20089TIP3    H281759   2.885   2.968   2.913 -1.4939 -0.3290  1.2494
20090TIP3   OH281760   0.069   6.582   3.984  0.0907 -0.2686  0.0830
20090TIP3    H181761   0.083   6.492   4.014  0.6482  0.3121  1.6719
20090TIP3    H281762   0.121   6.635   4.044 -0.3186  1.1297 -0.7680
20091TIP3   OH281763   5.297   2.641   3.144 -0.3214  0.2530 -0.3930
20091TIP3    H181764   5.271   2.578   3.211 -0.6350  0.5843 -0.1954
20091TIP3    H281765   5.367   2.692   3.186  1.1268 -1.0550 -1.1488
20092TIP3   OH281766   5.847   1.983  15.443  0.1839 -0.5659 -0.4561
20092TIP3    H181767   5.893   1.899  15.450  0.4065 -0.4298 -0.2778
20092TIP3    H281768   5.767   1.962  15.395 -0.4605 -1.1681  0.8361
20093TIP3   OH281769   0.059   0.478  12.303 -0.1416  0.2144 -0.2649
20093TIP3    H181770   0.076   0.451  12.213 -0.5989  1.2292 -0.6690
20093TIP3    H281771   0.044   0.572  12.298 -1.1486  0.1278  0.7315
20094TIP3   OH281772   6.748   1.487   0.222  0.2574 -0.4213 -0.0320
20094TIP3    H181773   6.819   1.528   0.173  1.2695 -1.8125  0.2040
20094TIP3    H281774   6.711   1.423   0.161 -0.7658  0.2495 -0.1300
20095TIP3   OH281775   5.526   1.919   4.407  0.1317  0.0680 -0.2546
20095TIP3    H181776   5.620   1.939   4.407  0.2360 -0.3683 -1.7144
20095TIP3    H281777   5.521   1.824   4.401 -0.4140  0.0555  0.2825
20096TIP3   OH281778   3.956   3.852   5.806 -0.3889 -0.2958 -0.6338
20096TIP3    H181779   4.020   3.819   5.743 -0.5149 -0.8857 -0.4616
20096TIP3    H281780   3.955   3.947   5.792  2.7664  0.2052  1.4419
20097TIP3   OH281781   4.832   0.056   0.830 -0.3677 -0.2951  0.0929
20097TIP3    H181782   4.905   0.117   0.835 -0.6654  0.0449  0.2963
20097TIP3    H281783   4.806   0.042   0.921 -2.5127  1.9635 -0.0742
20098TIP3   OH281784   4.634   1.814   1.644 -0.1212 -0.4328  0.3723
20098TIP3    H181785   4.551   1.804   1.692 -0.9257  3.2595  0.0621
20098TIP3    H281786   4.673   1.893   1.679  1.3950  0.0565 -2.1370
20099TIP3   OH281787   1.919   1.147   3.332  0.6219 -0.6895 -0.1351
20099TIP3    H181788   1.830   1.117   3.350 -0.0003  0.5233 -1.0838
20099TIP3    H281789   1.939   1.206   3.404 -0.5393  1.4161 -1.4348
20100TIP3   OH281790   3.443   6.485   4.806 -0.0019  0.3022  0.0865
20100TIP3    H181791   3.406   6.399   4.789  0.0135  0.4316 -0.6294
20100TIP3    H281792   3.373   6.547   4.785  0.0373  0.4779  0.4469
20101TIP3   OH281793   5.923   4.403   4.934  0.2996  0.2812  0.2635
20101TIP3    H181794   6.018   4.394   4.938  0.3661 -0.0777 -1.2715
20101TIP3    H281795   5.890   4.348   5.005  1.2563  1.4090  1.6330
20102TIP3   OH281796   5.178   4.845   2.462  0.2017 -0.1993  0.0556
20102TIP3    H181797   5.106   4.791   2.428  0.2175 -0.5293  0.5313
20102TIP3    H281798   5.209   4.797   2.539  1.4845 -0.5016 -0.6187
20103TIP3   OH281799   5.235   3.918  14.945  0.2074 -0.5021 -0.2221
20103TIP3    H181800   5.239   3.878  15.032  0.1965 -0.0636 -0.0158
20103TIP3    H281801   5.143   3.913  14.921  0.2689 -0.9448 -0.3592
20104TIP3   OH281802   6.236   6.820   3.169  0.2134  0.4487 -0.3989
20104TIP3    H181803   6.226   6.824   3.074 -0.5800  0.0565 -0.3432
20104TIP3    H281804   6.209   6.730   3.192 -1.4719  1.1055  0.3917
20105TIP3   OH281805   2.602   5.368  14.770 -0.1194 -0.5717  0.0189
20105TIP3    H181806   2.653   5.415  14.703 -0.9399  1.4303  0.7430
20105TIP3    H281807   2.595   5.279  14.735  1.3889 -0.1676 -1.4779
20106TIP3   OH281808   2.401   1.590  15.712 -0.1055 -0.4245 -0.4906
20106TIP3    H181809   2.356   1.638  15.642 -0.6909  0.5176  0.4946
20106TIP3    H281810   2.333   1.533  15.748 -0.0495 -0.2656 -0.1303
20107TIP3   OH281811   4.040   3.265   2.348  0.1788 -0.9618 -0.4772
20107TIP3    H181812   3.999   3.180   2.333  0.3963 -1.1525 -0.0103
20107TIP3    H281813   4.073   3.260   2.438  2.8217 -1.4771 -1.4084
20108TIP3   OH281814   5.517   3.774   2.418  0.1188  0.3251  0.2621
20108TIP3    H181815   5.516   3.733   2.332 -0.7758  0.8733 -0.0038
20108TIP3    H281816   5.560   3.859   2.404  1.0656 -0.0768  0.6115
20109TIP3   OH281817   6.177   2.204   2.309  0.1441 -0.5888  0.2054
20109TIP3    H181818   6.257   2.255   2.305 -0.5869  0.5433 -0.8868
20109TIP3    H281819   6.185   2.151   2.388  1.1810  0.8139  1.0747
20110TIP3   OH281820   5.111   1.542   6.109  0.3246 -0.1744 -0.1983
20110TIP3    H181821   5.043   1.520   6.173  1.6906 -0.5349  1.1897
20110TIP3    H281822   5.167   1.605   6.154  1.3713 -0.5012 -1.0042
20111TIP3   OH281823   4.026   2.805  14.176  0.2683  0.8977  0.1048
20111TIP3    H181824   3.991   2.739  14.117  1.2772 -1.5040  2.0124
20111TIP3    H281825   3.962   2.877  14.172 -0.5779  0.1064 -2.4880
20112TIP3   OH281826   0.368   1.940  13.881 -0.3670  0.1514  0.1636
20112TIP3    H181827   0.388   1.876  13.813 -1.1639  0.5592 -0.4766
20112TIP3    H281828   0.438   1.930  13.945  0.2826 -0.3918 -0.6086
20113TIP3   OH281829   3.718   2.981   5.348 -0.1703  0.2041 -0.0652
20113TIP3    H181830   3.758   2.930   5.277  1.0342  0.1989  0.6073
20113TIP3    H281831   3.631   2.942   5.358  1.0125 -2.4302  1.0595
20114TIP3   OH281832   5.357   6.065   3.910  0.1523  0.8624  0.1440
20114TIP3    H181833   5.348   6.027   3.997  1.8495  1.7900  0.7630
20114TIP3    H281834   5.401   5.997   3.859  1.5552  1.2697  0.7615
20115TIP3   OH281835   3.290   1.910   4.976 -0.1773  0.1252  0.0688
20115TIP3    H181836   3.243   1.836   5.015  2.6482 -1.2176  1.2078
20115TIP3    H281837   3.225   1.952   4.919 -3.0429 -0.8804  2.3165
20116TIP3   OH281838   6.822   1.561   0.475  0.3115 -0.2139 -0.2091
20116TIP3    H181839   6.769   1.529   0.402 -0.0522  0.9415 -0.4825
20116TIP3    H281840   6.900   1.506   0.474  0.0489 -0.5927 -1.1046
20117TIP3   OH281841   4.184   2.347  15.823  0.2385  0.0245 -0.3042
20117TIP3    H181842   4.209   2.409  15.892 -0.6801  0.2166 -0.1343
20117TIP3    H281843   4.260   2.290  15.813 -0.2770 -1.1923  2.1775
20118TIP3   OH281844   2.641   5.674  12.631 -0.2500 -0.0228  0.1214
20118TIP3    H181845   2.583   5.702  12.702  1.1963 -0.5311  1.5814
20118TIP3    H281846   2.584   5.668  12.555 -1.8423  0.7288  1.1857
20119TIP3   OH281847   4.834   2.668   5.720 -0.0303  0.5629 -0.0542
20119TIP3    H181848   4.820   2.574   5.738  1.0572  0.7015  1.7778
20119TIP3    H281849   4.868   2.671   5.631  1.5695 -0.9639  0.4575
20120TIP3   OH281850   2.168   0.866  11.594 -0.5441 -0.2263  0.5553
20120TIP3    H181851   2.166   0.800  11.524  0.6643 -0.5821  0.8267
20120TIP3    H281852   2.099   0.927  11.571  0.2602  0.0396 -1.3595
20121TIP3   OH281853   3.014   4.975  12.129 -0.1202  0.0218  0.2630
20121TIP3    H181854   3.038   5.041  12.194  1.5976 -1.4101  1.1895
20121TIP3    H281855   2.939   4.929  12.168  1.4868 -1.4663  1.8270
20122TIP3   OH281856   3.124   0.753   1.693  0.0179 -0.0921 -0.1322
20122TIP3    H181857   3.039   0.769   1.736  0.2569  1.3623 -0.1402
20122TIP3    H281858   3.105   0.760   1.600 -0.0125 -0.6550 -0.1703
20123TIP3   OH281859   3.455   1.345   0.140 -0.1034  0.1705  0.0668
20123TIP3    H181860   3.439   1.375   0.050  0.2831  0.2091  0.0056
20123TIP3    H281861   3.545   1.374   0.158  1.1331 -2.7566 -0.7498
20124TIP3   OH281862   2.279   4.051   6.344 -0.3909  0.5318  0.0788
20124TIP3    H181863   2.235   3.981   6.295  0.4116  1.9016 -2.8605
20124TIP3    H281864   2.360   4.011   6.376 -0.3741 -0.1611 -0.7884
20125TIP3   OH281865   4.530   6.459   0.066  0.1316  0.4952 -0.1794
20125TIP3    H181866   4.506   6.515  -0.007 -1.0492  1.1285  0.6639
20125TIP3    H281867   4.447   6.440   0.110  0.4580 -2.0258 -0.5039
20126TIP3   OH281868   5.225   5.176  15.285 -0.4152  0.4776 -0.2706
20126TIP3    H181869   5.152   5.147  15.339  0.1791 -1.1612 -0.3030
20126TIP3    H281870   5.184   5.228  15.216 -1.8051 -1.8852 -1.3431
20127TIP3   OH281871   5.191   6.524  15.173  0.2508 -0.1939  0.1173
20127TIP3    H181872   5.225   6.545  15.086  0.4399 -0.2142  0.1866
20127TIP3    H281873   5.266   6.532  15.231  0.1810 -0.4329  0.2407
20128TIP3   OH281874   2.359   6.277  13.804  0.7336 -0.1134  1.0503
20128TIP3    H181875   2.407   6.310  13.728 -0.0643 -0.4818  0.3740
20128TIP3    H281876   2.267   6.290  13.782  0.4851 -0.3852  1.8857
20129TIP3   OH281877   3.252   2.034  15.850  0.0201  0.3311 -0.5048
20129TIP3    H181878   3.165   2.052  15.888 -0.2616 -0.3341 -0.8270
20129TIP3    H281879   3.239   2.039  15.756  0.2437 -0.1570 -0.5645
20130TIP3   OH281880   5.547   0.063   2.963 -0.1687  0.0967  0.1243
20130TIP3    H181881   5.592  -0.017   2.988 -0.5370 -0.5139 -1.1237
20130TIP3    H281882   5.547   0.116   3.043 -1.2109 -1.7336  1.4210
20131TIP3   OH281883   6.490   1.009   2.329  0.2311  0.6247  0.2675
20131TIP3    H181884   6.538   0.969   2.401  0.0855  1.5359  0.8801
20131TIP3    H281885   6.494   0.943   2.259  0.5485 -0.1845  1.0223
20132TIP3   OH281886   4.196   0.694   1.909  0.1714 -0.6064 -0.3853
20132TIP3    H181887   4.126   0.740   1.954 -0.2709 -0.1820 -1.4762
20132TIP3    H281888   4.272   0.752   1.918  0.1496 -0.6376  0.0124
20133TIP3   OH281889   5.834   0.930  14.034 -0.6320  0.2255 -0.8276
20133TIP3    H181890   5.887   0.932  13.955 -0.7375  0.6011 -0.8944
20133TIP3    H281891   5.897   0.930  14.106 -0.5409  0.7105 -0.9047
20134TIP3   OH281892   3.527   4.832   0.190  0.3660  0.2731 -0.5285
20134TIP3    H181893   3.576   4.906   0.154 -1.0177  0.1537 -2.8943
20134TIP3    H281894   3.540   4.761   0.127 -1.5713 -0.2179 -0.4531
20135TIP3   OH281895   3.750   6.176  12.291  0.4539 -0.1289  0.7489
20135TIP3    H181896   3.678   6.219  12.246 -0.5204 -2.1706  0.2012
20135TIP3    H281897   3.769   6.098  12.238  1.4427 -0.9091  2.1550
20136TIP3   OH281898   1.883   2.050  11.930 -0.4258  0.0302 -0.1438
20136TIP3    H181899   1.806   2.011  11.972 -0.2967  0.1498  0.2111
20136TIP3    H281900   1.878   2.143  11.953 -0.4773  0.1365 -0.5904
20137TIP3   OH281901   3.287   1.171  14.639  0.0314 -0.8312  0.6292
20137TIP3    H181902   3.369   1.122  14.635  1.5467  1.5196  0.5241
20137TIP3    H281903   3.314   1.263  14.628 -2.8003 -0.0830 -1.1525
20138TIP3   OH281904   5.183   4.824  13.765 -0.3651 -1.0598  0.2146
20138TIP3    H181905   5.271   4.841  13.731 -0.0331 -0.7747  1.1972
20138TIP3    H281906   5.135   4.906  13.751 -0.8188 -1.5464 -1.2992
20139TIP3   OH281907   5.100   3.705   4.382  0.4285  0.2651  0.0062
20139TIP3    H181908   5.124   3.797   4.389  1.8829 -0.1865  1.5937
20139TIP3    H281909   5.093   3.675   4.473  0.1810 -1.2428 -0.4849
20140TIP3   OH281910   5.052   2.368   2.131 -0.2582  0.7058 -0.1138
20140TIP3    H181911   5.127   2.378   2.072  1.0090 -0.0191  1.3182
20140TIP3    H281912   5.058   2.277   2.162  0.2606  1.5737  2.5825
20141TIP3   OH281913   2.910   5.632  14.792  0.0783 -0.7502  0.7659
20141TIP3    H181914   2.871   5.595  14.713 -0.1372 -1.7434  1.3313
20141TIP3    H281915   2.908   5.727  14.777 -0.2553 -0.9099 -0.2764
20142TIP3   OH281916   2.539   0.092   3.800  0.8859 -0.0756 -0.6416
20142TIP3    H181917   2.572   0.174   3.764  1.1784 -0.4343 -1.1969
20142TIP3    H281918   2.451   0.084   3.763  0.0516  0.9847  1.0022
20143TIP3   OH281919   2.315   6.814   1.205 -0.4191  0.2820 -0.2362
20143TIP3    H181920   2.225   6.786   1.221 -0.4213  0.2473 -0.3061
20143TIP3    H281921   2.325   6.895   1.256 -1.1211  1.3860 -1.7491
20144TIP3   OH281922   2.106   0.471   4.174  0.2646  0.3612  0.7177
20144TIP3    H181923   2.092   0.539   4.240  2.5710  1.1739  0.4672
20144TIP3    H281924   2.100   0.389   4.223 -2.4051  0.6833  1.0590
20145TIP3   OH281925   5.568   1.704   5.795 -0.7925 -0.1570 -0.0863
20145TIP3    H181926   5.652   1.659   5.803  0.0691  1.0109 -1.7978
20145TIP3    H281927   5.502   1.636   5.806  0.2817 -0.8295  3.0163
20146TIP3   OH281928   1.601   0.347  15.911  0.4662  0.2421 -0.1331
20146TIP3    H181929   1.696   0.341  15.923  0.5200  0.3344 -0.5254
20146TIP3    H281930   1.588   0.426  15.860  0.2217 -0.1032 -0.6077
20147TIP3   OH281931   6.012   5.429  14.737 -0.7639 -0.0085  0.6137
20147TIP3    H181932   5.918   5.434  14.718 -0.7489 -0.5634  0.3905
20147TIP3    H281933   6.051   5.499  14.685 -1.0321  0.0906  0.5447
20148TIP3   OH281934   3.494   2.533   1.045 -0.3295 -0.3815  0.4694
20148TIP3    H181935   3.438   2.491   1.110  1.9101 -1.2448  1.9865
20148TIP3    H281936   3.576   2.549   1.092  0.2496  2.1256 -1.2218
20149TIP3   OH281937   4.798   2.932   4.565  0.5729 -0.6749  0.1695
20149TIP3    H181938   4.816   3.026   4.575  0.6347 -0.6793  0.0943
20149TIP3    H281939   4.819   2.912   4.474 -1.9088 -0.2154 -0.5794
20150TIP3   OH281940   4.590   2.335  11.098  0.6719 -0.4006 -0.4778
20150TIP3    H181941   4.603   2.282  11.176 -0.4630 -2.6455 -1.6972
20150TIP3    H281942   4.497   2.323  11.077  0.5847  1.4200 -1.3174
20151TIP3   OH281943   2.055   4.342  12.911 -0.2946 -0.0141 -0.0777
20151TIP3    H181944   2.057   4.257  12.869  1.2251  0.1215 -0.3483
20151TIP3    H281945   1.982   4.337  12.973  0.5120 -1.9476  0.7962
20152TIP3   OH281946   6.475   2.838   4.759  0.3113 -0.0626 -0.0080
20152TIP3    H181947   6.450   2.749   4.736  0.1538 -0.4319  1.5146
20152TIP3    H281948   6.561   2.850   4.718  0.3111 -0.8925 -0.2656
20153TIP3   OH281949   0.113   3.601  11.490 -0.3301 -0.0712 -0.3249
20153TIP3    H181950   0.150   3.684  11.522  0.4727 -0.3823 -0.4366
20153TIP3    H281951   0.165   3.579  11.413  0.2950 -1.3044  0.4090
20154TIP3   OH281952   5.647   5.413   5.493  0.7697 -0.0254 -0.0599
20154TIP3    H181953   5.702   5.336   5.510 -0.2398 -0.3984  1.8523
20154TIP3    H281954   5.619   5.442   5.580 -1.8737  0.2531 -0.9091
20155TIP3   OH281955   6.032   6.399   2.656  0.6302 -0.1132 -0.3184
20155TIP3    H181956   6.012   6.306   2.670 -1.1821  0.3644  0.6760
20155TIP3    H281957   6.017   6.439   2.742 -1.0265  1.4463 -1.2566
20156TIP3   OH281958   1.758   2.028   4.403 -0.0345  0.0839  0.4902
20156TIP3    H181959   1.838   1.977   4.396 -1.2489 -1.7066 -1.0518
20156TIP3    H281960   1.783   2.116   4.373  1.9288  0.3228  2.5751
20157TIP3   OH281961   2.676   3.412   4.182  0.3444  0.0163 -0.1825
20157TIP3    H181962   2.690   3.318   4.195  2.9975  0.5541  1.7976
20157TIP3    H281963   2.760   3.445   4.148 -0.4152  1.7211 -0.5283
20158TIP3   OH281964   1.964   4.266  12.238  0.2766 -0.4777 -0.3306
20158TIP3    H181965   2.005   4.263  12.151  0.7194  3.3279 -0.4190
20158TIP3    H281966   1.886   4.213  12.229  1.5407 -2.1751 -2.2909
20159TIP3   OH281967   3.343   3.396  11.226  0.2679  0.6263 -0.5048
20159TIP3    H181968   3.333   3.425  11.135 -0.3154 -2.0023 -1.3533
20159TIP3    H281969   3.382   3.309  11.219 -0.8836 -0.1302  1.7135
20160TIP3   OH281970   5.020   2.576  11.735 -0.6242 -0.1453  0.2595
20160TIP3    H181971   4.991   2.652  11.784  1.0910  2.1649 -2.0365
20160TIP3    H281972   5.101   2.548  11.778 -1.1219 -0.5521  0.9516
20161TIP3   OH281973   0.598   1.592  14.025 -0.3920 -0.4005  0.4275
20161TIP3    H181974   0.546   1.579  13.945 -0.7461 -1.3837  0.8052
20161TIP3    H281975   0.561   1.670  14.065 -0.3586 -0.0253 -0.2469
20162TIP3   OH281976   1.912   4.998   0.075  0.0676 -0.5565 -0.0831
20162TIP3    H181977   1.822   5.020   0.099  0.0220 -0.0221 -0.7118
20162TIP3    H281978   1.943   5.075   0.028  0.4065 -1.2618 -1.0448
20163TIP3   OH281979   4.756   6.814  14.069 -0.2288  0.4412 -0.1935
20163TIP3    H181980   4.674   6.773  14.096  1.0813 -1.6456  0.9068
20163TIP3    H281981   4.794   6.848  14.150  0.6525  0.0982 -0.4470
20164TIP3   OH281982   5.731   4.971   4.163  0.1452  0.2710  0.3753
20164TIP3    H181983   5.805   5.016   4.204  0.7425  0.5882 -1.0185
20164TIP3    H281984   5.731   4.884   4.203  2.3010 -0.3171 -0.7496
20165TIP3   OH281985   2.575   3.243  13.000 -0.3701  0.2183 -0.0465
20165TIP3    H181986   2.588   3.338  13.001 -1.5213  0.3931  1.3634
20165TIP3    H281987   2.629   3.210  13.072 -0.2279 -0.1661 -0.3269
20166TIP3   OH281988   4.496   0.773   4.605  0.2258  0.2652 -0.0301
20166TIP3    H181989   4.495   0.678   4.598  2.4867  0.1051  0.9033
20166TIP3    H281990   4.411   0.795   4.641 -1.0265 -1.2041 -1.8858
20167TIP3   OH281991   4.675   1.003   1.532  0.3640 -0.0222  0.4701
20167TIP3    H181992   4.749   1.004   1.471 -1.0381  0.3365 -1.3307
20167TIP3    H281993   4.661   0.910   1.551 -0.0590 -0.2904 -0.9676
20168TIP3   OH281994   1.109   3.703   6.343  0.1191  0.0501  0.0407
20168TIP3    H181995   1.173   3.743   6.403 -0.8766  0.2825  0.9755
20168TIP3    H281996   1.147   3.619   6.320  1.7316  1.0137 -1.0708
20169TIP3   OH281997   5.290   5.561  17.121  0.5659  0.1091 -0.6430
20169TIP3    H181998   5.227   5.496  17.090  0.8181  1.2698 -4.0177
20169TIP3    H281999   5.248   5.601  17.196 -1.2523 -1.3734 -0.7920
20170TIP3   OH282000   0.355   6.738   0.656  0.1108  0.0705 -0.7649
20170TIP3    H182001   0.261   6.729   0.669  0.2508  0.1790  0.3895
20170TIP3    H282002   0.366   6.741   0.560 -0.9459 -0.9906 -0.9366
20171TIP3   OH282003   3.539   2.326  14.267  0.5096  0.7861 -0.2302
20171TIP3    H182004   3.561   2.233  14.264  0.7619  0.8550 -0.5886
20171TIP3    H282005   3.452   2.330  14.307  0.9088  0.4612  0.6829
20172TIP3   OH282006   0.318   3.706  12.813 -0.2686  0.2273  0.5398
20172TIP3    H182007   0.362   3.624  12.836  0.4895  1.0121  2.0316
20172TIP3    H282008   0.229   3.680  12.792 -0.4111 -0.8578  2.2931
20173TIP3   OH282009   4.535   2.411   1.255  0.0287  0.8502 -0.3153
20173TIP3    H182010   4.447   2.375   1.267  0.1208  0.6257 -0.3074
20173TIP3    H282011   4.528   2.465   1.177 -0.9078  3.3576  1.3588
20174TIP3   OH282012   5.823   3.089   0.791  0.3138 -0.4235 -1.0671
20174TIP3    H182013   5.898   3.053   0.838  0.8292 -0.1223 -1.6505
20174TIP3    H282014   5.794   3.017   0.734 -1.8390 -1.6781  1.3728
20175TIP3   OH282015   6.461   1.141   5.645 -0.1667  0.1875  0.3865
20175TIP3    H182016   6.524   1.074   5.669 -0.8810 -0.3102  0.9186
20175TIP3    H282017   6.438   1.122   5.554 -1.5284 -1.2674  0.9880
20176TIP3   OH282018   0.025   2.537   1.707 -0.2264  0.3537 -0.4154
20176TIP3    H182019   0.113   2.563   1.733 -0.0854  1.3044 -1.7468
20176TIP3    H282020   0.030   2.524   1.613 -1.3603 -0.2548 -0.4120
20177TIP3   OH282021   2.904   1.858   5.986 -0.2546  0.4564 -0.1211
20177TIP3    H182022   2.965   1.927   6.013 -0.1626  0.2432  0.2186
20177TIP3    H282023   2.879   1.815   6.068 -2.0484  1.5081 -0.0632
20178TIP3   OH282024   1.329   6.626  12.197  0.1062  0.2932 -0.4308
20178TIP3    H182025   1.420   6.652  12.185  0.3837  0.3210  1.4828
20178TIP3    H282026   1.299   6.676  12.272 -0.7960 -1.3845  0.3768
20179TIP3   OH282027   2.505   3.676  16.064 -0.3516 -0.4045  0.6091
20179TIP3    H182028   2.414   3.689  16.091  0.2006  0.4481  2.2275
20179TIP3    H282029   2.537   3.765  16.048  1.0204 -0.3872  3.0640
20180TIP3   OH282030   6.337   1.747  13.637 -0.0814  0.4919  0.4148
20180TIP3    H182031   6.362   1.707  13.554 -0.4262 -1.4388  1.1999
20180TIP3    H282032   6.245   1.772  13.625  0.1247  1.0372 -0.0665
20181TIP3   OH282033   5.191   6.720  14.943 -0.3051 -0.4690  0.7351
20181TIP3    H182034   5.221   6.786  14.881  1.1658 -1.1776  0.6569
20181TIP3    H282035   5.105   6.752  14.972 -0.9152  0.0417 -1.4137
20182TIP3   OH282036   4.652   4.440  13.281 -0.4124  0.2823  0.2153
20182TIP3    H182037   4.638   4.489  13.200 -2.3772  0.0926  0.3842
20182TIP3    H282038   4.706   4.365  13.255 -2.7083 -0.9450 -1.4466
20183TIP3   OH282039   6.775   4.700   4.619 -0.2269  0.2856 -0.2870
20183TIP3    H182040   6.721   4.728   4.544  1.9642 -0.2114 -2.1680
20183TIP3    H282041   6.728   4.625   4.656 -0.7757 -0.2346 -1.9516
20184TIP3   OH282042   0.288   5.100  12.335 -0.4269 -0.1091 -0.1243
20184TIP3    H182043   0.328   5.069  12.254 -2.2789 -1.1565 -0.7109
20184TIP3    H282044   0.282   5.022  12.391 -2.7984 -0.3581 -0.6021
20185TIP3   OH282045   6.694   3.419   1.204  0.4411  0.5161  0.0264
20185TIP3    H182046   6.777   3.370   1.204 -0.3150 -0.8262 -0.2752
20185TIP3    H282047   6.697   3.472   1.283  0.9634 -0.6382  0.8129
20186TIP3   OH282048   0.276   5.875   2.273  0.3900 -0.0662 -0.1303
20186TIP3    H182049   0.231   5.815   2.212 -2.1277  3.2080 -1.8080
20186TIP3    H282050   0.209   5.899   2.337  1.3993  0.8206  0.6287
20187TIP3   OH282051   1.298   2.414  13.687 -0.2546 -0.0241  0.2288
20187TIP3    H182052   1.315   2.332  13.735  0.6134  0.4780  0.8062
20187TIP3    H282053   1.259   2.472  13.752  0.3898  0.4647  0.1845
20188TIP3   OH282054   6.280   3.586   4.969  0.5121  0.4346 -0.3793
20188TIP3    H182055   6.284   3.528   5.044 -0.6580  2.8430  1.7038
20188TIP3    H282056   6.203   3.641   4.984 -0.3617  0.4210 -3.8648
20189TIP3   OH282057   2.171   1.386   5.296 -0.4410 -0.0219  0.5504
20189TIP3    H182058   2.236   1.331   5.252  0.1384 -0.3773  1.8042
20189TIP3    H282059   2.101   1.396   5.231 -0.3949 -1.9323  0.1388
20190TIP3   OH282060   3.437   4.357   1.522 -0.1516  0.3392  0.7379
20190TIP3    H182061   3.513   4.416   1.520 -0.5986  0.9140 -0.0034
20190TIP3    H282062   3.471   4.275   1.558  0.5075  1.0167  1.7025
20191TIP3   OH282063   3.058   1.202   0.667 -0.0234 -0.5296  0.5352
20191TIP3    H182064   3.070   1.288   0.627 -1.7923 -0.5716 -0.1741
20191TIP3    H282065   3.055   1.141   0.593  1.3957 -1.2570  1.0385
20192TIP3   OH282066   3.417   2.588   5.703 -0.7660 -0.3162 -0.6087
20192TIP3    H182067   3.453   2.567   5.790  1.2041  0.8785 -1.0866
20192TIP3    H282068   3.372   2.672   5.716 -1.8603 -0.8956 -0.4450
20193TIP3   OH282069   2.023   3.049   1.830 -0.1997 -0.0457 -0.4042
20193TIP3    H182070   2.094   3.093   1.784  0.1269 -0.0235  0.1090
20193TIP3    H282071   1.969   3.119   1.865  0.5895 -0.0273  0.8271
20194TIP3   OH282072   4.393   2.070   1.043 -0.8487 -0.4549 -0.4115
20194TIP3    H182073   4.444   2.074   1.124 -1.8812  0.0979  0.2462
20194TIP3    H282074   4.457   2.061   0.973  0.0982 -0.3342  0.4280
20195TIP3   OH282075   0.105   3.027  13.060  0.0530 -0.4381 -0.0141
20195TIP3    H182076   0.093   2.932  13.059 -0.2628 -0.3956 -0.4267
20195TIP3    H282077   0.175   3.041  13.123  1.5351 -1.0964 -1.4543
20196TIP3   OH282078   6.662   5.990   2.107 -0.2104  0.3938 -0.2335
20196TIP3    H182079   6.661   5.894   2.112 -0.1698  0.3727 -0.5838
20196TIP3    H282080   6.644   6.019   2.196  1.2992  0.0562  0.2121
20197TIP3   OH282081   5.697   0.235   1.233  0.1643  0.1703 -0.2873
20197TIP3    H182082   5.647   0.159   1.262  2.3017 -1.8914 -1.6763
20197TIP3    H282083   5.656   0.260   1.150 -1.4778  1.6050  0.8626
20198TIP3   OH282084   1.213   0.476  16.356 -0.6778  0.1846 -0.0847
20198TIP3    H182085   1.147   0.545  16.350  0.0682  0.9535  0.2376
20198TIP3    H282086   1.253   0.489  16.442 -0.4140 -0.5569 -0.0890
20199TIP3   OH282087   1.750   6.668   5.578  0.4674  0.1594 -0.3208
20199TIP3    H182088   1.759   6.725   5.502  0.4575  0.5364 -0.0435
20199TIP3    H282089   1.816   6.699   5.639  0.5762 -0.2388 -0.2335
20200TIP3   OH282090   0.510   3.436   6.446  0.1563  0.0786 -0.2433
20200TIP3    H182091   0.467   3.436   6.531  1.3395  0.0175  0.3819
20200TIP3    H282092   0.603   3.444   6.466  0.4765 -0.1148 -1.5247
20201TIP3   OH282093   4.801   0.348  11.786 -0.3109  0.4172  0.8424
20201TIP3    H182094   4.828   0.285  11.853  1.0736 -0.4750 -0.4866
20201TIP3    H282095   4.793   0.296  11.706 -1.2528  1.5719  0.1612
20202TIP3   OH282096   0.195   4.571   6.303 -0.6759 -0.0333  0.0767
20202TIP3    H182097   0.110   4.529   6.317 -0.9037  0.1332 -0.7840
20202TIP3    H282098   0.259   4.504   6.330 -1.0351 -0.8485 -1.0175
20203TIP3   OH282099   2.565   2.368  16.434  0.6785 -0.7072 -0.3789
20203TIP3    H182100   2.656   2.350  16.457  0.7992 -0.2587 -0.4957
20203TIP3    H282101   2.527   2.406  16.514  0.5865 -0.9121 -0.3241
20204TIP3   OH282102   6.159   4.453  16.265  0.6565  0.0920 -0.5142
20204TIP3    H182103   6.168   4.543  16.236 -3.6152  0.9508  0.1204
20204TIP3    H282104   6.116   4.408  16.192 -0.5878 -0.4122  0.4730
20205TIP3   OH282105   2.941   0.078  14.129  0.4498  0.8365  0.4174
20205TIP3    H182106   2.868   0.099  14.071  1.2934  4.5163  0.4477
20205TIP3    H282107   2.903   0.077  14.217  0.2952  2.3945  0.3990
20206TIP3   OH282108   5.054   3.919   2.029  0.8158 -0.5240 -0.4725
20206TIP3    H182109   5.030   3.935   1.938  2.6803 -0.4751 -1.0089
20206TIP3    H282110   5.133   3.972   2.042  0.7189 -0.7198  1.1009
20207TIP3   OH282111   6.351   0.057   3.856 -0.1365 -0.1969  0.6800
20207TIP3    H182112   6.362   0.078   3.949 -1.5406 -0.9836  1.0560
20207TIP3    H282113   6.321   0.139   3.816 -0.3877 -0.0792  1.1014
20208TIP3   OH282114   0.335   5.899  14.205 -0.1339  0.9697  0.8215
20208TIP3    H182115   0.333   5.844  14.127  0.8822  1.7092  0.2368
20208TIP3    H282116   0.243   5.920  14.223 -0.4501 -0.0361  0.4409
20209TIP3   OH282117   3.310   3.167  16.465 -0.2979 -0.4075 -0.2477
20209TIP3    H182118   3.309   3.123  16.381  0.7266 -1.0780  0.0654
20209TIP3    H282119   3.308   3.096  16.530 -2.0624  0.1199  0.3190
20210TIP3   OH282120   4.561   5.121  12.093  0.3906 -0.0192  0.3759
20210TIP3    H182121   4.633   5.098  12.151 -0.2617 -0.7731  0.9134
20210TIP3    H282122   4.511   5.040  12.083 -0.6082  0.5796  0.3477
20211TIP3   OH282123   3.660   1.719   4.941  0.3072 -0.5142  0.2321
20211TIP3    H182124   3.627   1.806   4.921 -2.5819 -1.8112 -1.1642
20211TIP3    H282125   3.587   1.660   4.923  2.4592 -3.3651  0.0194
20212TIP3   OH282126   5.260   0.610   2.690 -0.3047  0.0840  0.2342
20212TIP3    H182127   5.191   0.659   2.735  0.2340  2.8720 -1.7071
20212TIP3    H282128   5.213   0.551   2.631 -1.0661  1.2675 -0.3772
20213TIP3   OH282129   0.786   0.875  15.270 -0.2608 -0.0120  0.4977
20213TIP3    H182130   0.712   0.832  15.313 -0.6542  1.7709  1.7342
20213TIP3    H282131   0.828   0.925  15.340  1.3367  0.0480 -0.4655
20214TIP3   OH282132   1.784   2.015   2.476 -0.3362 -0.2107 -0.3612
20214TIP3    H182133   1.750   1.936   2.433  0.5548 -0.2178 -1.0988
20214TIP3    H282134   1.801   2.076   2.404 -0.4757  0.4465  0.1505
20215TIP3   OH282135   4.149   1.932   6.689  0.0699 -0.0627 -0.4976
20215TIP3    H182136   4.184   2.020   6.702  0.2729  0.1024 -2.0236
20215TIP3    H282137   4.223   1.873   6.704  0.2186  0.0909 -0.6329
20216TIP3   OH282138   5.147   5.429   4.719  0.0968 -0.1375  0.3234
20216TIP3    H182139   5.114   5.340   4.730  0.2515 -0.2827 -0.3406
20216TIP3    H282140   5.118   5.475   4.798 -2.2810 -0.0923 -0.4665
20217TIP3   OH282141   2.469   1.259  15.873 -0.4762  0.1155  0.5081
20217TIP3    H182142   2.386   1.302  15.893 -1.8241 -1.9418 -0.3395
20217TIP3    H282143   2.452   1.210  15.792  2.5967  2.3435 -1.7630
20218TIP3   OH282144   5.445   1.588  11.715  0.0048  0.5566 -0.1774
20218TIP3    H182145   5.350   1.601  11.714 -0.1787 -0.3244  1.8391
20218TIP3    H282146   5.459   1.518  11.778  2.0845  1.2354  0.1834
20219TIP3   OH282147   0.761   5.616   2.621  0.5067  0.0078  0.1519
20219TIP3    H182148   0.727   5.705   2.622 -1.3271 -0.6491  0.5745
20219TIP3    H282149   0.750   5.585   2.711  0.3006 -0.9353 -0.1867
20220TIP3   OH282150   4.748   3.479   3.491 -0.0856 -0.4786 -0.5509
20220TIP3    H182151   4.710   3.400   3.453 -0.1639 -2.0066  2.3839
20220TIP3    H282152   4.839   3.456   3.509 -0.2302 -0.0896  0.7697
20221TIP3   OH282153   3.815   2.206  16.470  0.1380 -0.3005 -0.1366
20221TIP3    H182154   3.724   2.231  16.489 -0.3350 -0.9971 -1.3388
20221TIP3    H282155   3.825   2.121  16.513  0.1219 -0.3770 -0.2865
20222TIP3   OH282156   6.380   0.253  13.335 -0.2543 -0.3527 -0.1913
20222TIP3    H182157   6.468   0.286  13.352  1.0335 -2.6247 -1.8290
20222TIP3    H282158   6.337   0.322  13.286  0.9529  0.4438 -0.1700
20223TIP3   OH282159   2.663   6.239   4.950 -0.1027 -0.8563 -0.1145
20223TIP3    H182160   2.702   6.277   4.871  1.9997 -1.7386  0.4318
20223TIP3    H282161   2.724   6.170   4.976 -1.0130 -0.9369  1.9969
20224TIP3   OH282162   6.666   5.798   4.451 -0.2984  0.3203 -0.0551
20224TIP3    H182163   6.760   5.816   4.454 -0.0085 -1.1884  0.7069
20224TIP3    H282164   6.628   5.875   4.407  1.2048  1.2284  0.1796
20225TIP3   OH282165   6.387   5.095   2.696 -0.1542  0.2869  0.2342
20225TIP3    H182166   6.361   5.171   2.644  0.3590 -0.5803 -1.3556
20225TIP3    H282167   6.453   5.130   2.757 -0.0998  1.1545 -0.2978
20226TIP3   OH282168   3.733   2.640   0.261  0.0398 -0.8460 -0.3463
20226TIP3    H182169   3.642   2.648   0.288  0.4859  1.4782  0.6527
20226TIP3    H282170   3.760   2.729   0.238  1.4396 -1.8141 -2.8572
20227TIP3   OH282171   6.477   1.305  11.555  0.0072 -0.7228  0.1070
20227TIP3    H182172   6.401   1.294  11.612  0.0240 -2.1085 -0.1003
20227TIP3    H282173   6.542   1.244  11.590  1.0806  0.5205  0.3421
20228TIP3   OH282174   6.338   5.700  12.393 -0.7561  0.6622 -0.5768
20228TIP3    H182175   6.332   5.795  12.383  2.2248  0.9807 -0.3122
20228TIP3    H282176   6.429   5.684  12.422 -1.0738 -2.2877 -0.8371
20229TIP3   OH282177   1.470   0.146  11.301  0.2924 -0.4824 -0.0915
20229TIP3    H182178   1.511   0.060  11.306  1.7106  0.1436 -0.5621
20229TIP3    H282179   1.501   0.183  11.218  0.8849  1.0543  0.7768
20230TIP3   OH282180   1.395   3.254   3.770  0.6549  0.3605  0.0896
20230TIP3    H182181   1.444   3.295   3.842  0.6095  0.7373 -0.0901
20230TIP3    H282182   1.379   3.165   3.800  0.5407  0.5460  0.5948
20231TIP3   OH282183   5.177   2.360  12.689 -0.1052 -0.1954 -0.3417
20231TIP3    H182184   5.120   2.409  12.630 -0.9635 -1.2007 -0.3815
20231TIP3    H282185   5.141   2.377  12.776 -0.2112 -0.4721 -0.3277
20232TIP3   OH282186   0.532   4.520  14.156  0.6005  0.2121  0.2259
20232TIP3    H182187   0.473   4.535  14.082 -1.7911  0.1013  1.9741
20232TIP3    H282188   0.558   4.609  14.183 -2.0750  0.6267  1.8321
20233TIP3   OH282189   6.470   1.300  14.653  0.5025 -1.2828  0.0775
20233TIP3    H182190   6.523   1.311  14.732  1.9106 -1.6601 -0.7827
20233TIP3    H282191   6.413   1.377  14.652 -0.0643 -1.6300  1.8308
20234TIP3   OH282192   4.542   5.517   1.717  0.2569  0.1977  0.5557
20234TIP3    H182193   4.528   5.611   1.733 -1.8091 -0.2621  1.8582
20234TIP3    H282194   4.633   5.511   1.688  0.8065  2.4957  1.5510
20235TIP3   OH282195   4.680   5.171   3.326  0.1615 -0.1447  0.1235
20235TIP3    H182196   4.624   5.249   3.324  1.5060  0.8650 -1.6623
20235TIP3    H282197   4.748   5.189   3.262  0.2885 -3.0238 -0.6891
20236TIP3   OH282198   3.759   6.166  14.650 -0.1314  0.6303 -0.0557
20236TIP3    H182199   3.781   6.133  14.737 -1.2557 -0.1804 -0.0480
20236TIP3    H282200   3.843   6.174  14.605  0.3159 -0.7735  0.4853
20237TIP3   OH282201   5.165   6.713   0.315 -0.2427  0.0777 -0.1070
20237TIP3    H182202   5.132   6.758   0.393 -0.5708  1.5303 -1.0537
20237TIP3    H282203   5.213   6.638   0.350 -0.0763  0.8869  1.5151
20238TIP3   OH282204   4.650   0.476  14.933  0.5177  0.8465  0.3375
20238TIP3    H182205   4.681   0.500  14.846  0.8544 -1.2257 -0.1597
20238TIP3    H282206   4.576   0.418  14.917 -0.0439  1.2195  1.4695
20239TIP3   OH282207   4.362   5.908   4.245 -0.1869  0.1524  0.2062
20239TIP3    H182208   4.375   5.986   4.192  2.4063  0.6436  1.4394
20239TIP3    H282209   4.311   5.937   4.320 -1.4894  0.0319 -0.5906
20240TIP3   OH282210   2.718   6.575  10.512 -0.1546  0.4780  0.5189
20240TIP3    H182211   2.795   6.614  10.553 -1.5857  0.8649  3.0128
20240TIP3    H282212   2.730   6.481  10.522  0.2819  0.5070  0.2961
20241TIP3   OH282213   1.163   1.153   1.728 -0.6421 -0.0450  0.1632
20241TIP3    H182214   1.084   1.198   1.758 -1.2477 -0.7092 -0.4086
20241TIP3    H282215   1.235   1.207   1.761 -1.3429  1.3651 -0.5154
20242TIP3   OH282216   6.546   4.731   1.797 -0.2676  0.3868 -0.1191
20242TIP3    H182217   6.497   4.767   1.870  1.0217  0.6348  0.6655
20242TIP3    H282218   6.503   4.766   1.719 -1.3591  0.5191  0.5288
20243TIP3   OH282219   2.047   1.828  17.084 -0.2095 -0.0515  0.6099
20243TIP3    H182220   2.015   1.897  17.027 -2.1315 -0.2471  1.3457
20243TIP3    H282221   1.971   1.770  17.095  1.5460 -2.7618 -0.6502
20244LIG     O182222   4.224   1.664  13.849  0.6297  0.4009  0.1811
20244LIG     O282223   4.406   1.482  13.781  0.4613  0.2171  0.5687
20244LIG     O382224   4.037   1.432  13.900 -0.2895  0.3943 -0.2767
20244LIG     O482225   4.552   1.457  13.966 -0.2879 -0.7964  0.4640
20244LIG     O582226   4.305   1.311  14.096 -0.6968  0.5630 -0.0378
20244LIG     O682227   4.376   1.097  13.874  0.5994 -0.4385 -0.9295
20244LIG     O782228   4.659   1.135  13.831 -0.3365 -0.1618  0.3351
20244LIG     O882229   4.785   1.563  13.821 -0.1525  0.2128  0.0145
20244LIG     O982230   4.738   1.405  13.666  0.5239  0.4818 -0.0760
20244LIG      N82231   4.159   1.952  13.439  0.0248  0.0821  0.8688
20244LIG     C182232   4.249   1.777  13.647 -0.1348  0.1773 -0.3205
20244LIG     C282233   4.318   1.766  13.511  0.0199  0.3345  0.0442
20244LIG     C382234   4.323   1.722  13.766  0.4984 -0.2406 -0.0810
20244LIG     C482235   4.208   1.807  13.406 -0.3858 -0.5044 -0.0339
20244LIG     C582236   4.183   1.915  13.684  0.0224 -0.1360  0.2448
20244LIG     C682237   4.134   1.685  13.640 -0.8352  0.2673  0.0682
20244LIG     C782238   4.092   1.696  13.395 -0.0567 -0.2748  0.4001
20244LIG     C882239   4.094   1.963  13.568  0.3622 -0.2289  0.2185
20244LIG     C982240   4.427   1.617  13.735 -0.3110  1.1897  0.1320
20244LIG    C1082241   4.072   1.631  13.530  0.7360 -0.9645  0.0941
20244LIG    C1182242   4.391   1.635  13.491  0.5361  0.4458  0.2368
20244LIG    C1282243   4.131   1.614  13.763  0.6636 -0.0403  0.1206
20244LIG    C1382244   4.436   1.563  13.594 -0.2316  0.2865 -0.4603
20244LIG    C1482245   4.264   2.057  13.413  0.8253 -0.0457  0.1225
20244LIG    C1582246   3.994   1.517  13.539  0.4802 -0.1979 -0.4915
20244LIG    C1682247   4.052   1.502  13.778 -0.2251  1.0624  0.1299
20244LIG    C1782248   3.984   1.452  13.664  0.2956 -0.1599 -0.2650
20244LIG    C1882249   4.419   1.457  13.923 -0.0542  0.8865 -0.9631
20244LIG    C1982250   4.356   1.322  13.959  0.2097  0.2607  0.2843
20244LIG    C2082251   4.451   1.206  13.924  0.3834  0.2369 -0.1480
20244LIG    C2182252   4.570   1.249  13.834 -0.6122 -0.1093 -0.2350
20244LIG    C2282253   4.640   1.372  13.889  0.7622  0.0145  0.2056
20244LIG    C2382254   4.721   1.441  13.784 -0.5179 -0.1949 -0.6027
20244LIG     H182255   4.384   1.855  13.503 -0.7169  0.8743 -0.1707
20244LIG     H282256   4.371   1.799  13.831  0.7086 -0.0692 -0.4348
20244LIG     H382257   4.252   1.818  13.304  3.2093 -0.1816  1.4331
20244LIG     H482258   4.259   1.991  13.711  0.0969 -0.3992  0.7916
20244LIG     H582259   4.117   1.893  13.771 -1.5113  0.8465 -0.6174
20244LIG     H682260   4.129   1.618  13.325  2.2986  0.8156  0.3547
20244LIG     H782261   3.994   1.731  13.356  1.9244  2.7172 -2.4532
20244LIG     H882262   3.998   1.908  13.561  0.3196 -0.0175 -1.2145
20244LIG     H982263   4.082   2.072  13.585  0.3540 -0.3106  0.7378
20244LIG    H1082264   4.524   1.647  13.778  0.8849 -1.5235 -0.4637
20244LIG    H1182265   4.428   1.615  13.389 -0.0221 -2.1483  0.4844
20244LIG    H1282266   4.496   1.472  13.581 -0.5596  0.0589 -0.3802
20244LIG    H1382267   4.219   2.134  13.347 -1.3807 -0.6583  0.8376
20244LIG    H1482268   4.342   2.017  13.344  0.6056  1.8022 -1.2692
20244LIG    H1582269   4.296   2.104  13.509 -0.0364  1.5892 -0.3452
20244LIG    H1682270   3.923   1.493  13.462  0.0034 -0.2865 -0.0310
20244LIG    H1782271   3.929   1.359  13.676 -0.3287  0.5258  3.0468
20244LIG    H1882272   4.359   1.531  13.980 -0.5067 -1.4028  1.7519
20244LIG    H1982273   4.266   1.317  13.894 -1.2484  4.0734  1.7399
20244LIG    H2082274   4.493   1.174  14.022 -1.7240 -3.8021 -0.3984
20244LIG    H2182275   4.069   1.492  13.968  1.9637  0.3832 -1.2527
20244LIG    H2282276   4.538   1.261  13.728 -2.2681 -2.0239 -0.0248
20244LIG    H2382277   4.714   1.337  13.964  0.9164  0.4064  0.2389
20244LIG    H2482278   4.239   1.242  14.094 -0.4455  0.3122  0.2318
20244LIG    H2582279   4.433   1.020  13.869  2.0029  0.4991 -0.0536
20244LIG    H2682280   4.655   1.101  13.741  1.0105 -0.8585  0.5029
20244LIG    H2782281   4.810   1.572  13.913  0.4267  0.1402 -0.1356
   6.83125   6.83125  17.22835
