;;
;; Generated by CHARMM-GUI (http://www.charmm-gui.org) v1.7
;;
;; psf2itp_mol.py
;;
;; Correspondance:
;; jul316@lehigh.edu or wonpil@lehigh.edu
;;
;; GROMACS topology file for LIG
;;


[ moleculetype ]
; name	nrexcl
LIG	     3

[ atoms ]
; nr	type	resnr	residu	atom	cgnr	charge	mass
     1      OG302      1      LIG     O1      1     -0.482    15.9994   ; qtot -0.482
     2      OG301      1      LIG     O2      2     -0.393    15.9994   ; qtot -0.875
     3      OG2D1      1      LIG     O3      3     -0.631    15.9994   ; qtot -1.506
     4      OG311      1      LIG     O4      4     -0.608    15.9994   ; qtot -2.114
     5      NG3P0      1      LIG      N      5     -0.594    14.0070   ; qtot -2.708
     6      CG324      1      LIG     C1      6     -0.121    12.0110   ; qtot -2.829
     7      CG324      1      LIG     C2      7     -0.121    12.0110   ; qtot -2.950
     8      CG321      1      LIG     C3      8     -0.184    12.0110   ; qtot -3.134
     9      CG321      1      LIG     C4      9     -0.184    12.0110   ; qtot -3.318
    10      CG311      1      LIG     C5     10      0.206    12.0110   ; qtot -3.112
    11      CG324      1      LIG     C6     11     -0.161    12.0110   ; qtot -3.273
    12      CG334      1      LIG     C7     12     -0.350    12.0110   ; qtot -3.623
    13      CG321      1      LIG     C8     13     -0.167    12.0110   ; qtot -3.790
    14      CG321      1      LIG     C9     14      0.037    12.0110   ; qtot -3.753
    15      CG2O2      1      LIG    C10     15      0.907    12.0110   ; qtot -2.846
    16      CG301      1      LIG    C11     16      0.171    12.0110   ; qtot -2.675
    17     CG2R61      1      LIG    C12     17     -0.000    12.0110   ; qtot -2.675
    18     CG2R61      1      LIG    C13     18     -0.000    12.0110   ; qtot -2.675
    19     CG2R61      1      LIG    C14     19      0.222    12.0110   ; qtot -2.453
    20     CG2R61      1      LIG    C15     20     -0.120    12.0110   ; qtot -2.573
    21     CG2R61      1      LIG    C16     21     -0.120    12.0110   ; qtot -2.693
    22     CG2R61      1      LIG    C17     22     -0.120    12.0110   ; qtot -2.813
    23     CG2R61      1      LIG    C18     23     -0.120    12.0110   ; qtot -2.933
    24     CG2R61      1      LIG    C19     24     -0.116    12.0110   ; qtot -3.049
    25     CG2R61      1      LIG    C20     25     -0.116    12.0110   ; qtot -3.165
    26     CG2R61      1      LIG    C21     26     -0.115    12.0110   ; qtot -3.280
    27     CG2R61      1      LIG    C22     27     -0.115    12.0110   ; qtot -3.395
    28     CG2R61      1      LIG    C23     28     -0.115    12.0110   ; qtot -3.510
    29     CG2R61      1      LIG    C24     29     -0.115    12.0110   ; qtot -3.625
    30     CG2R61      1      LIG    C25     30     -0.115    12.0110   ; qtot -3.740
    31     CG2R61      1      LIG    C26     31     -0.115    12.0110   ; qtot -3.855
    32     CG2R61      1      LIG    C27     32     -0.114    12.0110   ; qtot -3.969
    33     CG2R61      1      LIG    C28     33     -0.114    12.0110   ; qtot -4.083
    34     CG2R61      1      LIG    C29     34     -0.115    12.0110   ; qtot -4.198
    35       HGP5      1      LIG     H1     35      0.250     1.0080   ; qtot -3.948
    36       HGP5      1      LIG     H2     36      0.250     1.0080   ; qtot -3.698
    37       HGP5      1      LIG     H3     37      0.250     1.0080   ; qtot -3.448
    38       HGP5      1      LIG     H4     38      0.250     1.0080   ; qtot -3.198
    39       HGA2      1      LIG     H5     39      0.090     1.0080   ; qtot -3.108
    40       HGA2      1      LIG     H6     40      0.090     1.0080   ; qtot -3.018
    41       HGA2      1      LIG     H7     41      0.090     1.0080   ; qtot -2.928
    42       HGA2      1      LIG     H8     42      0.090     1.0080   ; qtot -2.838
    43       HGA1      1      LIG     H9     43      0.090     1.0080   ; qtot -2.748
    44       HGP5      1      LIG    H10     44      0.250     1.0080   ; qtot -2.498
    45       HGP5      1      LIG    H11     45      0.250     1.0080   ; qtot -2.248
    46       HGP5      1      LIG    H12     46      0.250     1.0080   ; qtot -1.998
    47       HGP5      1      LIG    H13     47      0.250     1.0080   ; qtot -1.748
    48       HGP5      1      LIG    H14     48      0.250     1.0080   ; qtot -1.498
    49       HGA2      1      LIG    H15     49      0.090     1.0080   ; qtot -1.408
    50       HGA2      1      LIG    H16     50      0.090     1.0080   ; qtot -1.318
    51       HGA2      1      LIG    H17     51      0.090     1.0080   ; qtot -1.228
    52       HGA2      1      LIG    H18     52      0.090     1.0080   ; qtot -1.138
    53       HGP1      1      LIG    H19     53      0.413     1.0080   ; qtot -0.725
    54      HGR61      1      LIG    H20     54      0.115     1.0080   ; qtot -0.610
    55      HGR61      1      LIG    H21     55      0.115     1.0080   ; qtot -0.495
    56      HGR61      1      LIG    H22     56      0.115     1.0080   ; qtot -0.380
    57      HGR61      1      LIG    H23     57      0.115     1.0080   ; qtot -0.265
    58      HGR61      1      LIG    H24     58      0.115     1.0080   ; qtot -0.150
    59      HGR61      1      LIG    H25     59      0.115     1.0080   ; qtot -0.035
    60      HGR61      1      LIG    H26     60      0.115     1.0080   ; qtot  0.080
    61      HGR61      1      LIG    H27     61      0.115     1.0080   ; qtot  0.195
    62      HGR61      1      LIG    H28     62      0.115     1.0080   ; qtot  0.310
    63      HGR61      1      LIG    H29     63      0.115     1.0080   ; qtot  0.425
    64      HGR61      1      LIG    H30     64      0.115     1.0080   ; qtot  0.540
    65      HGR61      1      LIG    H31     65      0.115     1.0080   ; qtot  0.655
    66      HGR61      1      LIG    H32     66      0.115     1.0080   ; qtot  0.770
    67      HGR61      1      LIG    H33     67      0.115     1.0080   ; qtot  0.885
    68      HGR61      1      LIG    H34     68      0.115     1.0080   ; qtot  1.000

[ bonds ]
; ai	aj	funct	b0	Kb
    1    10     1
    1    15     1
    2    14     1
    2    19     1
    3    15     1
    4    16     1
    4    53     1
    5     6     1
    5     7     1
    5    11     1
    5    12     1
    6     8     1
    6    35     1
    6    36     1
    7     9     1
    7    37     1
    7    38     1
    8    10     1
    8    39     1
    8    40     1
    9    10     1
    9    41     1
    9    42     1
   10    43     1
   11    13     1
   11    44     1
   11    45     1
   12    46     1
   12    47     1
   12    48     1
   13    14     1
   13    49     1
   13    50     1
   14    51     1
   14    52     1
   15    16     1
   16    17     1
   16    18     1
   17    20     1
   17    22     1
   18    21     1
   18    23     1
   19    24     1
   19    25     1
   20    26     1
   20    54     1
   21    27     1
   21    55     1
   22    28     1
   22    56     1
   23    29     1
   23    57     1
   24    32     1
   24    58     1
   25    33     1
   25    59     1
   26    30     1
   26    60     1
   27    31     1
   27    61     1
   28    30     1
   28    62     1
   29    31     1
   29    63     1
   30    64     1
   31    65     1
   32    34     1
   32    66     1
   33    34     1
   33    67     1
   34    68     1

[ pairs ]
; ai	aj	funct	c6	c12
    1     4     1 
    1     6     1 
    1     7     1 
    1    17     1 
    1    18     1 
    1    39     1 
    1    40     1 
    1    41     1 
    1    42     1 
    2    11     1 
    2    32     1 
    2    33     1 
    2    49     1 
    2    50     1 
    2    58     1 
    2    59     1 
    3     4     1 
    3    10     1 
    3    17     1 
    3    18     1 
    4    20     1 
    4    21     1 
    4    22     1 
    4    23     1 
    5    10     1 
    5    14     1 
    5    39     1 
    5    40     1 
    5    41     1 
    5    42     1 
    5    49     1 
    5    50     1 
    6     9     1 
    6    13     1 
    6    37     1 
    6    38     1 
    6    43     1 
    6    44     1 
    6    45     1 
    6    46     1 
    6    47     1 
    6    48     1 
    7     8     1 
    7    13     1 
    7    35     1 
    7    36     1 
    7    43     1 
    7    44     1 
    7    45     1 
    7    46     1 
    7    47     1 
    7    48     1 
    8    11     1 
    8    12     1 
    8    15     1 
    8    41     1 
    8    42     1 
    9    11     1 
    9    12     1 
    9    15     1 
    9    39     1 
    9    40     1 
   10    16     1 
   10    35     1 
   10    36     1 
   10    37     1 
   10    38     1 
   11    35     1 
   11    36     1 
   11    37     1 
   11    38     1 
   11    46     1 
   11    47     1 
   11    48     1 
   11    51     1 
   11    52     1 
   12    13     1 
   12    35     1 
   12    36     1 
   12    37     1 
   12    38     1 
   12    44     1 
   12    45     1 
   13    19     1 
   14    24     1 
   14    25     1 
   14    44     1 
   14    45     1 
   15    20     1 
   15    21     1 
   15    22     1 
   15    23     1 
   15    43     1 
   15    53     1 
   16    26     1 
   16    27     1 
   16    28     1 
   16    29     1 
   16    54     1 
   16    55     1 
   16    56     1 
   16    57     1 
   17    21     1 
   17    23     1 
   17    30     1 
   17    53     1 
   17    60     1 
   17    62     1 
   18    20     1 
   18    22     1 
   18    31     1 
   18    53     1 
   18    61     1 
   18    63     1 
   19    34     1 
   19    51     1 
   19    52     1 
   19    66     1 
   19    67     1 
   20    28     1 
   20    56     1 
   20    64     1 
   21    29     1 
   21    57     1 
   21    65     1 
   22    26     1 
   22    54     1 
   22    64     1 
   23    27     1 
   23    55     1 
   23    65     1 
   24    33     1 
   24    59     1 
   24    68     1 
   25    32     1 
   25    58     1 
   25    68     1 
   26    62     1 
   27    63     1 
   28    60     1 
   29    61     1 
   30    54     1 
   30    56     1 
   31    55     1 
   31    57     1 
   32    67     1 
   33    66     1 
   34    58     1 
   34    59     1 
   35    39     1 
   35    40     1 
   36    39     1 
   36    40     1 
   37    41     1 
   37    42     1 
   38    41     1 
   38    42     1 
   39    43     1 
   40    43     1 
   41    43     1 
   42    43     1 
   44    49     1 
   44    50     1 
   45    49     1 
   45    50     1 
   49    51     1 
   49    52     1 
   50    51     1 
   50    52     1 
   54    60     1 
   55    61     1 
   56    62     1 
   57    63     1 
   58    66     1 
   59    67     1 
   60    64     1 
   61    65     1 
   62    64     1 
   63    65     1 
   66    68     1 
   67    68     1 

[ angles ] 
; ai	aj	ak	funct	th0	cth	S0	Kub
   10     1    15     5
   14     2    19     5
   16     4    53     5
    6     5     7     5
    6     5    11     5
    6     5    12     5
    7     5    11     5
    7     5    12     5
   11     5    12     5
    5     6     8     5
    5     6    35     5
    5     6    36     5
    8     6    35     5
    8     6    36     5
   35     6    36     5
    5     7     9     5
    5     7    37     5
    5     7    38     5
    9     7    37     5
    9     7    38     5
   37     7    38     5
    6     8    10     5
    6     8    39     5
    6     8    40     5
   10     8    39     5
   10     8    40     5
   39     8    40     5
    7     9    10     5
    7     9    41     5
    7     9    42     5
   10     9    41     5
   10     9    42     5
   41     9    42     5
    1    10     8     5
    1    10     9     5
    1    10    43     5
    8    10     9     5
    8    10    43     5
    9    10    43     5
    5    11    13     5
    5    11    44     5
    5    11    45     5
   13    11    44     5
   13    11    45     5
   44    11    45     5
    5    12    46     5
    5    12    47     5
    5    12    48     5
   46    12    47     5
   46    12    48     5
   47    12    48     5
   11    13    14     5
   11    13    49     5
   11    13    50     5
   14    13    49     5
   14    13    50     5
   49    13    50     5
    2    14    13     5
    2    14    51     5
    2    14    52     5
   13    14    51     5
   13    14    52     5
   51    14    52     5
    1    15     3     5
    1    15    16     5
    3    15    16     5
    4    16    15     5
    4    16    17     5
    4    16    18     5
   15    16    17     5
   15    16    18     5
   17    16    18     5
   16    17    20     5
   16    17    22     5
   20    17    22     5
   16    18    21     5
   16    18    23     5
   21    18    23     5
    2    19    24     5
    2    19    25     5
   24    19    25     5
   17    20    26     5
   17    20    54     5
   26    20    54     5
   18    21    27     5
   18    21    55     5
   27    21    55     5
   17    22    28     5
   17    22    56     5
   28    22    56     5
   18    23    29     5
   18    23    57     5
   29    23    57     5
   19    24    32     5
   19    24    58     5
   32    24    58     5
   19    25    33     5
   19    25    59     5
   33    25    59     5
   20    26    30     5
   20    26    60     5
   30    26    60     5
   21    27    31     5
   21    27    61     5
   31    27    61     5
   22    28    30     5
   22    28    62     5
   30    28    62     5
   23    29    31     5
   23    29    63     5
   31    29    63     5
   26    30    28     5
   26    30    64     5
   28    30    64     5
   27    31    29     5
   27    31    65     5
   29    31    65     5
   24    32    34     5
   24    32    66     5
   34    32    66     5
   25    33    34     5
   25    33    67     5
   34    33    67     5
   32    34    33     5
   32    34    68     5
   33    34    68     5

[ dihedrals ]
; ai	aj	ak	al	funct	phi0	cp	mult
   15     1    10    43     9
   10     1    15    16     9
   19     2    14    51     9
   19     2    14    52     9
   14     2    19    24     9
   14     2    19    25     9
    7     5     6     8     9
    7     5     6    35     9
    7     5     6    36     9
   11     5     6    35     9
   11     5     6    36     9
   12     5     6    35     9
   12     5     6    36     9
    6     5     7     9     9
    6     5     7    37     9
    6     5     7    38     9
   11     5     7    37     9
   11     5     7    38     9
   12     5     7    37     9
   12     5     7    38     9
    6     5    11    13     9
    6     5    11    44     9
    6     5    11    45     9
    7     5    11    13     9
    7     5    11    44     9
    7     5    11    45     9
   12     5    11    13     9
   12     5    11    44     9
   12     5    11    45     9
    6     5    12    46     9
    6     5    12    47     9
    6     5    12    48     9
    7     5    12    46     9
    7     5    12    47     9
    7     5    12    48     9
   11     5    12    46     9
   11     5    12    47     9
   11     5    12    48     9
    8     6     5    11     9
    8     6     5    12     9
    5     6     8    10     9
    5     6     8    39     9
    5     6     8    40     9
   35     6     8    39     9
   35     6     8    40     9
   36     6     8    39     9
   36     6     8    40     9
    9     7     5    11     9
    9     7     5    12     9
    5     7     9    10     9
    5     7     9    41     9
    5     7     9    42     9
   37     7     9    41     9
   37     7     9    42     9
   38     7     9    41     9
   38     7     9    42     9
   10     8     6    35     9
   10     8     6    36     9
    6     8    10     9     9
    6     8    10    43     9
   39     8    10    43     9
   40     8    10    43     9
   10     9     7    37     9
   10     9     7    38     9
    7     9    10     8     9
    7     9    10    43     9
   41     9    10    43     9
   42     9    10    43     9
    8    10     1    15     9
    9    10     1    15     9
    1    10     8     6     9
    1    10     8    39     9
    1    10     8    40     9
    9    10     8    39     9
    9    10     8    40     9
    1    10     9     7     9
    1    10     9    41     9
    1    10     9    42     9
    8    10     9    41     9
    8    10     9    42     9
    5    11    13    14     9
    5    11    13    49     9
    5    11    13    50     9
   44    11    13    49     9
   44    11    13    50     9
   45    11    13    49     9
   45    11    13    50     9
   14    13    11    44     9
   14    13    11    45     9
   11    13    14    51     9
   11    13    14    52     9
   49    13    14    51     9
   49    13    14    52     9
   50    13    14    51     9
   50    13    14    52     9
   13    14     2    19     9
    2    14    13    11     9
    2    14    13    49     9
    2    14    13    50     9
    3    15     1    10     9
    1    15    16     4     9
    1    15    16    17     9
    1    15    16    18     9
    3    15    16     4     9
    3    15    16    17     9
    3    15    16    18     9
   15    16     4    53     9
   17    16     4    53     9
   18    16     4    53     9
    4    16    17    20     9
    4    16    17    22     9
   15    16    17    20     9
   15    16    17    22     9
   18    16    17    20     9
   18    16    17    22     9
    4    16    18    21     9
    4    16    18    23     9
   15    16    18    21     9
   15    16    18    23     9
   17    16    18    21     9
   17    16    18    23     9
   16    17    20    26     9
   16    17    20    54     9
   22    17    20    26     9
   22    17    20    54     9
   16    17    22    28     9
   16    17    22    56     9
   20    17    22    28     9
   20    17    22    56     9
   16    18    21    27     9
   16    18    21    55     9
   23    18    21    27     9
   23    18    21    55     9
   16    18    23    29     9
   16    18    23    57     9
   21    18    23    29     9
   21    18    23    57     9
    2    19    24    32     9
    2    19    24    58     9
   25    19    24    32     9
   25    19    24    58     9
    2    19    25    33     9
    2    19    25    59     9
   24    19    25    33     9
   24    19    25    59     9
   17    20    26    30     9
   17    20    26    60     9
   54    20    26    60     9
   18    21    27    31     9
   18    21    27    61     9
   55    21    27    61     9
   17    22    28    30     9
   17    22    28    62     9
   56    22    28    62     9
   18    23    29    31     9
   18    23    29    63     9
   57    23    29    63     9
   19    24    32    34     9
   19    24    32    66     9
   58    24    32    66     9
   19    25    33    34     9
   19    25    33    67     9
   59    25    33    67     9
   30    26    20    54     9
   20    26    30    28     9
   20    26    30    64     9
   60    26    30    64     9
   31    27    21    55     9
   21    27    31    29     9
   21    27    31    65     9
   61    27    31    65     9
   30    28    22    56     9
   22    28    30    26     9
   22    28    30    64     9
   62    28    30    64     9
   31    29    23    57     9
   23    29    31    27     9
   23    29    31    65     9
   63    29    31    65     9
   28    30    26    60     9
   26    30    28    62     9
   29    31    27    61     9
   27    31    29    63     9
   34    32    24    58     9
   24    32    34    33     9
   24    32    34    68     9
   66    32    34    68     9
   34    33    25    59     9
   25    33    34    32     9
   25    33    34    68     9
   67    33    34    68     9
   33    34    32    66     9
   32    34    33    67     9

[ dihedrals ]
; ai	aj	ak	al	funct	q0	cq
   15    16     3     1     2
